 Entering Gaussian System, Link 0=g16
 Initial command:
 /apps/gaussian/g16c01/g16/l1.exe "/jobfs/52803152.gadi-pbs/Gau-2953262.inp" -scrdir="/jobfs/52803152.gadi-pbs/"
 Entering Link 1 = /apps/gaussian/g16c01/g16/l1.exe PID=   2953263.
  
 Copyright (c) 1988-2019, Gaussian, Inc.  All Rights Reserved.
  
 This is part of the Gaussian(R) 16 program.  It is based on
 the Gaussian(R) 09 system (copyright 2009, Gaussian, Inc.),
 the Gaussian(R) 03 system (copyright 2003, Gaussian, Inc.),
 the Gaussian(R) 98 system (copyright 1998, Gaussian, Inc.),
 the Gaussian(R) 94 system (copyright 1995, Gaussian, Inc.),
 the Gaussian 92(TM) system (copyright 1992, Gaussian, Inc.),
 the Gaussian 90(TM) system (copyright 1990, Gaussian, Inc.),
 the Gaussian 88(TM) system (copyright 1988, Gaussian, Inc.),
 the Gaussian 86(TM) system (copyright 1986, Carnegie Mellon
 University), and the Gaussian 82(TM) system (copyright 1983,
 Carnegie Mellon University). Gaussian is a federally registered
 trademark of Gaussian, Inc.
  
 This software contains proprietary and confidential information,
 including trade secrets, belonging to Gaussian, Inc.
  
 This software is provided under written license and may be
 used, copied, transmitted, or stored only in accord with that
 written license.
  
 The following legend is applicable only to US Government
 contracts under FAR:
  
                    RESTRICTED RIGHTS LEGEND
  
 Use, reproduction and disclosure by the US Government is
 subject to restrictions as set forth in subparagraphs (a)
 and (c) of the Commercial Computer Software - Restricted
 Rights clause in FAR 52.227-19.
  
 Gaussian, Inc.
 340 Quinnipiac St., Bldg. 40, Wallingford CT 06492
  
  
 ---------------------------------------------------------------
 Warning -- This program may not be used in any manner that
 competes with the business of Gaussian, Inc. or will provide
 assistance to any competitor of Gaussian, Inc.  The licensee
 of this program is prohibited from giving any competitor of
 Gaussian, Inc. access to this program.  By using this program,
 the user acknowledges that Gaussian, Inc. is engaged in the
 business of creating and licensing software in the field of
 computational chemistry and represents and warrants to the
 licensee that it is not a competitor of Gaussian, Inc. and that
 it will not use this program in any manner prohibited above.
 ---------------------------------------------------------------
  

 Cite this work as:
 Gaussian 16, Revision C.01,
 M. J. Frisch, G. W. Trucks, H. B. Schlegel, G. E. Scuseria, 
 M. A. Robb, J. R. Cheeseman, G. Scalmani, V. Barone, 
 G. A. Petersson, H. Nakatsuji, X. Li, M. Caricato, A. V. Marenich, 
 J. Bloino, B. G. Janesko, R. Gomperts, B. Mennucci, H. P. Hratchian, 
 J. V. Ortiz, A. F. Izmaylov, J. L. Sonnenberg, D. Williams-Young, 
 F. Ding, F. Lipparini, F. Egidi, J. Goings, B. Peng, A. Petrone, 
 T. Henderson, D. Ranasinghe, V. G. Zakrzewski, J. Gao, N. Rega, 
 G. Zheng, W. Liang, M. Hada, M. Ehara, K. Toyota, R. Fukuda, 
 J. Hasegawa, M. Ishida, T. Nakajima, Y. Honda, O. Kitao, H. Nakai, 
 T. Vreven, K. Throssell, J. A. Montgomery, Jr., J. E. Peralta, 
 F. Ogliaro, M. J. Bearpark, J. J. Heyd, E. N. Brothers, K. N. Kudin, 
 V. N. Staroverov, T. A. Keith, R. Kobayashi, J. Normand, 
 K. Raghavachari, A. P. Rendell, J. C. Burant, S. S. Iyengar, 
 J. Tomasi, M. Cossi, J. M. Millam, M. Klene, C. Adamo, R. Cammi, 
 J. W. Ochterski, R. L. Martin, K. Morokuma, O. Farkas, 
 J. B. Foresman, and D. J. Fox, Gaussian, Inc., Wallingford CT, 2019.
 
 ******************************************
 Gaussian 16:  ES64L-G16RevC.01  3-Jul-2019
                27-Jul-2022 
 ******************************************
 %NProcShared=32
 Will use up to   32 processors via shared memory.
 %mem = 128GB
 ---------------------------------------------------------------
 #n M062X/6-311++G(d,p) TD(NStates=1) EmpiricalDispersion=GD3 SP
 ---------------------------------------------------------------
 1/38=1,172=1/1;
 2/12=2,17=6,18=5,40=1/2;
 3/5=4,6=6,7=1111,11=9,25=1,30=1,74=-55,124=31/1,2,3,8;
 4//1;
 5/5=2,38=5/2;
 8/6=1,10=2,108=1/1;
 9/41=1,42=1,70=2/14;
 6/7=2,8=2,9=2,10=2/1;
 99/5=1,9=1/99;
 ----
 SP_4
 ----
 Symbolic Z-matrix:
 Charge =  1 Multiplicity = 1
 C                     2.4927    1.4651    0.068 
 C                     3.7015    0.7527    0.044 
 C                     3.6839   -0.6811    0.064 
 C                     2.4632   -1.4549   -0.048 
 C                    -2.4632   -1.5029   -0.112 
 C                    -3.6839   -0.6571   -0.064 
 C                    -3.7015    0.7527   -0.02 
 C                    -2.4927    1.4011    0.068 
 C                     0.        1.4941    0.132 
 C                     0.       -1.5365   -0.108 
 C                     1.2621    0.6657   -0.012 
 C                     1.2375   -0.7461   -0.048 
 C                    -1.2621    0.6337    0.076 
 C                    -1.2375   -0.7701   -0.056 
 H                     2.4881    2.5283    0.072 
 H                     4.6368    1.3284   -0.02 
 H                     4.6093   -1.2357    0.064 
 H                     2.4675   -2.4454   -0.052 
 H                     0.       -2.6016   -0.112 
 H                    -2.4675   -2.5894   -0.116 
 H                    -4.6093   -1.2837    0.048 
 H                    -4.6368    1.2564   -0.076 
 H                    -2.4881    2.4163    0.072 
 H                    -0.008     2.3305   -0.7396 
 H                     0.008     2.3305    0.9796 
 
                          Input orientation:                          
 ---------------------------------------------------------------------
 Center     Atomic      Atomic             Coordinates (Angstroms)
 Number     Number       Type             X           Y           Z
 ---------------------------------------------------------------------
      1          6           0        2.492700    1.465100    0.068000
      2          6           0        3.701500    0.752700    0.044000
      3          6           0        3.683900   -0.681100    0.064000
      4          6           0        2.463200   -1.454900   -0.048000
      5          6           0       -2.463200   -1.502900   -0.112000
      6          6           0       -3.683900   -0.657100   -0.064000
      7          6           0       -3.701500    0.752700   -0.020000
      8          6           0       -2.492700    1.401100    0.068000
      9          6           0        0.000000    1.494100    0.132000
     10          6           0        0.000000   -1.536500   -0.108000
     11          6           0        1.262100    0.665700   -0.012000
     12          6           0        1.237500   -0.746100   -0.048000
     13          6           0       -1.262100    0.633700    0.076000
     14          6           0       -1.237500   -0.770100   -0.056000
     15          1           0        2.488100    2.528300    0.072000
     16          1           0        4.636800    1.328400   -0.020000
     17          1           0        4.609300   -1.235700    0.064000
     18          1           0        2.467500   -2.445400   -0.052000
     19          1           0        0.000000   -2.601600   -0.112000
     20          1           0       -2.467500   -2.589400   -0.116000
     21          1           0       -4.609300   -1.283700    0.048000
     22          1           0       -4.636800    1.256400   -0.076000
     23          1           0       -2.488100    2.416300    0.072000
     24          1           0       -0.008000    2.330500   -0.739600
     25          1           0        0.008000    2.330500    0.979600
 ---------------------------------------------------------------------
                    Distance matrix (angstroms):
                    1          2          3          4          5
     1  C    0.000000
     2  C    1.403313   0.000000
     3  C    2.454618   1.434047   0.000000
     4  C    2.922452   2.532854   1.449627   0.000000
     5  C    5.779478   6.566247   6.204286   4.927050   0.000000
     6  C    6.532346   7.519530   7.368951   6.198676   1.485863
     7  C    6.235653   7.403277   7.523760   6.548115   2.574798
     8  C    4.985811   6.228091   6.518126   5.721113   2.909723
     9  C    2.493690   3.776046   4.278696   3.846603   3.887017
    10  C    3.905654   4.354841   3.785817   2.465281   2.463432
    11  C    1.469631   2.441593   2.772140   2.437392   4.311692
    12  C    2.545268   2.885509   2.449825   1.415888   3.777833
    13  C    3.845753   4.965129   5.117788   4.272644   2.458261
    14  C    4.350389   5.169395   4.923667   3.763535   1.429151
    15  H    1.063217   2.150786   3.424945   3.985085   6.387472
    16  H    2.150255   1.100142   2.225571   3.531583   7.644261
    17  H    3.431375   2.185918   1.078863   2.160171   7.079734
    18  H    3.912422   3.429259   2.146122   0.990517   5.020330
    19  H    4.773259   4.997676   4.158175   2.717788   2.697127
    20  H    6.409088   7.017962   6.443115   5.059992   1.086516
    21  H    7.615425   8.556655   8.315080   7.075223   2.163191
    22  H    7.134007   8.354362   8.544446   7.600127   3.512772
    23  H    5.070815   6.409329   6.905616   6.286172   3.923596
    24  H    2.766701   4.106565   4.831732   4.573226   4.595307
    25  H    2.784541   4.123923   4.839452   4.627442   4.689710
                    6          7          8          9         10
     6  C    0.000000
     7  C    1.410596   0.000000
     8  C    2.381715   1.374541   0.000000
     9  C    4.270503   3.778079   2.495255   0.000000
    10  C    3.787664   4.353077   3.856686   3.040088   0.000000
    11  C    5.120100   4.964369   3.826975   1.516535   2.540039
    12  C    4.922231   5.161483   4.305614   2.565600   1.469605
    13  C    2.747886   2.444187   1.450291   1.528503   2.517245
    14  C    2.449021   2.896811   2.510978   2.587151   1.456530
    15  H    6.946859   6.439904   5.106757   2.695146   4.769239
    16  H    8.554425   8.358150   7.130414   4.642249   5.451175
    17  H    8.314345   8.545770   7.575694   5.357432   4.622306
    18  H    6.406082   6.948772   6.278021   4.652104   2.630169
    19  H    4.165874   4.996088   4.718852   4.102962   1.065108
    20  H    2.283882   3.563931   3.994819   4.777555   2.682763
    21  H    1.123182   2.230616   3.418852   5.382274   4.618862
    22  H    2.137673   1.063784   2.153796   4.647546   5.413061
    23  H    3.300640   2.061157   1.015218   2.654184   4.674149
    24  H    4.784812   4.080345   2.773037   1.208021   3.918249
    25  H    4.862610   4.153197   2.819273   1.190821   4.017042
                   11         12         13         14         15
    11  C    0.000000
    12  C    1.412473   0.000000
    13  C    2.525936   2.857836   0.000000
    14  C    2.882960   2.475129   1.410207   0.000000
    15  H    2.231459   3.507149   4.201610   4.977542   0.000000
    16  H    3.439162   3.982408   5.940442   6.237980   2.462750
    17  H    3.850305   3.409001   6.161829   5.866537   4.320561
    18  H    3.336695   2.097746   4.838094   4.066162   4.975288
    19  H    3.504019   2.231229   3.477845   2.211094   5.704417
    20  H    4.951405   4.138768   3.446480   2.196896   7.126301
    21  H    6.186849   5.872248   3.857584   3.412277   8.056364
    22  H    5.928747   6.206303   3.435034   3.957568   7.239049
    23  H    4.139524   4.888279   2.163505   3.425424   4.977460
    24  H    2.216780   3.390435   2.262101   3.404805   2.632173
    25  H    2.308159   3.468876   2.304078   3.498208   2.648350
                   16         17         18         19         20
    16  H    0.000000
    17  H    2.565623   0.000000
    18  H    4.352982   2.462547   0.000000
    19  H    6.078921   4.810645   2.473167   0.000000
    20  H    8.113535   7.207357   4.937515   2.467533   0.000000
    21  H    9.608229   9.218739   7.172213   4.796677   2.513773
    22  H    9.274049   9.577083   8.010929   6.032029   4.415613
    23  H    7.208064   7.981870   6.943304   5.603911   5.009271
    24  H    4.805850   5.889229   5.423109   4.971877   5.535651
    25  H    4.840371   5.893052   5.470152   5.051462   5.615501
                   21         22         23         24         25
    21  H    0.000000
    22  H    2.543274   0.000000
    23  H    4.264981   2.446259   0.000000
    24  H    5.903788   4.797900   2.610929   0.000000
    25  H    5.937152   4.882842   2.657370   1.719274   0.000000
 Stoichiometry    C14H11(1+)
 Framework group  C1[X(C14H11)]
 Deg. of freedom    69
 Full point group                 C1      NOp   1
 Largest Abelian subgroup         C1      NOp   1
 Largest concise Abelian subgroup C1      NOp   1
                         Standard orientation:                         
 ---------------------------------------------------------------------
 Center     Atomic      Atomic             Coordinates (Angstroms)
 Number     Number       Type             X           Y           Z
 ---------------------------------------------------------------------
      1          6           0       -2.501800   -1.441039   -0.019513
      2          6           0       -3.706095   -0.720649   -0.020231
      3          6           0       -3.680120    0.710559    0.066149
      4          6           0       -2.453947    1.480957   -0.000207
      5          6           0        2.473013    1.500660   -0.022525
      6          6           0        3.688213    0.645832   -0.003903
      7          6           0        3.697050   -0.764579   -0.024962
      8          6           0        2.483721   -1.408682    0.023310
      9          6           0       -0.009933   -1.488749    0.063009
     10          6           0        0.010108    1.549639   -0.036673
     11          6           0       -1.265840   -0.646608   -0.052642
     12          6           0       -1.232533    0.765165   -0.023162
     13          6           0        1.257691   -0.634691    0.056925
     14          6           0        1.242547    0.773833   -0.010252
     15          1           0       -2.503567   -2.503298   -0.064614
     16          1           0       -4.644246   -1.286846   -0.118244
     17          1           0       -4.602168    1.270417    0.084379
     18          1           0       -2.452313    2.470594    0.041537
     19          1           0        0.016486    2.613767    0.008553
     20          1           0        2.483818    2.586137    0.023725
     21          1           0        4.616370    1.260720    0.144331
     22          1           0        4.629764   -1.271071   -0.096699
     23          1           0        2.473041   -2.422935   -0.019647
     24          1           0        0.000301   -2.284055   -0.846220
     25          1           0       -0.029933   -2.363317    0.870960
 ---------------------------------------------------------------------
 Rotational constants (GHZ):           1.9662098           0.4444682           0.3634412
 Standard basis: 6-311++G(d,p) (5D, 7F)
 There are   399 symmetry adapted cartesian basis functions of A   symmetry.
 There are   385 symmetry adapted basis functions of A   symmetry.
   385 basis functions,   603 primitive gaussians,   399 cartesian basis functions
    47 alpha electrons       47 beta electrons
       nuclear repulsion energy       769.3580593402 Hartrees.
 NAtoms=   25 NActive=   25 NUniq=   25 SFac= 1.00D+00 NAtFMM=   60 NAOKFM=F Big=F
 Integral buffers will be    131072 words long.
 Regular integral format.
 Two-electron integral symmetry is turned on.
 Nuclear repulsion after empirical dispersion term =      769.3570622566 Hartrees.
 One-electron integrals computed using PRISM.
 NBasis=   385 RedAO= T EigKep=  1.46D-06  NBF=   385
 NBsUse=   380 1.00D-06 EigRej=  8.68D-07 NBFU=   380
 ExpMin= 3.60D-02 ExpMax= 4.56D+03 ExpMxC= 6.82D+02 IAcc=3 IRadAn=         5 AccDes= 0.00D+00
 Harris functional with IExCor= 1009 and IRadAn=       5 diagonalized for initial guess.
 HarFok:  IExCor= 1009 AccDes= 0.00D+00 IRadAn=         5 IDoV= 1 UseB2=F ITyADJ=14
 ICtDFT=  3500011 ScaDFX=  1.000000  1.000000  1.000000  1.000000
 FoFCou: FMM=F IPFlag=           0 FMFlag=      100000 FMFlg1=           0
         NFxFlg=           0 DoJE=T BraDBF=F KetDBF=T FulRan=T
         wScrn=  0.000000 ICntrl=       500 IOpCl=  0 I1Cent=   200000004 NGrid=           0
         NMat0=    1 NMatS0=      1 NMatT0=    0 NMatD0=    1 NMtDS0=    0 NMtDT0=    0
 Petite list used in FoFCou.
 Requested convergence on RMS density matrix=1.00D-08 within 128 cycles.
 Requested convergence on MAX density matrix=1.00D-06.
 Requested convergence on             energy=1.00D-06.
 No special actions if energy rises.
 SCF Done:  E(RM062X) =  -539.687706173     A.U. after   17 cycles
            NFock= 17  Conv=0.45D-08     -V/T= 2.0061
 DoSCS=F DFT=T ScalE2(SS,OS)=  1.000000  1.000000
 ExpMin= 3.60D-02 ExpMax= 4.56D+03 ExpMxC= 6.82D+02 IAcc=3 IRadAn=         5 AccDes= 0.00D+00
 HarFok:  IExCor=  205 AccDes= 0.00D+00 IRadAn=         5 IDoV=-2 UseB2=F ITyADJ=14
 ICtDFT= 12500011 ScaDFX=  1.000000  1.000000  1.000000  1.000000
 Range of M.O.s used for correlation:    15   380
 NBasis=   385 NAE=    47 NBE=    47 NFC=    14 NFV=     0
 NROrb=    366 NOA=    33 NOB=    33 NVA=   333 NVB=   333

 **** Warning!!: The largest alpha MO coefficient is  0.16254271D+03

 Orbital symmetries:
       Occupied  (A) (A) (A) (A) (A) (A) (A) (A) (A) (A) (A) (A)
                 (A) (A) (A) (A) (A) (A) (A) (A) (A) (A) (A) (A)
                 (A) (A) (A) (A) (A) (A) (A) (A) (A) (A) (A) (A)
                 (A) (A) (A) (A) (A) (A) (A) (A) (A) (A) (A)
       Virtual   (A) (A) (A) (A) (A) (A) (A) (A) (A) (A) (A) (A)
                 (A) (A) (A) (A) (A) (A) (A) (A) (A) (A) (A) (A)
                 (A) (A) (A) (A) (A) (A) (A) (A) (A) (A) (A) (A)
                 (A) (A) (A) (A) (A) (A) (A) (A) (A) (A) (A) (A)
                 (A) (A) (A) (A) (A) (A) (A) (A) (A) (A) (A) (A)
                 (A) (A) (A) (A) (A) (A) (A) (A) (A) (A) (A) (A)
                 (A) (A) (A) (A) (A) (A) (A) (A) (A) (A) (A) (A)
                 (A) (A) (A) (A) (A) (A) (A) (A) (A) (A) (A) (A)
                 (A) (A) (A) (A) (A) (A) (A) (A) (A) (A) (A) (A)
                 (A) (A) (A) (A) (A) (A) (A) (A) (A) (A) (A) (A)
                 (A) (A) (A) (A) (A) (A) (A) (A) (A) (A) (A) (A)
                 (A) (A) (A) (A) (A) (A) (A) (A) (A) (A) (A) (A)
                 (A) (A) (A) (A) (A) (A) (A) (A) (A) (A) (A) (A)
                 (A) (A) (A) (A) (A) (A) (A) (A) (A) (A) (A) (A)
                 (A) (A) (A) (A) (A) (A) (A) (A) (A) (A) (A) (A)
                 (A) (A) (A) (A) (A) (A) (A) (A) (A) (A) (A) (A)
                 (A) (A) (A) (A) (A) (A) (A) (A) (A) (A) (A) (A)
                 (A) (A) (A) (A) (A) (A) (A) (A) (A) (A) (A) (A)
                 (A) (A) (A) (A) (A) (A) (A) (A) (A) (A) (A) (A)
                 (A) (A) (A) (A) (A) (A) (A) (A) (A) (A) (A) (A)
                 (A) (A) (A) (A) (A) (A) (A) (A) (A) (A) (A) (A)
                 (A) (A) (A) (A) (A) (A) (A) (A) (A) (A) (A) (A)
                 (A) (A) (A) (A) (A) (A) (A) (A) (A) (A) (A) (A)
                 (A) (A) (A) (A) (A) (A) (A) (A) (A) (A) (A) (A)
                 (A) (A) (A) (A) (A) (A) (A) (A) (A) (A) (A) (A)
                 (A) (A) (A) (A) (A) (A) (A) (A) (A) (A) (A) (A)
                 (A) (A) (A) (A) (A) (A) (A) (A) (A) (A) (A) (A)
                 (A) (A) (A) (A) (A) (A) (A) (A) (A)
     4 initial guesses have been made.
 Convergence on wavefunction:    0.001000000000000
 Iteration     1 Dimension     4 NMult     0 NNew      4
 CISAX will form     4 AO SS matrices at one time.
 Iteration     2 Dimension     6 NMult     4 NNew      2
 Iteration     3 Dimension     8 NMult     6 NNew      2
 Iteration     4 Dimension    10 NMult     8 NNew      2
 Iteration     5 Dimension    12 NMult    10 NNew      2
 Iteration     6 Dimension    14 NMult    12 NNew      2
 ***********************************************************************
 Excited states from <AA,BB:AA,BB> singles matrix:
 ***********************************************************************
 
 Ground to excited state transition densities written to RWF  633
 Ground to excited state transition electric dipole moments (Au):
       state          X           Y           Z        Dip. S.      Osc.
         1         0.0135      0.6803     -0.0022      0.4629      0.0277
 Ground to excited state transition velocity dipole moments (Au):
       state          X           Y           Z        Dip. S.      Osc.
         1        -0.0025     -0.0668      0.0004      0.0045      0.0332
 Ground to excited state transition magnetic dipole moments (Au):
       state          X           Y           Z
         1         0.0118     -0.0083     -0.0447
 Ground to excited state transition velocity quadrupole moments (Au):
       state          XX          YY          ZZ          XY          XZ          YZ
         1        -0.2674     -0.0112      0.0121     -0.0338      0.0052      0.0018
 <0|del|b> * <b|rxdel|0> + <0|del|b> * <b|delr+rdel|0>
 Rotatory Strengths (R) in cgs (10**-40 erg-esu-cm/Gauss)
       state          XX          YY          ZZ    R(velocity)    E-M Angle
         1         3.4187     -0.1518      0.7213      1.3294       80.74
 1/2[<0|r|b>*<b|rxdel|0> + (<0|rxdel|b>*<b|r|0>)*]
 Rotatory Strengths (R) in cgs (10**-40 erg-esu-cm/Gauss)
       state          XX          YY          ZZ     R(length)
         1        -0.1129      3.9950     -0.0709      1.2704
  1/2[<0|del|b>*<b|r|0> + (<0|r|b>*<b|del|0>)*] (Au)
       state          X           Y           Z        Dip. S.   Osc.(frdel)
         1        -0.0000     -0.0454     -0.0000      0.0455      0.0303

 Excitation energies and oscillator strengths:
 
 Excited State   1:      Singlet-A      2.4384 eV  508.47 nm  f=0.0277  <S**2>=0.000
      47 -> 48         0.70468
 This state for optimization and/or second-order correction.
 Total Energy, E(TD-HF/TD-DFT) =  -539.598097940    
 Copying the excited state density for this state as the 1-particle RhoCI density.
 SavETr:  write IOETrn=   770 NScale= 10 NData=  16 NLR=1 NState=    1 LETran=      28.

 **********************************************************************

            Population analysis using the SCF Density.

 **********************************************************************

 Orbital symmetries:
       Occupied  (A) (A) (A) (A) (A) (A) (A) (A) (A) (A) (A) (A)
                 (A) (A) (A) (A) (A) (A) (A) (A) (A) (A) (A) (A)
                 (A) (A) (A) (A) (A) (A) (A) (A) (A) (A) (A) (A)
                 (A) (A) (A) (A) (A) (A) (A) (A) (A) (A) (A)
       Virtual   (A) (A) (A) (A) (A) (A) (A) (A) (A) (A) (A) (A)
                 (A) (A) (A) (A) (A) (A) (A) (A) (A) (A) (A) (A)
                 (A) (A) (A) (A) (A) (A) (A) (A) (A) (A) (A) (A)
                 (A) (A) (A) (A) (A) (A) (A) (A) (A) (A) (A) (A)
                 (A) (A) (A) (A) (A) (A) (A) (A) (A) (A) (A) (A)
                 (A) (A) (A) (A) (A) (A) (A) (A) (A) (A) (A) (A)
                 (A) (A) (A) (A) (A) (A) (A) (A) (A) (A) (A) (A)
                 (A) (A) (A) (A) (A) (A) (A) (A) (A) (A) (A) (A)
                 (A) (A) (A) (A) (A) (A) (A) (A) (A) (A) (A) (A)
                 (A) (A) (A) (A) (A) (A) (A) (A) (A) (A) (A) (A)
                 (A) (A) (A) (A) (A) (A) (A) (A) (A) (A) (A) (A)
                 (A) (A) (A) (A) (A) (A) (A) (A) (A) (A) (A) (A)
                 (A) (A) (A) (A) (A) (A) (A) (A) (A) (A) (A) (A)
                 (A) (A) (A) (A) (A) (A) (A) (A) (A) (A) (A) (A)
                 (A) (A) (A) (A) (A) (A) (A) (A) (A) (A) (A) (A)
                 (A) (A) (A) (A) (A) (A) (A) (A) (A) (A) (A) (A)
                 (A) (A) (A) (A) (A) (A) (A) (A) (A) (A) (A) (A)
                 (A) (A) (A) (A) (A) (A) (A) (A) (A) (A) (A) (A)
                 (A) (A) (A) (A) (A) (A) (A) (A) (A) (A) (A) (A)
                 (A) (A) (A) (A) (A) (A) (A) (A) (A) (A) (A) (A)
                 (A) (A) (A) (A) (A) (A) (A) (A) (A) (A) (A) (A)
                 (A) (A) (A) (A) (A) (A) (A) (A) (A) (A) (A) (A)
                 (A) (A) (A) (A) (A) (A) (A) (A) (A) (A) (A) (A)
                 (A) (A) (A) (A) (A) (A) (A) (A) (A) (A) (A) (A)
                 (A) (A) (A) (A) (A) (A) (A) (A) (A) (A) (A) (A)
                 (A) (A) (A) (A) (A) (A) (A) (A) (A) (A) (A) (A)
                 (A) (A) (A) (A) (A) (A) (A) (A) (A) (A) (A) (A)
                 (A) (A) (A) (A) (A) (A) (A) (A) (A)
 The electronic state is 1-A.
 Alpha  occ. eigenvalues --  -10.78745 -10.74410 -10.74193 -10.73342 -10.73328
 Alpha  occ. eigenvalues --  -10.73205 -10.72388 -10.71548 -10.70937 -10.70826
 Alpha  occ. eigenvalues --  -10.70787 -10.70745 -10.70435 -10.69859  -1.14861
 Alpha  occ. eigenvalues --   -1.10880  -1.05899  -1.03842  -1.01119  -0.98310
 Alpha  occ. eigenvalues --   -0.95093  -0.89401  -0.86815  -0.84922  -0.84069
 Alpha  occ. eigenvalues --   -0.77585  -0.74550  -0.74330  -0.70579  -0.69790
 Alpha  occ. eigenvalues --   -0.68460  -0.67370  -0.65653  -0.65137  -0.64660
 Alpha  occ. eigenvalues --   -0.61987  -0.60254  -0.58494  -0.58186  -0.57950
 Alpha  occ. eigenvalues --   -0.57544  -0.56950  -0.52568  -0.51533  -0.46321
 Alpha  occ. eigenvalues --   -0.44938  -0.43304
 Alpha virt. eigenvalues --   -0.26465  -0.15914  -0.14297  -0.13581  -0.11250
 Alpha virt. eigenvalues --   -0.10358  -0.09143  -0.08512  -0.07836  -0.07540
 Alpha virt. eigenvalues --   -0.07413  -0.07168  -0.05751  -0.05694  -0.05581
 Alpha virt. eigenvalues --   -0.03802  -0.03634  -0.03595  -0.03192  -0.02213
 Alpha virt. eigenvalues --   -0.01474  -0.01096   0.00035   0.00133   0.00540
 Alpha virt. eigenvalues --    0.00725   0.01031   0.01271   0.01472   0.01896
 Alpha virt. eigenvalues --    0.02086   0.02595   0.02652   0.03068   0.03351
 Alpha virt. eigenvalues --    0.03921   0.04203   0.04415   0.04677   0.05202
 Alpha virt. eigenvalues --    0.05503   0.05928   0.06624   0.06827   0.06968
 Alpha virt. eigenvalues --    0.07583   0.07773   0.08237   0.08579   0.08735
 Alpha virt. eigenvalues --    0.09056   0.09338   0.09766   0.10037   0.10228
 Alpha virt. eigenvalues --    0.10847   0.11470   0.11643   0.11921   0.12517
 Alpha virt. eigenvalues --    0.12701   0.12929   0.13213   0.13678   0.14276
 Alpha virt. eigenvalues --    0.14950   0.15738   0.16476   0.16488   0.16908
 Alpha virt. eigenvalues --    0.17233   0.17524   0.18479   0.18905   0.19122
 Alpha virt. eigenvalues --    0.19741   0.20737   0.21107   0.21533   0.21733
 Alpha virt. eigenvalues --    0.22727   0.23552   0.24216   0.25496   0.26233
 Alpha virt. eigenvalues --    0.26531   0.27236   0.28013   0.28304   0.30160
 Alpha virt. eigenvalues --    0.32892   0.33769   0.36854   0.38226   0.39093
 Alpha virt. eigenvalues --    0.40760   0.41163   0.41468   0.42029   0.42559
 Alpha virt. eigenvalues --    0.43138   0.43802   0.44387   0.45158   0.45491
 Alpha virt. eigenvalues --    0.47125   0.48449   0.48660   0.49160   0.49628
 Alpha virt. eigenvalues --    0.50451   0.50635   0.51827   0.52293   0.52793
 Alpha virt. eigenvalues --    0.53288   0.53772   0.54591   0.55395   0.55780
 Alpha virt. eigenvalues --    0.56986   0.57524   0.58028   0.60540   0.61182
 Alpha virt. eigenvalues --    0.61644   0.62544   0.63033   0.63522   0.63880
 Alpha virt. eigenvalues --    0.64937   0.67029   0.67806   0.69689   0.71157
 Alpha virt. eigenvalues --    0.71469   0.72292   0.73120   0.74507   0.75175
 Alpha virt. eigenvalues --    0.75796   0.76034   0.76615   0.78066   0.78436
 Alpha virt. eigenvalues --    0.79541   0.80146   0.80711   0.82172   0.82558
 Alpha virt. eigenvalues --    0.83240   0.85233   0.86408   0.86708   0.87621
 Alpha virt. eigenvalues --    0.89007   0.90346   0.91339   0.93385   0.94554
 Alpha virt. eigenvalues --    0.95147   0.96461   0.98565   0.98948   1.00130
 Alpha virt. eigenvalues --    1.01922   1.02534   1.03192   1.05063   1.07462
 Alpha virt. eigenvalues --    1.09787   1.14630   1.16813   1.21270   1.23295
 Alpha virt. eigenvalues --    1.25185   1.29710   1.31906   1.34212   1.35284
 Alpha virt. eigenvalues --    1.36117   1.37335   1.38278   1.39079   1.39779
 Alpha virt. eigenvalues --    1.41202   1.41603   1.42181   1.42678   1.44720
 Alpha virt. eigenvalues --    1.45487   1.46684   1.47494   1.48621   1.51131
 Alpha virt. eigenvalues --    1.53177   1.53771   1.54569   1.55679   1.57010
 Alpha virt. eigenvalues --    1.59539   1.62558   1.63226   1.64077   1.64680
 Alpha virt. eigenvalues --    1.66076   1.68094   1.69111   1.69481   1.72034
 Alpha virt. eigenvalues --    1.72368   1.73964   1.74728   1.76293   1.77336
 Alpha virt. eigenvalues --    1.79305   1.79495   1.80406   1.81593   1.82215
 Alpha virt. eigenvalues --    1.83717   1.84151   1.85099   1.86157   1.86540
 Alpha virt. eigenvalues --    1.88868   1.91597   1.91951   1.93766   1.95531
 Alpha virt. eigenvalues --    1.95860   1.98019   1.99107   2.01814   2.04628
 Alpha virt. eigenvalues --    2.05927   2.08516   2.12136   2.12884   2.13918
 Alpha virt. eigenvalues --    2.15331   2.17023   2.18317   2.25795   2.27944
 Alpha virt. eigenvalues --    2.30135   2.30897   2.33731   2.35957   2.37057
 Alpha virt. eigenvalues --    2.37677   2.38789   2.40748   2.43705   2.46283
 Alpha virt. eigenvalues --    2.49593   2.54388   2.56405   2.56765   2.58318
 Alpha virt. eigenvalues --    2.59263   2.60672   2.60898   2.61520   2.62434
 Alpha virt. eigenvalues --    2.62661   2.63128   2.63537   2.64144   2.65222
 Alpha virt. eigenvalues --    2.65808   2.66986   2.67525   2.71132   2.72037
 Alpha virt. eigenvalues --    2.72844   2.73672   2.75911   2.79149   2.80882
 Alpha virt. eigenvalues --    2.82105   2.84400   2.86164   2.89324   2.91305
 Alpha virt. eigenvalues --    2.96860   2.97127   2.98112   3.01596   3.06173
 Alpha virt. eigenvalues --    3.07041   3.12377   3.14638   3.19753   3.20594
 Alpha virt. eigenvalues --    3.23330   3.25075   3.27349   3.34510   3.36130
 Alpha virt. eigenvalues --    3.39724   3.42948   3.44744   3.47476   3.49363
 Alpha virt. eigenvalues --    3.65205   3.66940   3.85144   3.91413   3.97352
 Alpha virt. eigenvalues --    3.99109   4.07541   4.08890   4.11266   4.14862
 Alpha virt. eigenvalues --    4.24429   4.49133   4.61279   4.63025  23.47106
 Alpha virt. eigenvalues --   23.60153  23.70097  23.75996  23.77677  23.80703
 Alpha virt. eigenvalues --   23.83705  23.88103  23.88877  23.91259  23.92359
 Alpha virt. eigenvalues --   23.96287  24.00821  24.10372
          Condensed to atoms (all electrons):
               1          2          3          4          5          6
     1  C   13.438296  -0.869264  -1.096370   2.384758  -0.304462   0.049012
     2  C   -0.869264   7.062550   0.155232  -1.383407   0.021536  -0.026562
     3  C   -1.096370   0.155232   6.615320   1.041386  -0.042826   0.001119
     4  C    2.384758  -1.383407   1.041386  11.336419  -0.564532  -0.051508
     5  C   -0.304462   0.021536  -0.042826  -0.564532  10.106325   0.358619
     6  C    0.049012  -0.026562   0.001119  -0.051508   0.358619   6.870941
     7  C    0.028770   0.008708  -0.013650   0.011599  -0.910160   0.191352
     8  C   -0.570662   0.060498   0.011543  -0.113365   2.276772  -1.223173
     9  C    0.909500  -0.967474   0.235524   1.044382  -1.111180   0.038530
    10  C   -0.102546   0.149559  -0.584744  -2.365972  -0.480698  -0.590671
    11  C   -4.858602   0.249511   1.390562  -0.740287  -0.444302  -0.010108
    12  C   -3.804589   1.790080  -1.076881  -3.535094   0.370226  -0.722665
    13  C   -0.186145   0.002609   0.015497  -1.337782  -0.129589   1.369106
    14  C    0.982199  -0.306332  -0.536354   0.084312  -3.265904  -0.195353
    15  H    0.466611  -0.126747   0.002332   0.043609  -0.000473   0.001931
    16  H   -0.085369   0.408755  -0.014343  -0.011828  -0.000435  -0.000416
    17  H   -0.038916  -0.046640   0.410485  -0.066065  -0.000013   0.000091
    18  H    0.098777   0.012081  -0.150957   0.469621   0.000190  -0.003079
    19  H   -0.026875  -0.008267   0.031571  -0.046233  -0.011034   0.046631
    20  H   -0.000405   0.002492  -0.003481   0.000123   0.452232  -0.120845
    21  H    0.000970  -0.000563   0.000241   0.000772  -0.086991   0.383972
    22  H    0.000766   0.000539  -0.000315  -0.001168  -0.003200  -0.030718
    23  H   -0.007706  -0.001921   0.001931   0.001714   0.031012  -0.002377
    24  H   -0.096552   0.030943   0.001398  -0.014624  -0.001246  -0.016700
    25  H    0.074672  -0.015225  -0.002816  -0.005268   0.000137   0.013789
               7          8          9         10         11         12
     1  C    0.028770  -0.570662   0.909500  -0.102546  -4.858602  -3.804589
     2  C    0.008708   0.060498  -0.967474   0.149559   0.249511   1.790080
     3  C   -0.013650   0.011543   0.235524  -0.584744   1.390562  -1.076881
     4  C    0.011599  -0.113365   1.044382  -2.365972  -0.740287  -3.535094
     5  C   -0.910160   2.276772  -1.111180  -0.480698  -0.444302   0.370226
     6  C    0.191352  -1.223173   0.038530  -0.590671  -0.010108  -0.722665
     7  C    6.585408   0.262588  -0.023615   0.008229  -0.198106  -0.042152
     8  C    0.262588  10.161220  -1.187503   0.208151   0.847968   0.085296
     9  C   -0.023615  -1.187503   9.299844   0.351090  -1.132379  -2.458957
    10  C    0.008229   0.208151   0.351090   8.237068  -0.410597   1.376619
    11  C   -0.198106   0.847968  -1.132379  -0.410597  17.672310  -3.812901
    12  C   -0.042152   0.085296  -2.458957   1.376619  -3.812901  20.568832
    13  C   -0.773564  -1.500977   0.525924  -0.057641   2.664054  -3.833844
    14  C    0.946078  -3.681570   0.290602  -0.148835  -5.210105   0.324509
    15  H   -0.001496  -0.011842   0.095876  -0.006384  -0.131625  -0.021567
    16  H    0.000362   0.001515  -0.010268  -0.004198   0.044667   0.004266
    17  H   -0.000193   0.000942   0.004924  -0.005655   0.041583   0.046134
    18  H    0.002058  -0.001401  -0.018168   0.070369  -0.087345  -0.072739
    19  H   -0.012678  -0.019725   0.045363   0.401460   0.051636  -0.095053
    20  H    0.016817   0.058453  -0.024456   0.081526  -0.009481   0.040774
    21  H   -0.025404  -0.034013  -0.002282   0.003097  -0.001045  -0.005427
    22  H    0.413968  -0.052711   0.001108  -0.006443   0.003990  -0.005727
    23  H   -0.125601   0.425323   0.040619   0.000974   0.016924   0.010488
    24  H    0.009368   0.105084   0.348903   0.014246   0.127709  -0.035668
    25  H    0.000729  -0.059945   0.351442   0.001366  -0.070281  -0.022415
              13         14         15         16         17         18
     1  C   -0.186145   0.982199   0.466611  -0.085369  -0.038916   0.098777
     2  C    0.002609  -0.306332  -0.126747   0.408755  -0.046640   0.012081
     3  C    0.015497  -0.536354   0.002332  -0.014343   0.410485  -0.150957
     4  C   -1.337782   0.084312   0.043609  -0.011828  -0.066065   0.469621
     5  C   -0.129589  -3.265904  -0.000473  -0.000435  -0.000013   0.000190
     6  C    1.369106  -0.195353   0.001931  -0.000416   0.000091  -0.003079
     7  C   -0.773564   0.946078  -0.001496   0.000362  -0.000193   0.002058
     8  C   -1.500977  -3.681570  -0.011842   0.001515   0.000942  -0.001401
     9  C    0.525924   0.290602   0.095876  -0.010268   0.004924  -0.018168
    10  C   -0.057641  -0.148835  -0.006384  -0.004198  -0.005655   0.070369
    11  C    2.664054  -5.210105  -0.131625   0.044667   0.041583  -0.087345
    12  C   -3.833844   0.324509  -0.021567   0.004266   0.046134  -0.072739
    13  C   13.316795  -3.725620  -0.009261   0.001756   0.001654  -0.024991
    14  C   -3.725620  19.829096   0.031598  -0.008275  -0.008641   0.053545
    15  H   -0.009261   0.031598   0.457990  -0.012652   0.001066   0.000524
    16  H    0.001756  -0.008275  -0.012652   0.424938  -0.007164   0.002171
    17  H    0.001654  -0.008641   0.001066  -0.007164   0.435181  -0.017655
    18  H   -0.024991   0.053545   0.000524   0.002171  -0.017655   0.494611
    19  H    0.059157  -0.048182   0.000360  -0.000435   0.001340  -0.009354
    20  H   -0.033724  -0.122630  -0.000107   0.000035  -0.000147   0.001279
    21  H    0.005323   0.096988   0.000031  -0.000009   0.000012  -0.000160
    22  H    0.034818  -0.019486  -0.000164   0.000013  -0.000006   0.000027
    23  H   -0.016695  -0.044765   0.001034  -0.000160   0.000025  -0.000192
    24  H   -0.014926  -0.119444  -0.011147   0.001560  -0.000184   0.000420
    25  H    0.028556   0.032180   0.006021  -0.000140   0.000077  -0.000499
              19         20         21         22         23         24
     1  C   -0.026875  -0.000405   0.000970   0.000766  -0.007706  -0.096552
     2  C   -0.008267   0.002492  -0.000563   0.000539  -0.001921   0.030943
     3  C    0.031571  -0.003481   0.000241  -0.000315   0.001931   0.001398
     4  C   -0.046233   0.000123   0.000772  -0.001168   0.001714  -0.014624
     5  C   -0.011034   0.452232  -0.086991  -0.003200   0.031012  -0.001246
     6  C    0.046631  -0.120845   0.383972  -0.030718  -0.002377  -0.016700
     7  C   -0.012678   0.016817  -0.025404   0.413968  -0.125601   0.009368
     8  C   -0.019725   0.058453  -0.034013  -0.052711   0.425323   0.105084
     9  C    0.045363  -0.024456  -0.002282   0.001108   0.040619   0.348903
    10  C    0.401460   0.081526   0.003097  -0.006443   0.000974   0.014246
    11  C    0.051636  -0.009481  -0.001045   0.003990   0.016924   0.127709
    12  C   -0.095053   0.040774  -0.005427  -0.005727   0.010488  -0.035668
    13  C    0.059157  -0.033724   0.005323   0.034818  -0.016695  -0.014926
    14  C   -0.048182  -0.122630   0.096988  -0.019486  -0.044765  -0.119444
    15  H    0.000360  -0.000107   0.000031  -0.000164   0.001034  -0.011147
    16  H   -0.000435   0.000035  -0.000009   0.000013  -0.000160   0.001560
    17  H    0.001340  -0.000147   0.000012  -0.000006   0.000025  -0.000184
    18  H   -0.009354   0.001279  -0.000160   0.000027  -0.000192   0.000420
    19  H    0.429676  -0.006892   0.001669  -0.000638   0.000650   0.000228
    20  H   -0.006892   0.454998  -0.011380   0.002123   0.000209   0.000160
    21  H    0.001669  -0.011380   0.440074  -0.008377   0.000939  -0.000473
    22  H   -0.000638   0.002123  -0.008377   0.428865  -0.012353   0.001627
    23  H    0.000650   0.000209   0.000939  -0.012353   0.458842   0.000459
    24  H    0.000228   0.000160  -0.000473   0.001627   0.000459   0.493761
    25  H    0.000479  -0.000034   0.000353  -0.000373  -0.004253  -0.084923
              25
     1  C    0.074672
     2  C   -0.015225
     3  C   -0.002816
     4  C   -0.005268
     5  C    0.000137
     6  C    0.013789
     7  C    0.000729
     8  C   -0.059945
     9  C    0.351442
    10  C    0.001366
    11  C   -0.070281
    12  C   -0.022415
    13  C    0.028556
    14  C    0.032180
    15  H    0.006021
    16  H   -0.000140
    17  H    0.000077
    18  H   -0.000499
    19  H    0.000479
    20  H   -0.000034
    21  H    0.000353
    22  H   -0.000373
    23  H   -0.004253
    24  H   -0.084923
    25  H    0.470634
 Mulliken charges:
               1
     1  C   -0.385866
     2  C   -0.202690
     3  C   -0.391404
     4  C   -0.181560
     5  C   -0.260005
     6  C   -0.330916
     7  C   -0.359416
     8  C   -0.048468
     9  C   -0.647345
    10  C   -0.139370
    11  C    0.006254
    12  C    0.928458
    13  C   -0.380490
    14  C    0.770390
    15  H    0.224481
    16  H    0.265655
    17  H    0.247762
    18  H    0.180868
    19  H    0.215146
    20  H    0.222362
    21  H    0.241683
    22  H    0.253835
    23  H    0.224880
    24  H    0.260022
    25  H    0.285738
 Sum of Mulliken charges =   1.00000
 Mulliken charges with hydrogens summed into heavy atoms:
               1
     1  C   -0.161385
     2  C    0.062965
     3  C   -0.143643
     4  C   -0.000692
     5  C   -0.037644
     6  C   -0.089234
     7  C   -0.105581
     8  C    0.176412
     9  C   -0.101585
    10  C    0.075775
    11  C    0.006254
    12  C    0.928458
    13  C   -0.380490
    14  C    0.770390
 Electronic spatial extent (au):  <R**2>=           2898.6314
 Charge=              1.0000 electrons
 Dipole moment (field-independent basis, Debye):
    X=             -0.0204    Y=              0.0547    Z=             -0.0129  Tot=              0.0598
 Quadrupole moment (field-independent basis, Debye-Ang):
   XX=            -34.1212   YY=            -52.6151   ZZ=            -85.4479
   XY=              0.3737   XZ=              0.5275   YZ=              0.7124
 Traceless Quadrupole moment (field-independent basis, Debye-Ang):
   XX=             23.2736   YY=              4.7796   ZZ=            -28.0532
   XY=              0.3737   XZ=              0.5275   YZ=              0.7124
 Octapole moment (field-independent basis, Debye-Ang**2):
  XXX=             -1.5641  YYY=              4.5412  ZZZ=              0.0362  XYY=              0.0595
  XXY=            -10.0917  XXZ=             -0.0531  XZZ=              0.0718  YZZ=             -2.9802
  YYZ=              0.5602  XYZ=              0.3931
 Hexadecapole moment (field-independent basis, Debye-Ang**3):
 XXXX=          -2204.5933 YYYY=           -625.3580 ZZZZ=           -104.2174 XXXY=             -5.4936
 XXXZ=             12.4304 YYYX=              7.3627 YYYZ=              3.0391 ZZZX=              0.5937
 ZZZY=              0.5205 XXYY=           -507.9029 XXZZ=           -598.8342 YYZZ=           -155.7425
 XXYZ=             15.1752 YYXZ=              1.5065 ZZXY=             -1.7259
 N-N= 7.693570622566D+02 E-N=-2.774220724223D+03  KE= 5.364354803286D+02
 Unable to Open any file for archive entry.
 1\1\GINC-GADI-CPU-CLX-0572\SP\RM062X TD-FC\6-311++G(d,p)\C14H11(1+)\TS
 1578\27-Jul-2022\0\\#n M062X/6-311++G(d,p) TD(NStates=1) EmpiricalDisp
 ersion=GD3 SP\\SP_4\\1,1\C,0,2.4927,1.4651,0.068\C,0,3.7015,0.7527,0.0
 44\C,0,3.6839,-0.6811,0.064\C,0,2.4632,-1.4549,-0.048\C,0,-2.4632,-1.5
 029,-0.112\C,0,-3.6839,-0.6571,-0.064\C,0,-3.7015,0.7527,-0.02\C,0,-2.
 4927,1.4011,0.068\C,0,0.,1.4941,0.132\C,0,0.,-1.5365,-0.108\C,0,1.2621
 ,0.6657,-0.012\C,0,1.2375,-0.7461,-0.048\C,0,-1.2621,0.6337,0.076\C,0,
 -1.2375,-0.7701,-0.056\H,0,2.4881,2.5283,0.072\H,0,4.6368,1.3284,-0.02
 \H,0,4.6093,-1.2357,0.064\H,0,2.4675,-2.4454,-0.052\H,0,0.,-2.6016,-0.
 112\H,0,-2.4675,-2.5894,-0.116\H,0,-4.6093,-1.2837,0.048\H,0,-4.6368,1
 .2564,-0.076\H,0,-2.4881,2.4163,0.072\H,0,-0.008,2.3305,-0.7396\H,0,0.
 008,2.3305,0.9796\\Version=ES64L-G16RevC.01\State=1-A\HF=-539.6877062\
 RMSD=4.511e-09\PG=C01 [X(C14H11)]\\@
 The archive entry for this job was punched.


 THE MOST SERIOUS THREAT TO THE SURVIVAL OF MANKIND IS NOT NOW
 IGNORANCE IN THE TRADITIONAL SENSE,
 BUT A MORALLY NEUTRAL, AN INSENSITIVE OR INHIBITED HUMAN INTELLIGENCE.

                     -- MARGO JEFFERSON IN NEWSWEEK, SEPTEMBER 2, 1974
 Job cpu time:       0 days  1 hours 12 minutes 57.4 seconds.
 Elapsed time:       0 days  0 hours  2 minutes 17.3 seconds.
 File lengths (MBytes):  RWF=    461 Int=      0 D2E=      0 Chk=     15 Scr=      1
 Normal termination of Gaussian 16 at Wed Jul 27 12:08:58 2022.
