 Entering Gaussian System, Link 0=g16
 Initial command:
 /apps/gaussian/g16c01/g16/l1.exe "/jobfs/52803152.gadi-pbs/Gau-2812821.inp" -scrdir="/jobfs/52803152.gadi-pbs/"
 Entering Link 1 = /apps/gaussian/g16c01/g16/l1.exe PID=   2812822.
  
 Copyright (c) 1988-2019, Gaussian, Inc.  All Rights Reserved.
  
 This is part of the Gaussian(R) 16 program.  It is based on
 the Gaussian(R) 09 system (copyright 2009, Gaussian, Inc.),
 the Gaussian(R) 03 system (copyright 2003, Gaussian, Inc.),
 the Gaussian(R) 98 system (copyright 1998, Gaussian, Inc.),
 the Gaussian(R) 94 system (copyright 1995, Gaussian, Inc.),
 the Gaussian 92(TM) system (copyright 1992, Gaussian, Inc.),
 the Gaussian 90(TM) system (copyright 1990, Gaussian, Inc.),
 the Gaussian 88(TM) system (copyright 1988, Gaussian, Inc.),
 the Gaussian 86(TM) system (copyright 1986, Carnegie Mellon
 University), and the Gaussian 82(TM) system (copyright 1983,
 Carnegie Mellon University). Gaussian is a federally registered
 trademark of Gaussian, Inc.
  
 This software contains proprietary and confidential information,
 including trade secrets, belonging to Gaussian, Inc.
  
 This software is provided under written license and may be
 used, copied, transmitted, or stored only in accord with that
 written license.
  
 The following legend is applicable only to US Government
 contracts under FAR:
  
                    RESTRICTED RIGHTS LEGEND
  
 Use, reproduction and disclosure by the US Government is
 subject to restrictions as set forth in subparagraphs (a)
 and (c) of the Commercial Computer Software - Restricted
 Rights clause in FAR 52.227-19.
  
 Gaussian, Inc.
 340 Quinnipiac St., Bldg. 40, Wallingford CT 06492
  
  
 ---------------------------------------------------------------
 Warning -- This program may not be used in any manner that
 competes with the business of Gaussian, Inc. or will provide
 assistance to any competitor of Gaussian, Inc.  The licensee
 of this program is prohibited from giving any competitor of
 Gaussian, Inc. access to this program.  By using this program,
 the user acknowledges that Gaussian, Inc. is engaged in the
 business of creating and licensing software in the field of
 computational chemistry and represents and warrants to the
 licensee that it is not a competitor of Gaussian, Inc. and that
 it will not use this program in any manner prohibited above.
 ---------------------------------------------------------------
  

 Cite this work as:
 Gaussian 16, Revision C.01,
 M. J. Frisch, G. W. Trucks, H. B. Schlegel, G. E. Scuseria, 
 M. A. Robb, J. R. Cheeseman, G. Scalmani, V. Barone, 
 G. A. Petersson, H. Nakatsuji, X. Li, M. Caricato, A. V. Marenich, 
 J. Bloino, B. G. Janesko, R. Gomperts, B. Mennucci, H. P. Hratchian, 
 J. V. Ortiz, A. F. Izmaylov, J. L. Sonnenberg, D. Williams-Young, 
 F. Ding, F. Lipparini, F. Egidi, J. Goings, B. Peng, A. Petrone, 
 T. Henderson, D. Ranasinghe, V. G. Zakrzewski, J. Gao, N. Rega, 
 G. Zheng, W. Liang, M. Hada, M. Ehara, K. Toyota, R. Fukuda, 
 J. Hasegawa, M. Ishida, T. Nakajima, Y. Honda, O. Kitao, H. Nakai, 
 T. Vreven, K. Throssell, J. A. Montgomery, Jr., J. E. Peralta, 
 F. Ogliaro, M. J. Bearpark, J. J. Heyd, E. N. Brothers, K. N. Kudin, 
 V. N. Staroverov, T. A. Keith, R. Kobayashi, J. Normand, 
 K. Raghavachari, A. P. Rendell, J. C. Burant, S. S. Iyengar, 
 J. Tomasi, M. Cossi, J. M. Millam, M. Klene, C. Adamo, R. Cammi, 
 J. W. Ochterski, R. L. Martin, K. Morokuma, O. Farkas, 
 J. B. Foresman, and D. J. Fox, Gaussian, Inc., Wallingford CT, 2019.
 
 ******************************************
 Gaussian 16:  ES64L-G16RevC.01  3-Jul-2019
                27-Jul-2022 
 ******************************************
 %NProcShared=32
 Will use up to   32 processors via shared memory.
 %mem = 128GB
 ---------------------------------------------------------------
 #n M062X/6-311++G(d,p) TD(NStates=1) EmpiricalDispersion=GD3 SP
 ---------------------------------------------------------------
 1/38=1,172=1/1;
 2/12=2,17=6,18=5,40=1/2;
 3/5=4,6=6,7=1111,11=9,25=1,30=1,74=-55,124=31/1,2,3,8;
 4//1;
 5/5=2,38=5/2;
 8/6=1,10=2,108=1/1;
 9/41=1,42=1,70=2/14;
 6/7=2,8=2,9=2,10=2/1;
 99/5=1,9=1/99;
 -----
 SP_-1
 -----
 Symbolic Z-matrix:
 Charge =  1 Multiplicity = 1
 C                     2.4927    1.3611   -0.017 
 C                     3.7015    0.6807   -0.003 
 C                     3.6839   -0.7021    0. 
 C                     2.4632   -1.4049    0.02 
 C                    -2.4632   -1.3929    0.02 
 C                    -3.6839   -0.7081    0. 
 C                    -3.7015    0.6807   -0.003 
 C                    -2.4927    1.3771   -0.017 
 C                     0.        1.4621   -0.033 
 C                     0.       -1.4205    0.027 
 C                     1.2621    0.6817   -0.008 
 C                     1.2375   -0.7251    0.013 
 C                    -1.2621    0.6897   -0.008 
 C                    -1.2375   -0.7191    0.013 
 H                     2.4881    2.4383   -0.018 
 H                     4.6368    1.2114    0.012 
 H                     4.6093   -1.2697   -0.014 
 H                     2.4675   -2.4994    0.021 
 H                     0.       -2.5016    0.028 
 H                    -2.4675   -2.4634    0.021 
 H                    -4.6093   -1.2577   -0.014 
 H                    -4.6368    1.2294    0.012 
 H                    -2.4881    2.4663   -0.018 
 H                     0.002     2.1545   -0.8896 
 H                    -0.002     2.1545    0.8296 
 
                          Input orientation:                          
 ---------------------------------------------------------------------
 Center     Atomic      Atomic             Coordinates (Angstroms)
 Number     Number       Type             X           Y           Z
 ---------------------------------------------------------------------
      1          6           0        2.492700    1.361100   -0.017000
      2          6           0        3.701500    0.680700   -0.003000
      3          6           0        3.683900   -0.702100    0.000000
      4          6           0        2.463200   -1.404900    0.020000
      5          6           0       -2.463200   -1.392900    0.020000
      6          6           0       -3.683900   -0.708100    0.000000
      7          6           0       -3.701500    0.680700   -0.003000
      8          6           0       -2.492700    1.377100   -0.017000
      9          6           0        0.000000    1.462100   -0.033000
     10          6           0        0.000000   -1.420500    0.027000
     11          6           0        1.262100    0.681700   -0.008000
     12          6           0        1.237500   -0.725100    0.013000
     13          6           0       -1.262100    0.689700   -0.008000
     14          6           0       -1.237500   -0.719100    0.013000
     15          1           0        2.488100    2.438300   -0.018000
     16          1           0        4.636800    1.211400    0.012000
     17          1           0        4.609300   -1.269700   -0.014000
     18          1           0        2.467500   -2.499400    0.021000
     19          1           0        0.000000   -2.501600    0.028000
     20          1           0       -2.467500   -2.463400    0.021000
     21          1           0       -4.609300   -1.257700   -0.014000
     22          1           0       -4.636800    1.229400    0.012000
     23          1           0       -2.488100    2.466300   -0.018000
     24          1           0        0.002000    2.154500   -0.889600
     25          1           0       -0.002000    2.154500    0.829600
 ---------------------------------------------------------------------
                    Distance matrix (angstroms):
                    1          2          3          4          5
     1  C    0.000000
     2  C    1.387205   0.000000
     3  C    2.382444   1.382915   0.000000
     4  C    2.766405   2.425622   1.408700   0.000000
     5  C    5.669817   6.504143   6.185826   4.926415   0.000000
     6  C    6.514005   7.514846   7.367802   6.186499   1.399807
     7  C    6.231473   7.403000   7.513739   6.507978   2.415312
     8  C    4.985426   6.233240   6.517189   5.683471   2.770404
     9  C    2.494797   3.783198   4.272701   3.780192   3.771099
    10  C    3.735343   4.256412   3.753391   2.463259   2.463365
    11  C    1.405718   2.439405   2.789280   2.407763   4.264107
    12  C    2.434883   2.836869   2.446543   1.401612   3.760477
    13  C    3.814365   4.963611   5.138102   4.273873   2.404298
    14  C    4.271127   5.133558   4.921447   3.763715   1.398712
    15  H    1.077210   2.135819   3.360413   3.843469   6.260584
    16  H    2.149515   1.075478   2.137673   3.401415   7.562569
    17  H    3.376553   2.151344   1.085694   2.150623   7.073655
    18  H    3.860769   3.411212   2.170336   1.094509   5.053330
    19  H    4.597394   4.881506   4.100013   2.696325   2.701228
    20  H    6.263532   6.924052   6.398620   5.043037   1.070509
    21  H    7.569447   8.533869   8.311802   7.074113   2.150623
    22  H    7.130775   8.356348   8.541949   7.572952   3.406033
    23  H    5.101944   6.442029   6.937771   6.285142   3.859467
    24  H    2.755812   4.079761   4.744253   4.422014   4.414593
    25  H    2.751317   4.072005   4.736482   4.404769   4.392836
                    6          7          8          9         10
     6  C    0.000000
     7  C    1.388915   0.000000
     8  C    2.401521   1.395122   0.000000
     9  C    4.275743   3.783198   2.494200   0.000000
    10  C    3.752248   4.256412   3.747273   2.883224   0.000000
    11  C    5.137560   4.963603   3.818663   1.484098   2.452217
    12  C    4.921447   5.135197   4.281885   2.513437   1.419572
    13  C    2.796252   2.439422   1.409601   1.479906   2.459078
    14  C    2.446459   2.833900   2.443457   2.508218   1.422520
    15  H    6.927752   6.434324   5.092594   2.672795   4.591623
    16  H    8.539243   8.355185   7.131484   4.643790   5.331701
    17  H    8.312205   8.536602   7.579180   5.358054   4.611948
    18  H    6.406943   6.940474   6.295417   4.667436   2.693068
    19  H    4.097383   4.881506   4.610845   3.964169   1.081100
    20  H    2.135684   3.377676   3.840771   4.636920   2.678849
    21  H    1.076393   2.140471   3.379671   5.351945   4.612356
    22  H    2.159182   1.084474   2.149377   4.642853   5.340609
    23  H    3.392208   2.158919   1.089210   2.683148   4.615179
    24  H    4.750971   4.083388   2.754870   1.101447   3.690635
    25  H    4.736993   4.068367   2.743113   1.106120   3.663986
                   11         12         13         14         15
    11  C    0.000000
    12  C    1.407172   0.000000
    13  C    2.524213   2.872299   0.000000
    14  C    2.865429   2.475007   1.409171   0.000000
    15  H    2.142153   3.401773   4.137838   4.883670   0.000000
    16  H    3.416077   3.912196   5.921958   6.183384   2.474489
    17  H    3.874499   3.415604   6.189719   5.872730   4.271858
    18  H    3.401945   2.158959   4.907251   4.110542   4.937897
    19  H    3.424557   2.165083   3.431995   2.170009   5.531308
    20  H    4.878771   4.092527   3.375777   2.134373   6.970377
    21  H    6.183417   5.871070   3.872486   3.414653   8.002095
    22  H    5.924306   6.190918   3.417642   3.918149   7.226793
    23  H    4.153179   4.905720   2.158584   3.422241   4.976279
    24  H    2.129369   3.260865   2.126219   3.257088   2.649702
    25  H    2.113921   3.239644   2.105959   3.232781   2.645669
                   16         17         18         19         20
    16  H    0.000000
    17  H    2.481389   0.000000
    18  H    4.298369   2.469958   0.000000
    19  H    5.940247   4.771267   2.467511   0.000000
    20  H    7.998457   7.176855   4.935131   2.467806   0.000000
    21  H    9.570136   9.218608   7.184994   4.774379   2.458098
    22  H    9.273617   9.577920   8.023410   5.951515   4.282840
    23  H    7.234630   8.020648   7.015531   5.556329   4.929897
    24  H    4.814945   5.806809   5.344779   4.745657   5.315320
    25  H    4.803787   5.805247   5.330202   4.724599   5.296935
                   21         22         23         24         25
    21  H    0.000000
    22  H    2.487388   0.000000
    23  H    4.285753   2.479462   0.000000
    24  H    5.802919   4.815305   2.656596   0.000000
    25  H    5.794996   4.796421   2.645059   1.719205   0.000000
 Stoichiometry    C14H11(1+)
 Framework group  C1[X(C14H11)]
 Deg. of freedom    69
 Full point group                 C1      NOp   1
 Largest Abelian subgroup         C1      NOp   1
 Largest concise Abelian subgroup C1      NOp   1
                         Standard orientation:                         
 ---------------------------------------------------------------------
 Center     Atomic      Atomic             Coordinates (Angstroms)
 Number     Number       Type             X           Y           Z
 ---------------------------------------------------------------------
      1          6           0        2.490771   -1.356071    0.000681
      2          6           0        3.700539   -0.677275   -0.005186
      3          6           0        3.684909    0.705485    0.008386
      4          6           0        2.465211    1.410213   -0.003168
      5          6           0       -2.461201    1.405232   -0.003219
      6          6           0       -3.682875    0.721981    0.008596
      7          6           0       -3.702454   -0.666729   -0.005047
      8          6           0       -2.494647   -1.364968    0.000583
      9          6           0       -0.002071   -1.453705    0.015517
     10          6           0        0.002036    1.429404   -0.009934
     11          6           0        1.261140   -0.674860   -0.000153
     12          6           0        1.238544    0.732124   -0.004292
     13          6           0       -1.263069   -0.679263   -0.000201
     14          6           0       -1.236462    0.729651   -0.004317
     15          1           0        2.484636   -2.433198   -0.011228
     16          1           0        4.635082   -1.209089   -0.026563
     17          1           0        4.611117    1.271558    0.029169
     18          1           0        2.471071    2.504639    0.008949
     19          1           0        0.003576    2.510438    0.002022
     20          1           0       -2.463975    2.475672    0.008610
     21          1           0       -4.607491    1.272691    0.029199
     22          1           0       -4.638535   -1.213877   -0.026604
     23          1           0       -2.491599   -2.454107   -0.011470
     24          1           0       -0.001056   -2.156323    0.863757
     25          1           0       -0.005059   -2.135714   -0.855319
 ---------------------------------------------------------------------
 Rotational constants (GHZ):           2.1357444           0.4446136           0.3688091
 Standard basis: 6-311++G(d,p) (5D, 7F)
 There are   399 symmetry adapted cartesian basis functions of A   symmetry.
 There are   385 symmetry adapted basis functions of A   symmetry.
   385 basis functions,   603 primitive gaussians,   399 cartesian basis functions
    47 alpha electrons       47 beta electrons
       nuclear repulsion energy       781.1610046924 Hartrees.
 NAtoms=   25 NActive=   25 NUniq=   25 SFac= 1.00D+00 NAtFMM=   60 NAOKFM=F Big=F
 Integral buffers will be    131072 words long.
 Regular integral format.
 Two-electron integral symmetry is turned on.
 Nuclear repulsion after empirical dispersion term =      781.1600251626 Hartrees.
 One-electron integrals computed using PRISM.
 NBasis=   385 RedAO= T EigKep=  1.15D-06  NBF=   385
 NBsUse=   379 1.00D-06 EigRej=  8.41D-07 NBFU=   379
 ExpMin= 3.60D-02 ExpMax= 4.56D+03 ExpMxC= 6.82D+02 IAcc=3 IRadAn=         5 AccDes= 0.00D+00
 Harris functional with IExCor= 1009 and IRadAn=       5 diagonalized for initial guess.
 HarFok:  IExCor= 1009 AccDes= 0.00D+00 IRadAn=         5 IDoV= 1 UseB2=F ITyADJ=14
 ICtDFT=  3500011 ScaDFX=  1.000000  1.000000  1.000000  1.000000
 FoFCou: FMM=F IPFlag=           0 FMFlag=      100000 FMFlg1=           0
         NFxFlg=           0 DoJE=T BraDBF=F KetDBF=T FulRan=T
         wScrn=  0.000000 ICntrl=       500 IOpCl=  0 I1Cent=   200000004 NGrid=           0
         NMat0=    1 NMatS0=      1 NMatT0=    0 NMatD0=    1 NMtDS0=    0 NMtDT0=    0
 Petite list used in FoFCou.
 Requested convergence on RMS density matrix=1.00D-08 within 128 cycles.
 Requested convergence on MAX density matrix=1.00D-06.
 Requested convergence on             energy=1.00D-06.
 No special actions if energy rises.
 SCF Done:  E(RM062X) =  -539.759507583     A.U. after   15 cycles
            NFock= 15  Conv=0.54D-08     -V/T= 2.0042
 DoSCS=F DFT=T ScalE2(SS,OS)=  1.000000  1.000000
 ExpMin= 3.60D-02 ExpMax= 4.56D+03 ExpMxC= 6.82D+02 IAcc=3 IRadAn=         5 AccDes= 0.00D+00
 HarFok:  IExCor=  205 AccDes= 0.00D+00 IRadAn=         5 IDoV=-2 UseB2=F ITyADJ=14
 ICtDFT= 12500011 ScaDFX=  1.000000  1.000000  1.000000  1.000000
 Range of M.O.s used for correlation:    15   379
 NBasis=   385 NAE=    47 NBE=    47 NFC=    14 NFV=     0
 NROrb=    365 NOA=    33 NOB=    33 NVA=   332 NVB=   332

 **** Warning!!: The largest alpha MO coefficient is  0.15092426D+03

 Orbital symmetries:
       Occupied  (A) (A) (A) (A) (A) (A) (A) (A) (A) (A) (A) (A)
                 (A) (A) (A) (A) (A) (A) (A) (A) (A) (A) (A) (A)
                 (A) (A) (A) (A) (A) (A) (A) (A) (A) (A) (A) (A)
                 (A) (A) (A) (A) (A) (A) (A) (A) (A) (A) (A)
       Virtual   (A) (A) (A) (A) (A) (A) (A) (A) (A) (A) (A) (A)
                 (A) (A) (A) (A) (A) (A) (A) (A) (A) (A) (A) (A)
                 (A) (A) (A) (A) (A) (A) (A) (A) (A) (A) (A) (A)
                 (A) (A) (A) (A) (A) (A) (A) (A) (A) (A) (A) (A)
                 (A) (A) (A) (A) (A) (A) (A) (A) (A) (A) (A) (A)
                 (A) (A) (A) (A) (A) (A) (A) (A) (A) (A) (A) (A)
                 (A) (A) (A) (A) (A) (A) (A) (A) (A) (A) (A) (A)
                 (A) (A) (A) (A) (A) (A) (A) (A) (A) (A) (A) (A)
                 (A) (A) (A) (A) (A) (A) (A) (A) (A) (A) (A) (A)
                 (A) (A) (A) (A) (A) (A) (A) (A) (A) (A) (A) (A)
                 (A) (A) (A) (A) (A) (A) (A) (A) (A) (A) (A) (A)
                 (A) (A) (A) (A) (A) (A) (A) (A) (A) (A) (A) (A)
                 (A) (A) (A) (A) (A) (A) (A) (A) (A) (A) (A) (A)
                 (A) (A) (A) (A) (A) (A) (A) (A) (A) (A) (A) (A)
                 (A) (A) (A) (A) (A) (A) (A) (A) (A) (A) (A) (A)
                 (A) (A) (A) (A) (A) (A) (A) (A) (A) (A) (A) (A)
                 (A) (A) (A) (A) (A) (A) (A) (A) (A) (A) (A) (A)
                 (A) (A) (A) (A) (A) (A) (A) (A) (A) (A) (A) (A)
                 (A) (A) (A) (A) (A) (A) (A) (A) (A) (A) (A) (A)
                 (A) (A) (A) (A) (A) (A) (A) (A) (A) (A) (A) (A)
                 (A) (A) (A) (A) (A) (A) (A) (A) (A) (A) (A) (A)
                 (A) (A) (A) (A) (A) (A) (A) (A) (A) (A) (A) (A)
                 (A) (A) (A) (A) (A) (A) (A) (A) (A) (A) (A) (A)
                 (A) (A) (A) (A) (A) (A) (A) (A) (A) (A) (A) (A)
                 (A) (A) (A) (A) (A) (A) (A) (A) (A) (A) (A) (A)
                 (A) (A) (A) (A) (A) (A) (A) (A) (A) (A) (A) (A)
                 (A) (A) (A) (A) (A) (A) (A) (A) (A) (A) (A) (A)
                 (A) (A) (A) (A) (A) (A) (A) (A)
     4 initial guesses have been made.
 Convergence on wavefunction:    0.001000000000000
 Iteration     1 Dimension     4 NMult     0 NNew      4
 CISAX will form     4 AO SS matrices at one time.
 Iteration     2 Dimension     6 NMult     4 NNew      2
 Iteration     3 Dimension     8 NMult     6 NNew      2
 Iteration     4 Dimension    10 NMult     8 NNew      2
 Iteration     5 Dimension    12 NMult    10 NNew      2
 Iteration     6 Dimension    14 NMult    12 NNew      2
 ***********************************************************************
 Excited states from <AA,BB:AA,BB> singles matrix:
 ***********************************************************************
 
 Ground to excited state transition densities written to RWF  633
 Ground to excited state transition electric dipole moments (Au):
       state          X           Y           Z        Dip. S.      Osc.
         1        -0.0084     -0.6442      0.0001      0.4150      0.0287
 Ground to excited state transition velocity dipole moments (Au):
       state          X           Y           Z        Dip. S.      Osc.
         1         0.0011      0.0745     -0.0000      0.0055      0.0357
 Ground to excited state transition magnetic dipole moments (Au):
       state          X           Y           Z
         1        -0.0047     -0.0003      0.0060
 Ground to excited state transition velocity quadrupole moments (Au):
       state          XX          YY          ZZ          XY          XZ          YZ
         1         0.2969      0.0352     -0.0098      0.0087     -0.0000     -0.0004
 <0|del|b> * <b|rxdel|0> + <0|del|b> * <b|delr+rdel|0>
 Rotatory Strengths (R) in cgs (10**-40 erg-esu-cm/Gauss)
       state          XX          YY          ZZ    R(velocity)    E-M Angle
         1        -0.0725     -0.0191     -0.1085     -0.0667       90.00
 1/2[<0|r|b>*<b|rxdel|0> + (<0|rxdel|b>*<b|r|0>)*]
 Rotatory Strengths (R) in cgs (10**-40 erg-esu-cm/Gauss)
       state          XX          YY          ZZ     R(length)
         1        -0.0281     -0.1463     -0.0004     -0.0583
  1/2[<0|del|b>*<b|r|0> + (<0|r|b>*<b|del|0>)*] (Au)
       state          X           Y           Z        Dip. S.   Osc.(frdel)
         1        -0.0000     -0.0480     -0.0000      0.0480      0.0320

 Excitation energies and oscillator strengths:
 
 Excited State   1:      Singlet-A      2.8215 eV  439.43 nm  f=0.0287  <S**2>=0.000
      47 -> 48         0.70426
 This state for optimization and/or second-order correction.
 Total Energy, E(TD-HF/TD-DFT) =  -539.655819012    
 Copying the excited state density for this state as the 1-particle RhoCI density.
 SavETr:  write IOETrn=   770 NScale= 10 NData=  16 NLR=1 NState=    1 LETran=      28.

 **********************************************************************

            Population analysis using the SCF Density.

 **********************************************************************

 Orbital symmetries:
       Occupied  (A) (A) (A) (A) (A) (A) (A) (A) (A) (A) (A) (A)
                 (A) (A) (A) (A) (A) (A) (A) (A) (A) (A) (A) (A)
                 (A) (A) (A) (A) (A) (A) (A) (A) (A) (A) (A) (A)
                 (A) (A) (A) (A) (A) (A) (A) (A) (A) (A) (A)
       Virtual   (A) (A) (A) (A) (A) (A) (A) (A) (A) (A) (A) (A)
                 (A) (A) (A) (A) (A) (A) (A) (A) (A) (A) (A) (A)
                 (A) (A) (A) (A) (A) (A) (A) (A) (A) (A) (A) (A)
                 (A) (A) (A) (A) (A) (A) (A) (A) (A) (A) (A) (A)
                 (A) (A) (A) (A) (A) (A) (A) (A) (A) (A) (A) (A)
                 (A) (A) (A) (A) (A) (A) (A) (A) (A) (A) (A) (A)
                 (A) (A) (A) (A) (A) (A) (A) (A) (A) (A) (A) (A)
                 (A) (A) (A) (A) (A) (A) (A) (A) (A) (A) (A) (A)
                 (A) (A) (A) (A) (A) (A) (A) (A) (A) (A) (A) (A)
                 (A) (A) (A) (A) (A) (A) (A) (A) (A) (A) (A) (A)
                 (A) (A) (A) (A) (A) (A) (A) (A) (A) (A) (A) (A)
                 (A) (A) (A) (A) (A) (A) (A) (A) (A) (A) (A) (A)
                 (A) (A) (A) (A) (A) (A) (A) (A) (A) (A) (A) (A)
                 (A) (A) (A) (A) (A) (A) (A) (A) (A) (A) (A) (A)
                 (A) (A) (A) (A) (A) (A) (A) (A) (A) (A) (A) (A)
                 (A) (A) (A) (A) (A) (A) (A) (A) (A) (A) (A) (A)
                 (A) (A) (A) (A) (A) (A) (A) (A) (A) (A) (A) (A)
                 (A) (A) (A) (A) (A) (A) (A) (A) (A) (A) (A) (A)
                 (A) (A) (A) (A) (A) (A) (A) (A) (A) (A) (A) (A)
                 (A) (A) (A) (A) (A) (A) (A) (A) (A) (A) (A) (A)
                 (A) (A) (A) (A) (A) (A) (A) (A) (A) (A) (A) (A)
                 (A) (A) (A) (A) (A) (A) (A) (A) (A) (A) (A) (A)
                 (A) (A) (A) (A) (A) (A) (A) (A) (A) (A) (A) (A)
                 (A) (A) (A) (A) (A) (A) (A) (A) (A) (A) (A) (A)
                 (A) (A) (A) (A) (A) (A) (A) (A) (A) (A) (A) (A)
                 (A) (A) (A) (A) (A) (A) (A) (A) (A) (A) (A) (A)
                 (A) (A) (A) (A) (A) (A) (A) (A) (A) (A) (A) (A)
                 (A) (A) (A) (A) (A) (A) (A) (A)
 The electronic state is 1-A.
 Alpha  occ. eigenvalues --  -10.77666 -10.73278 -10.73211 -10.72451 -10.72426
 Alpha  occ. eigenvalues --  -10.71544 -10.71196 -10.71119 -10.70984 -10.70893
 Alpha  occ. eigenvalues --  -10.70093 -10.69852 -10.69668 -10.69598  -1.16437
 Alpha  occ. eigenvalues --   -1.12463  -1.06944  -1.05727  -1.01310  -1.00181
 Alpha  occ. eigenvalues --   -0.95778  -0.91055  -0.86419  -0.85893  -0.83818
 Alpha  occ. eigenvalues --   -0.78396  -0.76023  -0.74417  -0.69571  -0.69250
 Alpha  occ. eigenvalues --   -0.68494  -0.68189  -0.68096  -0.64738  -0.64281
 Alpha  occ. eigenvalues --   -0.63064  -0.61867  -0.60010  -0.59679  -0.59070
 Alpha  occ. eigenvalues --   -0.56896  -0.55219  -0.54825  -0.52431  -0.46623
 Alpha  occ. eigenvalues --   -0.46051  -0.44497
 Alpha virt. eigenvalues --   -0.26089  -0.14671  -0.14101  -0.12777  -0.11180
 Alpha virt. eigenvalues --   -0.10087  -0.09230  -0.08002  -0.07956  -0.07476
 Alpha virt. eigenvalues --   -0.07203  -0.07147  -0.05644  -0.05583  -0.05334
 Alpha virt. eigenvalues --   -0.03828  -0.03663  -0.03281  -0.03123  -0.02163
 Alpha virt. eigenvalues --   -0.01376  -0.00937   0.00196   0.00589   0.00667
 Alpha virt. eigenvalues --    0.01054   0.01514   0.01940   0.02210   0.02287
 Alpha virt. eigenvalues --    0.02454   0.02651   0.02767   0.03329   0.03368
 Alpha virt. eigenvalues --    0.04238   0.04504   0.04698   0.05028   0.05367
 Alpha virt. eigenvalues --    0.06014   0.06292   0.06595   0.07037   0.07242
 Alpha virt. eigenvalues --    0.07896   0.08157   0.08357   0.08536   0.08925
 Alpha virt. eigenvalues --    0.09539   0.09569   0.10037   0.10845   0.11033
 Alpha virt. eigenvalues --    0.11123   0.12174   0.12249   0.12904   0.12977
 Alpha virt. eigenvalues --    0.13404   0.13518   0.14016   0.14380   0.16146
 Alpha virt. eigenvalues --    0.16241   0.16447   0.17355   0.17613   0.17717
 Alpha virt. eigenvalues --    0.18109   0.19067   0.19230   0.19591   0.19743
 Alpha virt. eigenvalues --    0.21562   0.21587   0.22690   0.23082   0.23544
 Alpha virt. eigenvalues --    0.23788   0.24571   0.25243   0.26912   0.27596
 Alpha virt. eigenvalues --    0.28822   0.29237   0.29837   0.31350   0.35802
 Alpha virt. eigenvalues --    0.36407   0.38161   0.39261   0.41113   0.41407
 Alpha virt. eigenvalues --    0.41889   0.42290   0.42990   0.43658   0.44274
 Alpha virt. eigenvalues --    0.44927   0.45033   0.45993   0.46146   0.47956
 Alpha virt. eigenvalues --    0.48529   0.48871   0.49008   0.50422   0.51075
 Alpha virt. eigenvalues --    0.51543   0.51645   0.52131   0.52872   0.53967
 Alpha virt. eigenvalues --    0.54089   0.54656   0.55727   0.55756   0.57468
 Alpha virt. eigenvalues --    0.58239   0.58809   0.61430   0.62176   0.62342
 Alpha virt. eigenvalues --    0.63195   0.63505   0.64829   0.65153   0.67100
 Alpha virt. eigenvalues --    0.70408   0.70564   0.70993   0.72389   0.72817
 Alpha virt. eigenvalues --    0.75740   0.75894   0.76209   0.76837   0.77032
 Alpha virt. eigenvalues --    0.77714   0.77753   0.78216   0.80013   0.80379
 Alpha virt. eigenvalues --    0.81224   0.81712   0.82124   0.82999   0.85058
 Alpha virt. eigenvalues --    0.87116   0.88086   0.88449   0.89187   0.90468
 Alpha virt. eigenvalues --    0.90751   0.91565   0.93249   0.94665   0.96391
 Alpha virt. eigenvalues --    0.96676   1.00382   1.01090   1.01847   1.02595
 Alpha virt. eigenvalues --    1.02881   1.04291   1.04697   1.05588   1.08848
 Alpha virt. eigenvalues --    1.19489   1.23180   1.23914   1.25207   1.28037
 Alpha virt. eigenvalues --    1.29797   1.31849   1.34298   1.35748   1.36008
 Alpha virt. eigenvalues --    1.39343   1.40134   1.40932   1.43027   1.43317
 Alpha virt. eigenvalues --    1.43651   1.45124   1.45333   1.46403   1.46685
 Alpha virt. eigenvalues --    1.47662   1.48050   1.51742   1.53614   1.55768
 Alpha virt. eigenvalues --    1.55828   1.56304   1.56535   1.57792   1.61415
 Alpha virt. eigenvalues --    1.63220   1.63552   1.63801   1.66111   1.68279
 Alpha virt. eigenvalues --    1.68386   1.68669   1.69722   1.74371   1.75964
 Alpha virt. eigenvalues --    1.77151   1.78010   1.79746   1.80351   1.80731
 Alpha virt. eigenvalues --    1.83108   1.83152   1.83492   1.83856   1.84295
 Alpha virt. eigenvalues --    1.84316   1.85871   1.86082   1.88209   1.91357
 Alpha virt. eigenvalues --    1.92020   1.94108   1.95182   1.97694   1.98149
 Alpha virt. eigenvalues --    1.99753   2.02368   2.04394   2.07266   2.11787
 Alpha virt. eigenvalues --    2.12036   2.14029   2.15233   2.19123   2.21164
 Alpha virt. eigenvalues --    2.22784   2.28549   2.30120   2.34499   2.34853
 Alpha virt. eigenvalues --    2.36299   2.38615   2.39645   2.42246   2.44633
 Alpha virt. eigenvalues --    2.46148   2.46505   2.49213   2.52738   2.53750
 Alpha virt. eigenvalues --    2.54284   2.56754   2.57832   2.58355   2.59650
 Alpha virt. eigenvalues --    2.59843   2.61561   2.62086   2.63435   2.63807
 Alpha virt. eigenvalues --    2.64589   2.65102   2.65217   2.65385   2.67856
 Alpha virt. eigenvalues --    2.68468   2.70999   2.71462   2.73385   2.74822
 Alpha virt. eigenvalues --    2.76334   2.78818   2.79729   2.82858   2.83060
 Alpha virt. eigenvalues --    2.84892   2.86327   2.92109   2.96962   2.99512
 Alpha virt. eigenvalues --    3.00062   3.05065   3.11060   3.11392   3.13017
 Alpha virt. eigenvalues --    3.20920   3.23610   3.26643   3.28219   3.30727
 Alpha virt. eigenvalues --    3.32714   3.33480   3.43288   3.45943   3.46570
 Alpha virt. eigenvalues --    3.48494   3.50075   3.56463   3.65873   3.66814
 Alpha virt. eigenvalues --    3.67425   3.93667   3.94193   3.95561   3.96531
 Alpha virt. eigenvalues --    4.04009   4.06877   4.07571   4.12554   4.35506
 Alpha virt. eigenvalues --    4.61300   4.69723   4.71533  23.45341  23.60516
 Alpha virt. eigenvalues --   23.82214  23.85545  23.87850  23.89185  23.90442
 Alpha virt. eigenvalues --   23.92215  23.97657  23.99441  23.99944  24.00165
 Alpha virt. eigenvalues --   24.10121  24.11275
          Condensed to atoms (all electrons):
               1          2          3          4          5          6
     1  C    8.548943   0.327864  -0.553240   1.968493  -0.027299  -0.094722
     2  C    0.327864   7.161334   0.350884  -1.068197  -0.020094  -0.015320
     3  C   -0.553240   0.350884   6.570006   0.728961  -0.121863   0.017200
     4  C    1.968493  -1.068197   0.728961  11.058012  -0.348038  -0.123363
     5  C   -0.027299  -0.020094  -0.121863  -0.348038  10.886284   0.769058
     6  C   -0.094722  -0.015320   0.017200  -0.123363   0.769058   6.615756
     7  C   -0.019682   0.002308  -0.014050  -0.021221  -1.042946   0.340293
     8  C    0.402401  -0.014864  -0.096328  -0.037257   1.974647  -0.532464
     9  C   -1.171837  -0.800831   0.282642  -0.211461  -0.256478   0.300072
    10  C   -1.265493   0.224878  -0.312838  -2.521755  -2.587339  -0.378285
    11  C    0.330989  -0.945385   1.021663  -0.236825  -1.496926  -0.177818
    12  C   -2.078429   1.333494  -1.366579  -1.673437  -0.283943  -0.179555
    13  C    0.217229  -0.219719  -0.166123  -1.524173  -0.330335   0.991442
    14  C   -1.086075  -0.191736  -0.215267  -0.355369  -1.472789  -1.410314
    15  H    0.370097  -0.108124  -0.001513   0.027414   0.005608   0.001258
    16  H   -0.020630   0.383062  -0.017645   0.012935  -0.001497  -0.000336
    17  H   -0.023043  -0.018060   0.374274  -0.065637   0.000344   0.000420
    18  H    0.048205   0.004147  -0.081820   0.450577   0.006663  -0.004972
    19  H   -0.046033  -0.008743   0.051436  -0.073792  -0.065309   0.051183
    20  H    0.007318   0.002190  -0.005187   0.006268   0.463884  -0.089788
    21  H   -0.001306  -0.000399   0.000393   0.000307  -0.069513   0.377488
    22  H    0.000740   0.000383  -0.000327  -0.001619   0.014096  -0.016828
    23  H    0.005653  -0.002640   0.000951   0.005860   0.025306   0.000237
    24  H    0.031612   0.011902   0.001027  -0.010450  -0.010281   0.000417
    25  H    0.034417   0.016978  -0.003427  -0.013963  -0.013932  -0.003944
               7          8          9         10         11         12
     1  C   -0.019682   0.402401  -1.171837  -1.265493   0.330989  -2.078429
     2  C    0.002308  -0.014864  -0.800831   0.224878  -0.945385   1.333494
     3  C   -0.014050  -0.096328   0.282642  -0.312838   1.021663  -1.366579
     4  C   -0.021221  -0.037257  -0.211461  -2.521755  -0.236825  -1.673437
     5  C   -1.042946   1.974647  -0.256478  -2.587339  -1.496926  -0.283943
     6  C    0.340293  -0.532464   0.300072  -0.378285  -0.177818  -0.179555
     7  C    7.076881   0.320150  -0.755417   0.248010  -0.245484  -0.200521
     8  C    0.320150   8.605239  -1.165933  -1.287715   0.210984  -1.061491
     9  C   -0.755417  -1.165933   9.516532   0.285289   1.575219  -1.903801
    10  C    0.248010  -1.287715   0.285289   9.123069  -0.428722   2.402978
    11  C   -0.245484   0.210984   1.575219  -0.428722  14.402579  -3.744768
    12  C   -0.200521  -1.061491  -1.903801   2.402978  -3.744768  15.958194
    13  C   -0.876692   0.277952   1.586796  -0.436138   1.105640  -4.716590
    14  C    1.308594  -2.085262  -1.849201   2.379370  -4.787179   3.049967
    15  H   -0.002710   0.005347   0.089246  -0.009238  -0.027043  -0.023145
    16  H    0.000357   0.000732   0.003310  -0.009184   0.025155  -0.032490
    17  H   -0.000397  -0.001331  -0.005643   0.019354  -0.025411   0.089065
    18  H    0.001843   0.007071  -0.023852   0.013661  -0.004977  -0.056366
    19  H   -0.007072  -0.046742   0.075082   0.422272   0.074545  -0.064727
    20  H    0.003469   0.051724  -0.026126   0.011733  -0.011695  -0.014174
    21  H   -0.017238  -0.026003  -0.005228   0.021179  -0.006151   0.005558
    22  H    0.377357  -0.018891   0.003406  -0.009797   0.002816  -0.009164
    23  H   -0.100588   0.362360   0.085827  -0.008884   0.000923   0.006759
    24  H    0.011226   0.030144   0.348491   0.005440   0.009305  -0.052541
    25  H    0.017132   0.034697   0.364111   0.005061   0.014846  -0.066525
              13         14         15         16         17         18
     1  C    0.217229  -1.086075   0.370097  -0.020630  -0.023043   0.048205
     2  C   -0.219719  -0.191736  -0.108124   0.383062  -0.018060   0.004147
     3  C   -0.166123  -0.215267  -0.001513  -0.017645   0.374274  -0.081820
     4  C   -1.524173  -0.355369   0.027414   0.012935  -0.065637   0.450577
     5  C   -0.330335  -1.472789   0.005608  -0.001497   0.000344   0.006663
     6  C    0.991442  -1.410314   0.001258  -0.000336   0.000420  -0.004972
     7  C   -0.876692   1.308594  -0.002710   0.000357  -0.000397   0.001843
     8  C    0.277952  -2.085262   0.005347   0.000732  -0.001331   0.007071
     9  C    1.586796  -1.849201   0.089246   0.003310  -0.005643  -0.023852
    10  C   -0.436138   2.379370  -0.009238  -0.009184   0.019354   0.013661
    11  C    1.105640  -4.787179  -0.027043   0.025155  -0.025411  -0.004977
    12  C   -4.716590   3.049967  -0.023145  -0.032490   0.089065  -0.056366
    13  C   14.388926  -3.712153  -0.000447   0.003265  -0.006239  -0.011901
    14  C   -3.712153  15.939851   0.006077  -0.008857   0.004800  -0.013601
    15  H   -0.000447   0.006077   0.441097  -0.009277   0.001518   0.000142
    16  H    0.003265  -0.008857  -0.009277   0.420267  -0.006833   0.001944
    17  H   -0.006239   0.004800   0.001518  -0.006833   0.422388  -0.009877
    18  H   -0.011901  -0.013601   0.000142   0.001944  -0.009877   0.450873
    19  H    0.078957  -0.065229   0.000364  -0.000572   0.001467  -0.006123
    20  H   -0.009046  -0.050802  -0.000128   0.000018  -0.000150   0.001257
    21  H   -0.027220   0.091688   0.000016  -0.000007   0.000010  -0.000139
    22  H    0.027074  -0.032794  -0.000130   0.000008  -0.000007   0.000012
    23  H   -0.030389  -0.020380   0.000553  -0.000122   0.000012  -0.000098
    24  H    0.010728  -0.053238  -0.000326   0.000325  -0.000023   0.000076
    25  H    0.018293  -0.066227  -0.001601   0.000922  -0.000243   0.000252
              19         20         21         22         23         24
     1  C   -0.046033   0.007318  -0.001306   0.000740   0.005653   0.031612
     2  C   -0.008743   0.002190  -0.000399   0.000383  -0.002640   0.011902
     3  C    0.051436  -0.005187   0.000393  -0.000327   0.000951   0.001027
     4  C   -0.073792   0.006268   0.000307  -0.001619   0.005860  -0.010450
     5  C   -0.065309   0.463884  -0.069513   0.014096   0.025306  -0.010281
     6  C    0.051183  -0.089788   0.377488  -0.016828   0.000237   0.000417
     7  C   -0.007072   0.003469  -0.017238   0.377357  -0.100588   0.011226
     8  C   -0.046742   0.051724  -0.026003  -0.018891   0.362360   0.030144
     9  C    0.075082  -0.026126  -0.005228   0.003406   0.085827   0.348491
    10  C    0.422272   0.011733   0.021179  -0.009797  -0.008884   0.005440
    11  C    0.074545  -0.011695  -0.006151   0.002816   0.000923   0.009305
    12  C   -0.064727  -0.014174   0.005558  -0.009164   0.006759  -0.052541
    13  C    0.078957  -0.009046  -0.027220   0.027074  -0.030389   0.010728
    14  C   -0.065229  -0.050802   0.091688  -0.032794  -0.020380  -0.053238
    15  H    0.000364  -0.000128   0.000016  -0.000130   0.000553  -0.000326
    16  H   -0.000572   0.000018  -0.000007   0.000008  -0.000122   0.000325
    17  H    0.001467  -0.000150   0.000010  -0.000007   0.000012  -0.000023
    18  H   -0.006123   0.001257  -0.000139   0.000012  -0.000098   0.000076
    19  H    0.443087  -0.006313   0.001400  -0.000527   0.000278   0.000679
    20  H   -0.006313   0.457368  -0.010831   0.001971   0.000146   0.000100
    21  H    0.001400  -0.010831   0.422928  -0.006708   0.001488  -0.000030
    22  H   -0.000527   0.001971  -0.006708   0.419106  -0.008891   0.000341
    23  H    0.000278   0.000146   0.001488  -0.008891   0.438155  -0.000278
    24  H    0.000679   0.000100  -0.000030   0.000341  -0.000278   0.493751
    25  H    0.000501   0.000295  -0.000261   0.000916  -0.001380  -0.079163
              25
     1  C    0.034417
     2  C    0.016978
     3  C   -0.003427
     4  C   -0.013963
     5  C   -0.013932
     6  C   -0.003944
     7  C    0.017132
     8  C    0.034697
     9  C    0.364111
    10  C    0.005061
    11  C    0.014846
    12  C   -0.066525
    13  C    0.018293
    14  C   -0.066227
    15  H   -0.001601
    16  H    0.000922
    17  H   -0.000243
    18  H    0.000252
    19  H    0.000501
    20  H    0.000295
    21  H   -0.000261
    22  H    0.000916
    23  H   -0.001380
    24  H   -0.079163
    25  H    0.492613
 Mulliken charges:
               1
     1  C    0.093829
     2  C   -0.405314
     3  C   -0.443229
     4  C    0.027730
     5  C    0.002692
     6  C   -0.437115
     7  C   -0.403601
     8  C    0.090832
     9  C   -0.340215
    10  C    0.093095
    11  C   -0.636281
    12  C    0.682231
    13  C   -0.639135
    14  C    0.696128
    15  H    0.234946
    16  H    0.255152
    17  H    0.249242
    18  H    0.227005
    19  H    0.189933
    20  H    0.216500
    21  H    0.248580
    22  H    0.257456
    23  H    0.239142
    24  H    0.250767
    25  H    0.249630
 Sum of Mulliken charges =   1.00000
 Mulliken charges with hydrogens summed into heavy atoms:
               1
     1  C    0.328775
     2  C   -0.150161
     3  C   -0.193987
     4  C    0.254735
     5  C    0.219191
     6  C   -0.188535
     7  C   -0.146144
     8  C    0.329974
     9  C    0.160182
    10  C    0.283028
    11  C   -0.636281
    12  C    0.682231
    13  C   -0.639135
    14  C    0.696128
 Electronic spatial extent (au):  <R**2>=           2856.0687
 Charge=              1.0000 electrons
 Dipole moment (field-independent basis, Debye):
    X=             -0.0114    Y=              0.1877    Z=             -0.0035  Tot=              0.1881
 Quadrupole moment (field-independent basis, Debye-Ang):
   XX=            -31.1204   YY=            -56.2594   ZZ=            -84.1416
   XY=              0.0893   XZ=              0.0044   YZ=              0.1809
 Traceless Quadrupole moment (field-independent basis, Debye-Ang):
   XX=             26.0534   YY=              0.9144   ZZ=            -26.9678
   XY=              0.0893   XZ=              0.0044   YZ=              0.1809
 Octapole moment (field-independent basis, Debye-Ang**2):
  XXX=             -0.2961  YYY=              5.2127  ZZZ=              0.0272  XYY=             -0.0098
  XXY=             -5.1726  XXZ=              0.0316  XZZ=              0.0082  YZZ=             -3.0883
  YYZ=              0.1432  XYZ=             -0.0098
 Hexadecapole moment (field-independent basis, Debye-Ang**3):
 XXXX=          -2122.7425 YYYY=           -609.2892 ZZZZ=            -99.3694 XXXY=             -0.9630
 XXXZ=             -0.0181 YYYX=              1.6695 YYYZ=              0.8348 ZZZX=             -0.0018
 ZZZY=              0.0830 XXYY=           -507.8035 XXZZ=           -590.7102 YYZZ=           -145.7235
 XXYZ=              3.7219 YYXZ=              0.0425 ZZXY=             -0.4665
 N-N= 7.811600251626D+02 E-N=-2.798659026770D+03  KE= 5.375027951212D+02
 Unable to Open any file for archive entry.
 1\1\GINC-GADI-CPU-CLX-0572\SP\RM062X TD-FC\6-311++G(d,p)\C14H11(1+)\TS
 1578\27-Jul-2022\0\\#n M062X/6-311++G(d,p) TD(NStates=1) EmpiricalDisp
 ersion=GD3 SP\\SP_-1\\1,1\C,0,2.4927,1.3611,-0.017\C,0,3.7015,0.6807,-
 0.003\C,0,3.6839,-0.7021,0.\C,0,2.4632,-1.4049,0.02\C,0,-2.4632,-1.392
 9,0.02\C,0,-3.6839,-0.7081,0.\C,0,-3.7015,0.6807,-0.003\C,0,-2.4927,1.
 3771,-0.017\C,0,0.,1.4621,-0.033\C,0,0.,-1.4205,0.027\C,0,1.2621,0.681
 7,-0.008\C,0,1.2375,-0.7251,0.013\C,0,-1.2621,0.6897,-0.008\C,0,-1.237
 5,-0.7191,0.013\H,0,2.4881,2.4383,-0.018\H,0,4.6368,1.2114,0.012\H,0,4
 .6093,-1.2697,-0.014\H,0,2.4675,-2.4994,0.021\H,0,0.,-2.5016,0.028\H,0
 ,-2.4675,-2.4634,0.021\H,0,-4.6093,-1.2577,-0.014\H,0,-4.6368,1.2294,0
 .012\H,0,-2.4881,2.4663,-0.018\H,0,0.002,2.1545,-0.8896\H,0,-0.002,2.1
 545,0.8296\\Version=ES64L-G16RevC.01\State=1-A\HF=-539.7595076\RMSD=5.
 358e-09\PG=C01 [X(C14H11)]\\@
 The archive entry for this job was punched.


 FORGIVE MY NONSENSE AS I ALSO FORGIVE THOSE WHO THINK THEY TALK SENSE

                                                       -- ROBERT FROST
 Job cpu time:       0 days  1 hours 11 minutes 59.1 seconds.
 Elapsed time:       0 days  0 hours  2 minutes 15.3 seconds.
 File lengths (MBytes):  RWF=    460 Int=      0 D2E=      0 Chk=     15 Scr=      1
 Normal termination of Gaussian 16 at Wed Jul 27 10:43:26 2022.
