 Entering Gaussian System, Link 0=g16
 Initial command:
 /apps/gaussian/g16c01/g16/l1.exe "/jobfs/52803152.gadi-pbs/Gau-2775026.inp" -scrdir="/jobfs/52803152.gadi-pbs/"
 Entering Link 1 = /apps/gaussian/g16c01/g16/l1.exe PID=   2775027.
  
 Copyright (c) 1988-2019, Gaussian, Inc.  All Rights Reserved.
  
 This is part of the Gaussian(R) 16 program.  It is based on
 the Gaussian(R) 09 system (copyright 2009, Gaussian, Inc.),
 the Gaussian(R) 03 system (copyright 2003, Gaussian, Inc.),
 the Gaussian(R) 98 system (copyright 1998, Gaussian, Inc.),
 the Gaussian(R) 94 system (copyright 1995, Gaussian, Inc.),
 the Gaussian 92(TM) system (copyright 1992, Gaussian, Inc.),
 the Gaussian 90(TM) system (copyright 1990, Gaussian, Inc.),
 the Gaussian 88(TM) system (copyright 1988, Gaussian, Inc.),
 the Gaussian 86(TM) system (copyright 1986, Carnegie Mellon
 University), and the Gaussian 82(TM) system (copyright 1983,
 Carnegie Mellon University). Gaussian is a federally registered
 trademark of Gaussian, Inc.
  
 This software contains proprietary and confidential information,
 including trade secrets, belonging to Gaussian, Inc.
  
 This software is provided under written license and may be
 used, copied, transmitted, or stored only in accord with that
 written license.
  
 The following legend is applicable only to US Government
 contracts under FAR:
  
                    RESTRICTED RIGHTS LEGEND
  
 Use, reproduction and disclosure by the US Government is
 subject to restrictions as set forth in subparagraphs (a)
 and (c) of the Commercial Computer Software - Restricted
 Rights clause in FAR 52.227-19.
  
 Gaussian, Inc.
 340 Quinnipiac St., Bldg. 40, Wallingford CT 06492
  
  
 ---------------------------------------------------------------
 Warning -- This program may not be used in any manner that
 competes with the business of Gaussian, Inc. or will provide
 assistance to any competitor of Gaussian, Inc.  The licensee
 of this program is prohibited from giving any competitor of
 Gaussian, Inc. access to this program.  By using this program,
 the user acknowledges that Gaussian, Inc. is engaged in the
 business of creating and licensing software in the field of
 computational chemistry and represents and warrants to the
 licensee that it is not a competitor of Gaussian, Inc. and that
 it will not use this program in any manner prohibited above.
 ---------------------------------------------------------------
  

 Cite this work as:
 Gaussian 16, Revision C.01,
 M. J. Frisch, G. W. Trucks, H. B. Schlegel, G. E. Scuseria, 
 M. A. Robb, J. R. Cheeseman, G. Scalmani, V. Barone, 
 G. A. Petersson, H. Nakatsuji, X. Li, M. Caricato, A. V. Marenich, 
 J. Bloino, B. G. Janesko, R. Gomperts, B. Mennucci, H. P. Hratchian, 
 J. V. Ortiz, A. F. Izmaylov, J. L. Sonnenberg, D. Williams-Young, 
 F. Ding, F. Lipparini, F. Egidi, J. Goings, B. Peng, A. Petrone, 
 T. Henderson, D. Ranasinghe, V. G. Zakrzewski, J. Gao, N. Rega, 
 G. Zheng, W. Liang, M. Hada, M. Ehara, K. Toyota, R. Fukuda, 
 J. Hasegawa, M. Ishida, T. Nakajima, Y. Honda, O. Kitao, H. Nakai, 
 T. Vreven, K. Throssell, J. A. Montgomery, Jr., J. E. Peralta, 
 F. Ogliaro, M. J. Bearpark, J. J. Heyd, E. N. Brothers, K. N. Kudin, 
 V. N. Staroverov, T. A. Keith, R. Kobayashi, J. Normand, 
 K. Raghavachari, A. P. Rendell, J. C. Burant, S. S. Iyengar, 
 J. Tomasi, M. Cossi, J. M. Millam, M. Klene, C. Adamo, R. Cammi, 
 J. W. Ochterski, R. L. Martin, K. Morokuma, O. Farkas, 
 J. B. Foresman, and D. J. Fox, Gaussian, Inc., Wallingford CT, 2019.
 
 ******************************************
 Gaussian 16:  ES64L-G16RevC.01  3-Jul-2019
                27-Jul-2022 
 ******************************************
 %NProcShared=32
 Will use up to   32 processors via shared memory.
 %mem = 128GB
 ---------------------------------------------------------------
 #n M062X/6-311++G(d,p) TD(NStates=1) EmpiricalDispersion=GD3 SP
 ---------------------------------------------------------------
 1/38=1,172=1/1;
 2/12=2,17=6,18=5,40=1/2;
 3/5=4,6=6,7=1111,11=9,25=1,30=1,74=-55,124=31/1,2,3,8;
 4//1;
 5/5=2,38=5/2;
 8/6=1,10=2,108=1/1;
 9/41=1,42=1,70=2/14;
 6/7=2,8=2,9=2,10=2/1;
 99/5=1,9=1/99;
 -----
 SP_-4
 -----
 Symbolic Z-matrix:
 Charge =  1 Multiplicity = 1
 C                     2.4927    1.2891   -0.068 
 C                     3.7015    0.6267   -0.036 
 C                     3.6839   -0.7201   -0.048 
 C                     2.4632   -1.3629    0.056 
 C                    -2.4632   -1.3149    0.104 
 C                    -3.6839   -0.7441    0.048 
 C                    -3.7015    0.6267    0.012 
 C                    -2.4927    1.3531   -0.068 
 C                     0.        1.4381   -0.132 
 C                     0.       -1.3335    0.108 
 C                     1.2621    0.6967    0.001 
 C                     1.2375   -0.7071    0.049 
 C                    -1.2621    0.7287   -0.065 
 C                    -1.2375   -0.6831    0.055 
 H                     2.4881    2.3813   -0.072 
 H                     4.6368    1.1304    0.027 
 H                     4.6093   -1.2907   -0.062 
 H                     2.4675   -2.5264    0.06 
 H                     0.       -2.4266    0.112 
 H                    -2.4675   -2.3824    0.108 
 H                    -4.6093   -1.2427   -0.05 
 H                    -4.6368    1.2024    0.069 
 H                    -2.4881    2.4933   -0.072 
 H                     0.008     2.0225   -0.9796 
 H                    -0.008     2.0225    0.7396 
 
                          Input orientation:                          
 ---------------------------------------------------------------------
 Center     Atomic      Atomic             Coordinates (Angstroms)
 Number     Number       Type             X           Y           Z
 ---------------------------------------------------------------------
      1          6           0        2.492700    1.289100   -0.068000
      2          6           0        3.701500    0.626700   -0.036000
      3          6           0        3.683900   -0.720100   -0.048000
      4          6           0        2.463200   -1.362900    0.056000
      5          6           0       -2.463200   -1.314900    0.104000
      6          6           0       -3.683900   -0.744100    0.048000
      7          6           0       -3.701500    0.626700    0.012000
      8          6           0       -2.492700    1.353100   -0.068000
      9          6           0        0.000000    1.438100   -0.132000
     10          6           0        0.000000   -1.333500    0.108000
     11          6           0        1.262100    0.696700    0.001000
     12          6           0        1.237500   -0.707100    0.049000
     13          6           0       -1.262100    0.728700   -0.065000
     14          6           0       -1.237500   -0.683100    0.055000
     15          1           0        2.488100    2.381300   -0.072000
     16          1           0        4.636800    1.130400    0.027000
     17          1           0        4.609300   -1.290700   -0.062000
     18          1           0        2.467500   -2.526400    0.060000
     19          1           0        0.000000   -2.426600    0.112000
     20          1           0       -2.467500   -2.382400    0.108000
     21          1           0       -4.609300   -1.242700   -0.050000
     22          1           0       -4.636800    1.202400    0.069000
     23          1           0       -2.488100    2.493300   -0.072000
     24          1           0        0.008000    2.022500   -0.979600
     25          1           0       -0.008000    2.022500    0.739600
 ---------------------------------------------------------------------
                    Distance matrix (angstroms):
                    1          2          3          4          5
     1  C    0.000000
     2  C    1.378766   0.000000
     3  C    2.335860   1.346968   0.000000
     4  C    2.655061   2.345284   1.383516   0.000000
     5  C    5.601013   6.464746   6.177680   4.926868   0.000000
     6  C    6.503672   7.512009   7.368464   6.178173   1.348724
     7  C    6.230031   7.403156   7.507437   6.477960   2.304704
     8  C    4.985811   6.236729   6.515286   5.652696   2.673701
     9  C    2.497969   3.790605   4.270363   3.734742   3.701629
    10  C    3.622507   4.190969   3.737876   2.463924   2.463273
    11  C    1.367507   2.440685   2.806214   2.384873   4.234974
    12  C    2.360938   2.803131   2.448357   1.390131   3.750683
    13  C    3.796390   4.964733   5.153855   4.274025   2.376448
    14  C    4.221267   5.110536   4.922617   3.762620   1.379823
    15  H    1.092217   2.133602   3.324033   3.746470   6.181282
    16  H    2.152063   1.064175   2.082785   3.307858   7.509688
    17  H    3.336975   2.121603   1.087265   2.150554   7.074489
    18  H    3.817730   3.387331   2.180370   1.163515   5.077546
    19  H    4.477988   4.800588   4.063110   2.683645   2.702461
    20  H    6.173692   6.865273   6.373955   5.035264   1.067516
    21  H    7.539810   8.518465   8.309650   7.074316   2.152829
    22  H    7.131343   8.358810   8.540711   7.549234   3.326043
    23  H    5.124303   6.465032   6.958455   6.277104   3.812346
    24  H    2.746384   4.059628   4.679955   4.308295   4.291766
    25  H    2.728295   4.038589   4.666079   4.246772   4.191686
                    6          7          8          9         10
     6  C    0.000000
     7  C    1.371386   0.000000
     8  C    2.414676   1.412535   0.000000
     9  C    4.285501   3.792124   2.494970   0.000000
    10  C    3.731235   4.189595   3.669107   2.781972   0.000000
    11  C    5.151799   4.964106   3.812367   1.469782   2.392918
    12  C    4.921539   5.116064   4.262922   2.483153   1.388259
    13  C    2.836728   2.442745   1.379950   1.449356   2.423942
    14  C    2.447170   2.790828   2.395155   2.462898   1.399012
    15  H    6.919256   6.434036   5.085821   2.661554   4.474682
    16  H    8.529258   8.353513   7.133610   4.649718   5.251407
    17  H    8.311921   8.529437   7.578134   5.356948   4.612632
    18  H    6.404409   6.928269   6.298451   4.673615   2.741144
    19  H    4.050435   4.799348   4.531234   3.872395   1.093107
    20  H    2.041386   3.253714   3.739729   4.554380   2.681184
    21  H    1.055733   2.079087   3.349403   5.332828   4.612901
    22  H    2.167331   1.099757   2.153751   4.647136   5.285095
    23  H    3.453273   2.227912   1.140216   2.703274   4.568089
    24  H    4.726538   4.085574   2.744560   1.029569   3.527843
    25  H    4.652379   4.014922   2.697044   1.049416   3.414926
                   11         12         13         14         15
    11  C    0.000000
    12  C    1.404836   0.000000
    13  C    2.525265   2.884877   0.000000
    14  C    2.855655   2.475124   1.417104   0.000000
    15  H    2.084774   3.334195   4.098187   4.825637   0.000000
    16  H    3.402554   3.864212   5.913277   6.147924   2.488265
    17  H    3.893260   3.423733   6.208971   5.879450   4.240657
    18  H    3.441634   2.196104   4.951890   4.138213   4.909518
    19  H    3.370493   2.119447   3.402961   2.138796   5.416678
    20  H    4.837584   4.066588   3.340937   2.098411   6.876279
    21  H    6.183624   5.872115   3.884635   3.419534   7.969125
    22  H    5.920927   6.176892   3.410418   3.887229   7.223149
    23  H    4.158978   4.912972   2.148706   3.416086   4.977460
    24  H    2.071736   3.165502   2.030656   3.153084   2.665215
    25  H    1.978997   3.078785   1.973339   3.049692   2.649141
                   16         17         18         19         20
    16  H    0.000000
    17  H    2.422891   0.000000
    18  H    4.251957   2.475711   0.000000
    19  H    5.844603   4.750389   2.470065   0.000000
    20  H    7.925743   7.162528   4.937334   2.467899   0.000000
    21  H    9.546093   9.218733   7.193128   4.761671   2.431293
    22  H    9.273975   9.577216   8.023410   5.888243   4.190248
    23  H    7.254757   8.043124   7.054983   5.516332   4.879065
    24  H    4.820257   5.743801   5.274694   4.581064   5.168570
    25  H    4.783075   5.739278   5.223260   4.493154   5.084408
                   21         22         23         24         25
    21  H    0.000000
    22  H    2.448149   0.000000
    23  H    4.296239   2.510621   0.000000
    24  H    5.731069   4.831800   2.697389   0.000000
    25  H    5.697101   4.748480   2.651649   1.719274   0.000000
 Stoichiometry    C14H11(1+)
 Framework group  C1[X(C14H11)]
 Deg. of freedom    69
 Full point group                 C1      NOp   1
 Largest Abelian subgroup         C1      NOp   1
 Largest concise Abelian subgroup C1      NOp   1
                         Standard orientation:                         
 ---------------------------------------------------------------------
 Center     Atomic      Atomic             Coordinates (Angstroms)
 Number     Number       Type             X           Y           Z
 ---------------------------------------------------------------------
      1          6           0        2.485948   -1.296043   -0.011257
      2          6           0        3.698172   -0.639189   -0.018333
      3          6           0        3.688090    0.705460    0.060024
      4          6           0        2.470349    1.358964   -0.004444
      5          6           0       -2.456443    1.339099   -0.023351
      6          6           0       -3.679914    0.772613    0.012277
      7          6           0       -3.704870   -0.598186   -0.019095
      8          6           0       -2.499637   -1.333944    0.017366
      9          6           0       -0.007100   -1.435001    0.061219
     10          6           0        0.006752    1.345016   -0.042129
     11          6           0        1.258242   -0.694550   -0.043185
     12          6           0        1.241108    0.710021   -0.021906
     13          6           0       -1.265646   -0.716585    0.037246
     14          6           0       -1.233977    0.699264   -0.013306
     15          1           0        2.475336   -2.387077   -0.060966
     16          1           0        4.630272   -1.144052   -0.111997
     17          1           0        4.616698    1.269841    0.096181
     18          1           0        2.481054    2.521211    0.048774
     19          1           0        0.012769    2.436973    0.007654
     20          1           0       -2.454867    2.405509    0.025199
     21          1           0       -4.601928    1.270607    0.140584
     22          1           0       -4.643668   -1.165493   -0.098387
     23          1           0       -2.501314   -2.472966   -0.034764
     24          1           0        0.002847   -2.060454    0.878974
     25          1           0       -0.023654   -1.975732   -0.838007
 ---------------------------------------------------------------------
 Rotational constants (GHZ):           2.2581160           0.4445014           0.3723361
 Standard basis: 6-311++G(d,p) (5D, 7F)
 There are   399 symmetry adapted cartesian basis functions of A   symmetry.
 There are   385 symmetry adapted basis functions of A   symmetry.
   385 basis functions,   603 primitive gaussians,   399 cartesian basis functions
    47 alpha electrons       47 beta electrons
       nuclear repulsion energy       789.1660778233 Hartrees.
 NAtoms=   25 NActive=   25 NUniq=   25 SFac= 1.00D+00 NAtFMM=   60 NAOKFM=F Big=F
 Integral buffers will be    131072 words long.
 Regular integral format.
 Two-electron integral symmetry is turned on.
 Nuclear repulsion after empirical dispersion term =      789.1651122923 Hartrees.
 One-electron integrals computed using PRISM.
 NBasis=   385 RedAO= T EigKep=  1.64D-06  NBF=   385
 NBsUse=   379 1.00D-06 EigRej=  8.03D-07 NBFU=   379
 ExpMin= 3.60D-02 ExpMax= 4.56D+03 ExpMxC= 6.82D+02 IAcc=3 IRadAn=         5 AccDes= 0.00D+00
 Harris functional with IExCor= 1009 and IRadAn=       5 diagonalized for initial guess.
 HarFok:  IExCor= 1009 AccDes= 0.00D+00 IRadAn=         5 IDoV= 1 UseB2=F ITyADJ=14
 ICtDFT=  3500011 ScaDFX=  1.000000  1.000000  1.000000  1.000000
 FoFCou: FMM=F IPFlag=           0 FMFlag=      100000 FMFlg1=           0
         NFxFlg=           0 DoJE=T BraDBF=F KetDBF=T FulRan=T
         wScrn=  0.000000 ICntrl=       500 IOpCl=  0 I1Cent=   200000004 NGrid=           0
         NMat0=    1 NMatS0=      1 NMatT0=    0 NMatD0=    1 NMtDS0=    0 NMtDT0=    0
 Petite list used in FoFCou.
 Requested convergence on RMS density matrix=1.00D-08 within 128 cycles.
 Requested convergence on MAX density matrix=1.00D-06.
 Requested convergence on             energy=1.00D-06.
 No special actions if energy rises.
 SCF Done:  E(RM062X) =  -539.727864737     A.U. after   15 cycles
            NFock= 15  Conv=0.79D-08     -V/T= 2.0026
 DoSCS=F DFT=T ScalE2(SS,OS)=  1.000000  1.000000
 ExpMin= 3.60D-02 ExpMax= 4.56D+03 ExpMxC= 6.82D+02 IAcc=3 IRadAn=         5 AccDes= 0.00D+00
 HarFok:  IExCor=  205 AccDes= 0.00D+00 IRadAn=         5 IDoV=-2 UseB2=F ITyADJ=14
 ICtDFT= 12500011 ScaDFX=  1.000000  1.000000  1.000000  1.000000
 Range of M.O.s used for correlation:    15   379
 NBasis=   385 NAE=    47 NBE=    47 NFC=    14 NFV=     0
 NROrb=    365 NOA=    33 NOB=    33 NVA=   332 NVB=   332

 **** Warning!!: The largest alpha MO coefficient is  0.13490397D+03

 Orbital symmetries:
       Occupied  (A) (A) (A) (A) (A) (A) (A) (A) (A) (A) (A) (A)
                 (A) (A) (A) (A) (A) (A) (A) (A) (A) (A) (A) (A)
                 (A) (A) (A) (A) (A) (A) (A) (A) (A) (A) (A) (A)
                 (A) (A) (A) (A) (A) (A) (A) (A) (A) (A) (A)
       Virtual   (A) (A) (A) (A) (A) (A) (A) (A) (A) (A) (A) (A)
                 (A) (A) (A) (A) (A) (A) (A) (A) (A) (A) (A) (A)
                 (A) (A) (A) (A) (A) (A) (A) (A) (A) (A) (A) (A)
                 (A) (A) (A) (A) (A) (A) (A) (A) (A) (A) (A) (A)
                 (A) (A) (A) (A) (A) (A) (A) (A) (A) (A) (A) (A)
                 (A) (A) (A) (A) (A) (A) (A) (A) (A) (A) (A) (A)
                 (A) (A) (A) (A) (A) (A) (A) (A) (A) (A) (A) (A)
                 (A) (A) (A) (A) (A) (A) (A) (A) (A) (A) (A) (A)
                 (A) (A) (A) (A) (A) (A) (A) (A) (A) (A) (A) (A)
                 (A) (A) (A) (A) (A) (A) (A) (A) (A) (A) (A) (A)
                 (A) (A) (A) (A) (A) (A) (A) (A) (A) (A) (A) (A)
                 (A) (A) (A) (A) (A) (A) (A) (A) (A) (A) (A) (A)
                 (A) (A) (A) (A) (A) (A) (A) (A) (A) (A) (A) (A)
                 (A) (A) (A) (A) (A) (A) (A) (A) (A) (A) (A) (A)
                 (A) (A) (A) (A) (A) (A) (A) (A) (A) (A) (A) (A)
                 (A) (A) (A) (A) (A) (A) (A) (A) (A) (A) (A) (A)
                 (A) (A) (A) (A) (A) (A) (A) (A) (A) (A) (A) (A)
                 (A) (A) (A) (A) (A) (A) (A) (A) (A) (A) (A) (A)
                 (A) (A) (A) (A) (A) (A) (A) (A) (A) (A) (A) (A)
                 (A) (A) (A) (A) (A) (A) (A) (A) (A) (A) (A) (A)
                 (A) (A) (A) (A) (A) (A) (A) (A) (A) (A) (A) (A)
                 (A) (A) (A) (A) (A) (A) (A) (A) (A) (A) (A) (A)
                 (A) (A) (A) (A) (A) (A) (A) (A) (A) (A) (A) (A)
                 (A) (A) (A) (A) (A) (A) (A) (A) (A) (A) (A) (A)
                 (A) (A) (A) (A) (A) (A) (A) (A) (A) (A) (A) (A)
                 (A) (A) (A) (A) (A) (A) (A) (A) (A) (A) (A) (A)
                 (A) (A) (A) (A) (A) (A) (A) (A) (A) (A) (A) (A)
                 (A) (A) (A) (A) (A) (A) (A) (A)
     4 initial guesses have been made.
 Convergence on wavefunction:    0.001000000000000
 Iteration     1 Dimension     4 NMult     0 NNew      4
 CISAX will form     4 AO SS matrices at one time.
 Iteration     2 Dimension     6 NMult     4 NNew      2
 Iteration     3 Dimension     8 NMult     6 NNew      2
 Iteration     4 Dimension    10 NMult     8 NNew      2
 Iteration     5 Dimension    12 NMult    10 NNew      2
 Iteration     6 Dimension    14 NMult    12 NNew      2
 ***********************************************************************
 Excited states from <AA,BB:AA,BB> singles matrix:
 ***********************************************************************
 
 Ground to excited state transition densities written to RWF  633
 Ground to excited state transition electric dipole moments (Au):
       state          X           Y           Z        Dip. S.      Osc.
         1        -0.0470     -0.6101     -0.0010      0.3745      0.0279
 Ground to excited state transition velocity dipole moments (Au):
       state          X           Y           Z        Dip. S.      Osc.
         1         0.0056      0.0755      0.0001      0.0057      0.0343
 Ground to excited state transition magnetic dipole moments (Au):
       state          X           Y           Z
         1        -0.0287     -0.0142     -0.0001
 Ground to excited state transition velocity quadrupole moments (Au):
       state          XX          YY          ZZ          XY          XZ          YZ
         1         0.3059      0.0456     -0.0071      0.0308      0.0048     -0.0025
 <0|del|b> * <b|rxdel|0> + <0|del|b> * <b|delr+rdel|0>
 Rotatory Strengths (R) in cgs (10**-40 erg-esu-cm/Gauss)
       state          XX          YY          ZZ    R(velocity)    E-M Angle
         1        -4.5476     -0.5666     -2.7286     -2.6143      120.63
 1/2[<0|r|b>*<b|rxdel|0> + (<0|rxdel|b>*<b|r|0>)*]
 Rotatory Strengths (R) in cgs (10**-40 erg-esu-cm/Gauss)
       state          XX          YY          ZZ     R(length)
         1        -0.9550     -6.1471     -0.0001     -2.3674
  1/2[<0|del|b>*<b|r|0> + (<0|r|b>*<b|del|0>)*] (Au)
       state          X           Y           Z        Dip. S.   Osc.(frdel)
         1        -0.0003     -0.0461     -0.0000      0.0464      0.0309

 Excitation energies and oscillator strengths:
 
 Excited State   1:      Singlet-A      3.0368 eV  408.27 nm  f=0.0279  <S**2>=0.000
      47 -> 48         0.70347
 This state for optimization and/or second-order correction.
 Total Energy, E(TD-HF/TD-DFT) =  -539.616264548    
 Copying the excited state density for this state as the 1-particle RhoCI density.
 SavETr:  write IOETrn=   770 NScale= 10 NData=  16 NLR=1 NState=    1 LETran=      28.

 **********************************************************************

            Population analysis using the SCF Density.

 **********************************************************************

 Orbital symmetries:
       Occupied  (A) (A) (A) (A) (A) (A) (A) (A) (A) (A) (A) (A)
                 (A) (A) (A) (A) (A) (A) (A) (A) (A) (A) (A) (A)
                 (A) (A) (A) (A) (A) (A) (A) (A) (A) (A) (A) (A)
                 (A) (A) (A) (A) (A) (A) (A) (A) (A) (A) (A)
       Virtual   (A) (A) (A) (A) (A) (A) (A) (A) (A) (A) (A) (A)
                 (A) (A) (A) (A) (A) (A) (A) (A) (A) (A) (A) (A)
                 (A) (A) (A) (A) (A) (A) (A) (A) (A) (A) (A) (A)
                 (A) (A) (A) (A) (A) (A) (A) (A) (A) (A) (A) (A)
                 (A) (A) (A) (A) (A) (A) (A) (A) (A) (A) (A) (A)
                 (A) (A) (A) (A) (A) (A) (A) (A) (A) (A) (A) (A)
                 (A) (A) (A) (A) (A) (A) (A) (A) (A) (A) (A) (A)
                 (A) (A) (A) (A) (A) (A) (A) (A) (A) (A) (A) (A)
                 (A) (A) (A) (A) (A) (A) (A) (A) (A) (A) (A) (A)
                 (A) (A) (A) (A) (A) (A) (A) (A) (A) (A) (A) (A)
                 (A) (A) (A) (A) (A) (A) (A) (A) (A) (A) (A) (A)
                 (A) (A) (A) (A) (A) (A) (A) (A) (A) (A) (A) (A)
                 (A) (A) (A) (A) (A) (A) (A) (A) (A) (A) (A) (A)
                 (A) (A) (A) (A) (A) (A) (A) (A) (A) (A) (A) (A)
                 (A) (A) (A) (A) (A) (A) (A) (A) (A) (A) (A) (A)
                 (A) (A) (A) (A) (A) (A) (A) (A) (A) (A) (A) (A)
                 (A) (A) (A) (A) (A) (A) (A) (A) (A) (A) (A) (A)
                 (A) (A) (A) (A) (A) (A) (A) (A) (A) (A) (A) (A)
                 (A) (A) (A) (A) (A) (A) (A) (A) (A) (A) (A) (A)
                 (A) (A) (A) (A) (A) (A) (A) (A) (A) (A) (A) (A)
                 (A) (A) (A) (A) (A) (A) (A) (A) (A) (A) (A) (A)
                 (A) (A) (A) (A) (A) (A) (A) (A) (A) (A) (A) (A)
                 (A) (A) (A) (A) (A) (A) (A) (A) (A) (A) (A) (A)
                 (A) (A) (A) (A) (A) (A) (A) (A) (A) (A) (A) (A)
                 (A) (A) (A) (A) (A) (A) (A) (A) (A) (A) (A) (A)
                 (A) (A) (A) (A) (A) (A) (A) (A) (A) (A) (A) (A)
                 (A) (A) (A) (A) (A) (A) (A) (A) (A) (A) (A) (A)
                 (A) (A) (A) (A) (A) (A) (A) (A)
 The electronic state is 1-A.
 Alpha  occ. eigenvalues --  -10.76860 -10.72761 -10.72480 -10.71999 -10.71952
 Alpha  occ. eigenvalues --  -10.71824 -10.71502 -10.70620 -10.70509 -10.70267
 Alpha  occ. eigenvalues --  -10.69523 -10.69307 -10.69205 -10.68999  -1.17559
 Alpha  occ. eigenvalues --   -1.13688  -1.08240  -1.06742  -1.01829  -1.01103
 Alpha  occ. eigenvalues --   -0.96280  -0.92308  -0.86651  -0.86022  -0.83669
 Alpha  occ. eigenvalues --   -0.79103  -0.76996  -0.74270  -0.71026  -0.70828
 Alpha  occ. eigenvalues --   -0.69211  -0.68311  -0.67343  -0.65578  -0.63502
 Alpha  occ. eigenvalues --   -0.62705  -0.61795  -0.61291  -0.60579  -0.59564
 Alpha  occ. eigenvalues --   -0.56336  -0.55598  -0.53361  -0.52933  -0.47459
 Alpha  occ. eigenvalues --   -0.46112  -0.45220
 Alpha virt. eigenvalues --   -0.25895  -0.14359  -0.13751  -0.12210  -0.11184
 Alpha virt. eigenvalues --   -0.09945  -0.09326  -0.08234  -0.07959  -0.07449
 Alpha virt. eigenvalues --   -0.07171  -0.06980  -0.05644  -0.05547  -0.05217
 Alpha virt. eigenvalues --   -0.04064  -0.04023  -0.03178  -0.02937  -0.02028
 Alpha virt. eigenvalues --   -0.01717  -0.00968   0.00365   0.00448   0.00814
 Alpha virt. eigenvalues --    0.01248   0.01454   0.02090   0.02207   0.02425
 Alpha virt. eigenvalues --    0.02654   0.02783   0.03073   0.03243   0.03498
 Alpha virt. eigenvalues --    0.04254   0.04512   0.04695   0.05274   0.05344
 Alpha virt. eigenvalues --    0.05861   0.06344   0.06421   0.06829   0.07399
 Alpha virt. eigenvalues --    0.07860   0.08216   0.08411   0.08791   0.08883
 Alpha virt. eigenvalues --    0.09528   0.09805   0.09885   0.10272   0.11239
 Alpha virt. eigenvalues --    0.11466   0.12031   0.12437   0.12610   0.12794
 Alpha virt. eigenvalues --    0.13418   0.13701   0.14155   0.14611   0.15010
 Alpha virt. eigenvalues --    0.16002   0.16702   0.17450   0.17852   0.18207
 Alpha virt. eigenvalues --    0.18762   0.18970   0.19665   0.19996   0.20245
 Alpha virt. eigenvalues --    0.21246   0.21995   0.22660   0.23153   0.23563
 Alpha virt. eigenvalues --    0.24082   0.24459   0.25170   0.27166   0.28234
 Alpha virt. eigenvalues --    0.28598   0.29071   0.31276   0.32223   0.37121
 Alpha virt. eigenvalues --    0.37668   0.38580   0.39126   0.40383   0.41455
 Alpha virt. eigenvalues --    0.41639   0.42733   0.42902   0.43202   0.44358
 Alpha virt. eigenvalues --    0.44737   0.45665   0.45933   0.47117   0.48010
 Alpha virt. eigenvalues --    0.48754   0.49283   0.49623   0.50057   0.50432
 Alpha virt. eigenvalues --    0.51032   0.51542   0.52327   0.52580   0.53889
 Alpha virt. eigenvalues --    0.54148   0.55246   0.55819   0.56290   0.58359
 Alpha virt. eigenvalues --    0.59456   0.60157   0.61374   0.62285   0.62514
 Alpha virt. eigenvalues --    0.63038   0.63780   0.64115   0.65892   0.66726
 Alpha virt. eigenvalues --    0.69080   0.69932   0.71173   0.71912   0.72856
 Alpha virt. eigenvalues --    0.74045   0.74806   0.75504   0.75826   0.76264
 Alpha virt. eigenvalues --    0.76646   0.77285   0.78224   0.79699   0.80636
 Alpha virt. eigenvalues --    0.81195   0.82000   0.82711   0.83280   0.84475
 Alpha virt. eigenvalues --    0.85602   0.86329   0.87422   0.88862   0.89782
 Alpha virt. eigenvalues --    0.91976   0.92941   0.94039   0.95778   0.97153
 Alpha virt. eigenvalues --    0.98240   0.99336   1.01346   1.01566   1.02831
 Alpha virt. eigenvalues --    1.04602   1.05738   1.07347   1.09196   1.11377
 Alpha virt. eigenvalues --    1.20102   1.21972   1.24812   1.27366   1.30540
 Alpha virt. eigenvalues --    1.31388   1.33382   1.33638   1.35193   1.35977
 Alpha virt. eigenvalues --    1.38795   1.41902   1.42492   1.44346   1.44583
 Alpha virt. eigenvalues --    1.44876   1.46360   1.46899   1.47744   1.49058
 Alpha virt. eigenvalues --    1.49708   1.51147   1.52924   1.54831   1.56071
 Alpha virt. eigenvalues --    1.56546   1.57224   1.58228   1.59114   1.61508
 Alpha virt. eigenvalues --    1.62126   1.63332   1.63998   1.66748   1.67425
 Alpha virt. eigenvalues --    1.68095   1.70455   1.71674   1.73871   1.76649
 Alpha virt. eigenvalues --    1.77637   1.78319   1.79977   1.82201   1.82544
 Alpha virt. eigenvalues --    1.83346   1.84289   1.84868   1.85490   1.85655
 Alpha virt. eigenvalues --    1.86795   1.86935   1.87857   1.89547   1.91907
 Alpha virt. eigenvalues --    1.92644   1.94620   1.96118   1.98516   2.00520
 Alpha virt. eigenvalues --    2.02850   2.03957   2.05690   2.10209   2.12806
 Alpha virt. eigenvalues --    2.13950   2.15641   2.16936   2.23133   2.23848
 Alpha virt. eigenvalues --    2.25093   2.29741   2.30890   2.33304   2.36813
 Alpha virt. eigenvalues --    2.37297   2.39528   2.40328   2.41718   2.46350
 Alpha virt. eigenvalues --    2.47421   2.49637   2.50488   2.55026   2.56105
 Alpha virt. eigenvalues --    2.57908   2.58661   2.58770   2.59290   2.59843
 Alpha virt. eigenvalues --    2.60380   2.60937   2.62697   2.62798   2.63547
 Alpha virt. eigenvalues --    2.64554   2.65539   2.66381   2.67273   2.68017
 Alpha virt. eigenvalues --    2.70009   2.71752   2.74928   2.76441   2.77583
 Alpha virt. eigenvalues --    2.78475   2.80814   2.81770   2.82146   2.84769
 Alpha virt. eigenvalues --    2.88940   2.91025   2.94064   2.96412   3.01386
 Alpha virt. eigenvalues --    3.02292   3.08741   3.09982   3.15701   3.17754
 Alpha virt. eigenvalues --    3.24829   3.27988   3.29733   3.32429   3.33313
 Alpha virt. eigenvalues --    3.34814   3.38306   3.44690   3.47627   3.48505
 Alpha virt. eigenvalues --    3.49017   3.55409   3.58390   3.66510   3.67429
 Alpha virt. eigenvalues --    3.87426   3.90159   3.92283   3.95821   3.98031
 Alpha virt. eigenvalues --    4.01607   4.03438   4.04810   4.11811   4.38888
 Alpha virt. eigenvalues --    4.67408   4.70541   4.71268  23.42900  23.59901
 Alpha virt. eigenvalues --   23.83707  23.86226  23.88701  23.95653  23.97663
 Alpha virt. eigenvalues --   24.02062  24.03187  24.04920  24.05775  24.10264
 Alpha virt. eigenvalues --   24.20341  24.22038
          Condensed to atoms (all electrons):
               1          2          3          4          5          6
     1  C    9.287944   0.550640  -0.796915   2.127649   0.012731  -0.092359
     2  C    0.550640   7.248215   0.230039  -0.538807  -0.100450  -0.024363
     3  C   -0.796915   0.230039   6.725626   0.052560  -0.090219   0.023667
     4  C    2.127649  -0.538807   0.052560  12.559645   0.209109  -0.130200
     5  C    0.012731  -0.100450  -0.090219   0.209109   9.989278  -0.107351
     6  C   -0.092359  -0.024363   0.023667  -0.130200  -0.107351   7.026909
     7  C   -0.016840   0.012629  -0.008088  -0.093647  -0.528290   0.530183
     8  C    0.547208  -0.019199  -0.096874  -0.001835   2.575046  -0.799057
     9  C   -1.390146  -0.583199   0.559345  -0.260575  -1.560243   0.229976
    10  C   -1.497733  -0.033782  -0.174267  -3.014308  -1.912157  -0.313259
    11  C    0.065647  -0.968925   1.114197  -1.142300  -1.382590  -0.114503
    12  C   -2.183996   0.518498  -1.156169  -1.133311   0.092845  -0.086530
    13  C    0.013050  -0.045934  -0.116578  -2.214673  -1.528553   1.030132
    14  C   -1.096545  -0.238962  -0.152564  -0.898100  -0.129149  -1.085766
    15  H    0.346198  -0.084248  -0.006212   0.024840   0.005929   0.001406
    16  H   -0.038350   0.421435  -0.018922   0.010509  -0.001458  -0.000350
    17  H   -0.017206  -0.050909   0.401604  -0.052245  -0.000181   0.000447
    18  H    0.047216   0.007099  -0.084076   0.422519   0.016793  -0.003089
    19  H   -0.055502  -0.011891   0.050961  -0.131447  -0.070046   0.060401
    20  H    0.009481   0.001828  -0.004067   0.016157   0.486000  -0.117833
    21  H   -0.001287  -0.000311   0.000412  -0.000746  -0.083508   0.407338
    22  H    0.000654   0.000327  -0.000272  -0.002323   0.021144  -0.016522
    23  H    0.006177  -0.002084   0.000650   0.006829   0.009511  -0.002758
    24  H    0.085363   0.012763   0.006891  -0.013714  -0.003828   0.009734
    25  H    0.060691   0.030219  -0.006414  -0.023089  -0.021509  -0.011997
               7          8          9         10         11         12
     1  C   -0.016840   0.547208  -1.390146  -1.497733   0.065647  -2.183996
     2  C    0.012629  -0.019199  -0.583199  -0.033782  -0.968925   0.518498
     3  C   -0.008088  -0.096874   0.559345  -0.174267   1.114197  -1.156169
     4  C   -0.093647  -0.001835  -0.260575  -3.014308  -1.142300  -1.133311
     5  C   -0.528290   2.575046  -1.560243  -1.912157  -1.382590   0.092845
     6  C    0.530183  -0.799057   0.229976  -0.313259  -0.114503  -0.086530
     7  C    6.388109   0.491877  -0.048383  -0.081639  -0.089646  -0.264754
     8  C    0.491877   9.636121  -2.038060  -1.710563   0.035581  -0.838653
     9  C   -0.048383  -2.038060   9.481565   1.007592   1.501047  -1.739776
    10  C   -0.081639  -1.710563   1.007592   9.623557  -0.338422   2.283141
    11  C   -0.089646   0.035581   1.501047  -0.338422  12.548633  -2.147408
    12  C   -0.264754  -0.838653  -1.739776   2.283141  -2.147408  14.158667
    13  C   -0.380411  -0.598137   1.003892  -0.064333   0.627436  -3.331883
    14  C    0.160165  -1.609699  -0.539299   1.677147  -3.014621   1.154328
    15  H   -0.001534   0.008172   0.018269  -0.003799  -0.025937   0.053789
    16  H    0.000138  -0.000130  -0.004347  -0.010089   0.000004  -0.009766
    17  H   -0.000068  -0.000949   0.011227   0.008082   0.018449   0.031594
    18  H   -0.000322   0.007302  -0.035279   0.032529  -0.024350  -0.040269
    19  H   -0.002090  -0.062632   0.090175   0.436646   0.060473  -0.064883
    20  H   -0.004029   0.070435  -0.043271   0.028539  -0.010983  -0.011676
    21  H   -0.013945  -0.042947   0.004147   0.025279  -0.002704   0.005719
    22  H    0.374242  -0.008947  -0.005053  -0.016531   0.001711  -0.009442
    23  H   -0.039139   0.310893   0.034151   0.001072  -0.013604   0.006820
    24  H    0.007302   0.063319   0.306349  -0.011504   0.000909  -0.072441
    25  H    0.029165   0.050644   0.401855  -0.005318  -0.013658  -0.081680
              13         14         15         16         17         18
     1  C    0.013050  -1.096545   0.346198  -0.038350  -0.017206   0.047216
     2  C   -0.045934  -0.238962  -0.084248   0.421435  -0.050909   0.007099
     3  C   -0.116578  -0.152564  -0.006212  -0.018922   0.401604  -0.084076
     4  C   -2.214673  -0.898100   0.024840   0.010509  -0.052245   0.422519
     5  C   -1.528553  -0.129149   0.005929  -0.001458  -0.000181   0.016793
     6  C    1.030132  -1.085766   0.001406  -0.000350   0.000447  -0.003089
     7  C   -0.380411   0.160165  -0.001534   0.000138  -0.000068  -0.000322
     8  C   -0.598137  -1.609699   0.008172  -0.000130  -0.000949   0.007302
     9  C    1.003892  -0.539299   0.018269  -0.004347   0.011227  -0.035279
    10  C   -0.064333   1.677147  -0.003799  -0.010089   0.008082   0.032529
    11  C    0.627436  -3.014621  -0.025937   0.000004   0.018449  -0.024350
    12  C   -3.331883   1.154328   0.053789  -0.009766   0.031594  -0.040269
    13  C   12.605995  -0.303452  -0.020107  -0.001389  -0.002131  -0.013658
    14  C   -0.303452  11.697283   0.005745  -0.006558   0.000411  -0.017130
    15  H   -0.020107   0.005745   0.456352  -0.010520   0.001807   0.000143
    16  H   -0.001389  -0.006558  -0.010520   0.423414  -0.009266   0.001971
    17  H   -0.002131   0.000411   0.001807  -0.009266   0.427599  -0.008516
    18  H   -0.013658  -0.017130   0.000143   0.001971  -0.008516   0.445247
    19  H    0.095161  -0.023794   0.000171  -0.000674   0.001516  -0.003428
    20  H   -0.031641  -0.053069  -0.000137   0.000016  -0.000131   0.000815
    21  H   -0.007967   0.062073   0.000014  -0.000005   0.000010  -0.000113
    22  H    0.017755  -0.020579  -0.000094   0.000003  -0.000004  -0.000006
    23  H   -0.034042   0.037479   0.000220  -0.000080   0.000017  -0.000083
    24  H    0.003041  -0.066139   0.001099  -0.000326   0.000186  -0.000172
    25  H   -0.003564  -0.063850  -0.001912   0.001331  -0.000408   0.000684
              19         20         21         22         23         24
     1  C   -0.055502   0.009481  -0.001287   0.000654   0.006177   0.085363
     2  C   -0.011891   0.001828  -0.000311   0.000327  -0.002084   0.012763
     3  C    0.050961  -0.004067   0.000412  -0.000272   0.000650   0.006891
     4  C   -0.131447   0.016157  -0.000746  -0.002323   0.006829  -0.013714
     5  C   -0.070046   0.486000  -0.083508   0.021144   0.009511  -0.003828
     6  C    0.060401  -0.117833   0.407338  -0.016522  -0.002758   0.009734
     7  C   -0.002090  -0.004029  -0.013945   0.374242  -0.039139   0.007302
     8  C   -0.062632   0.070435  -0.042947  -0.008947   0.310893   0.063319
     9  C    0.090175  -0.043271   0.004147  -0.005053   0.034151   0.306349
    10  C    0.436646   0.028539   0.025279  -0.016531   0.001072  -0.011504
    11  C    0.060473  -0.010983  -0.002704   0.001711  -0.013604   0.000909
    12  C   -0.064883  -0.011676   0.005719  -0.009442   0.006820  -0.072441
    13  C    0.095161  -0.031641  -0.007967   0.017755  -0.034042   0.003041
    14  C   -0.023794  -0.053069   0.062073  -0.020579   0.037479  -0.066139
    15  H    0.000171  -0.000137   0.000014  -0.000094   0.000220   0.001099
    16  H   -0.000674   0.000016  -0.000005   0.000003  -0.000080  -0.000326
    17  H    0.001516  -0.000131   0.000010  -0.000004   0.000017   0.000186
    18  H   -0.003428   0.000815  -0.000113  -0.000006  -0.000083  -0.000172
    19  H    0.463091  -0.005880   0.001727  -0.000569   0.000087   0.000595
    20  H   -0.005880   0.466945  -0.010154   0.001770   0.000142   0.000126
    21  H    0.001727  -0.010154   0.428240  -0.007598   0.001181   0.000373
    22  H   -0.000569   0.001770  -0.007598   0.416241  -0.006746  -0.000278
    23  H    0.000087   0.000142   0.001181  -0.006746   0.433252   0.000567
    24  H    0.000595   0.000126   0.000373  -0.000278   0.000567   0.477770
    25  H    0.000128   0.000717  -0.000583   0.001308  -0.000145  -0.044098
              25
     1  C    0.060691
     2  C    0.030219
     3  C   -0.006414
     4  C   -0.023089
     5  C   -0.021509
     6  C   -0.011997
     7  C    0.029165
     8  C    0.050644
     9  C    0.401855
    10  C   -0.005318
    11  C   -0.013658
    12  C   -0.081680
    13  C   -0.003564
    14  C   -0.063850
    15  H   -0.001912
    16  H    0.001331
    17  H   -0.000408
    18  H    0.000684
    19  H    0.000128
    20  H    0.000717
    21  H   -0.000583
    22  H    0.001308
    23  H   -0.000145
    24  H   -0.044098
    25  H    0.466367
 Mulliken charges:
               1
     1  C    0.026232
     2  C   -0.330625
     3  C   -0.454315
     4  C    0.221504
     5  C    0.101145
     6  C   -0.414254
     7  C   -0.420985
     8  C    0.031084
     9  C   -0.401958
    10  C    0.064119
    11  C   -0.684436
    12  C    0.867234
    13  C   -0.698011
    14  C    0.524645
    15  H    0.230344
    16  H    0.253411
    17  H    0.239064
    18  H    0.248171
    19  H    0.171705
    20  H    0.209900
    21  H    0.235356
    22  H    0.259809
    23  H    0.249631
    24  H    0.236114
    25  H    0.235116
 Sum of Mulliken charges =   1.00000
 Mulliken charges with hydrogens summed into heavy atoms:
               1
     1  C    0.256577
     2  C   -0.077214
     3  C   -0.215251
     4  C    0.469675
     5  C    0.311045
     6  C   -0.178898
     7  C   -0.161176
     8  C    0.280715
     9  C    0.069272
    10  C    0.235823
    11  C   -0.684436
    12  C    0.867234
    13  C   -0.698011
    14  C    0.524645
 Electronic spatial extent (au):  <R**2>=           2829.2997
 Charge=              1.0000 electrons
 Dipole moment (field-independent basis, Debye):
    X=             -0.0577    Y=              0.2833    Z=             -0.0098  Tot=              0.2893
 Quadrupole moment (field-independent basis, Debye-Ang):
   XX=            -28.8597   YY=            -58.9475   ZZ=            -83.1912
   XY=              0.3343   XZ=             -0.3262   YZ=              0.7232
 Traceless Quadrupole moment (field-independent basis, Debye-Ang):
   XX=             28.1398   YY=             -1.9480   ZZ=            -26.1917
   XY=              0.3343   XZ=             -0.3262   YZ=              0.7232
 Octapole moment (field-independent basis, Debye-Ang**2):
  XXX=             -0.7638  YYY=              5.3775  ZZZ=              0.1772  XYY=             -0.0843
  XXY=             -0.9568  XXZ=              0.3211  XZZ=              0.0093  YZZ=             -3.0455
  YYZ=              0.5898  XYZ=             -0.3459
 Hexadecapole moment (field-independent basis, Debye-Ang**3):
 XXXX=          -2067.1345 YYYY=           -599.4636 ZZZZ=            -97.4583 XXXY=             -2.6862
 XXXZ=             -8.8727 YYYX=              6.1215 YYYZ=              3.4831 ZZZX=             -0.4658
 ZZZY=              0.2059 XXYY=           -511.3857 XXZZ=           -583.2365 YYZZ=           -139.6793
 XXYZ=             14.4802 YYXZ=             -0.3801 ZZXY=             -1.9334
 N-N= 7.891651122923D+02 E-N=-2.815162115229D+03  KE= 5.383209435697D+02
 Unable to Open any file for archive entry.
 1\1\GINC-GADI-CPU-CLX-0572\SP\RM062X TD-FC\6-311++G(d,p)\C14H11(1+)\TS
 1578\27-Jul-2022\0\\#n M062X/6-311++G(d,p) TD(NStates=1) EmpiricalDisp
 ersion=GD3 SP\\SP_-4\\1,1\C,0,2.4927,1.2891,-0.068\C,0,3.7015,0.6267,-
 0.036\C,0,3.6839,-0.7201,-0.048\C,0,2.4632,-1.3629,0.056\C,0,-2.4632,-
 1.3149,0.104\C,0,-3.6839,-0.7441,0.048\C,0,-3.7015,0.6267,0.012\C,0,-2
 .4927,1.3531,-0.068\C,0,0.,1.4381,-0.132\C,0,0.,-1.3335,0.108\C,0,1.26
 21,0.6967,0.001\C,0,1.2375,-0.7071,0.049\C,0,-1.2621,0.7287,-0.065\C,0
 ,-1.2375,-0.6831,0.055\H,0,2.4881,2.3813,-0.072\H,0,4.6368,1.1304,0.02
 7\H,0,4.6093,-1.2907,-0.062\H,0,2.4675,-2.5264,0.06\H,0,0.,-2.4266,0.1
 12\H,0,-2.4675,-2.3824,0.108\H,0,-4.6093,-1.2427,-0.05\H,0,-4.6368,1.2
 024,0.069\H,0,-2.4881,2.4933,-0.072\H,0,0.008,2.0225,-0.9796\H,0,-0.00
 8,2.0225,0.7396\\Version=ES64L-G16RevC.01\State=1-A\HF=-539.7278647\RM
 SD=7.911e-09\PG=C01 [X(C14H11)]\\@
 The archive entry for this job was punched.


 Everything starts as somebody's daydream.
                           -- Larry Niven
 Job cpu time:       0 days  1 hours 14 minutes  2.2 seconds.
 Elapsed time:       0 days  0 hours  2 minutes 20.0 seconds.
 File lengths (MBytes):  RWF=    460 Int=      0 D2E=      0 Chk=     15 Scr=      1
 Normal termination of Gaussian 16 at Wed Jul 27 09:48:01 2022.
