 Entering Gaussian System, Link 0=g16
 Initial command:
 /apps/gaussian/g16c01/g16/l1.exe "/jobfs/52803152.gadi-pbs/Gau-2953701.inp" -scrdir="/jobfs/52803152.gadi-pbs/"
 Entering Link 1 = /apps/gaussian/g16c01/g16/l1.exe PID=   2953702.
  
 Copyright (c) 1988-2019, Gaussian, Inc.  All Rights Reserved.
  
 This is part of the Gaussian(R) 16 program.  It is based on
 the Gaussian(R) 09 system (copyright 2009, Gaussian, Inc.),
 the Gaussian(R) 03 system (copyright 2003, Gaussian, Inc.),
 the Gaussian(R) 98 system (copyright 1998, Gaussian, Inc.),
 the Gaussian(R) 94 system (copyright 1995, Gaussian, Inc.),
 the Gaussian 92(TM) system (copyright 1992, Gaussian, Inc.),
 the Gaussian 90(TM) system (copyright 1990, Gaussian, Inc.),
 the Gaussian 88(TM) system (copyright 1988, Gaussian, Inc.),
 the Gaussian 86(TM) system (copyright 1986, Carnegie Mellon
 University), and the Gaussian 82(TM) system (copyright 1983,
 Carnegie Mellon University). Gaussian is a federally registered
 trademark of Gaussian, Inc.
  
 This software contains proprietary and confidential information,
 including trade secrets, belonging to Gaussian, Inc.
  
 This software is provided under written license and may be
 used, copied, transmitted, or stored only in accord with that
 written license.
  
 The following legend is applicable only to US Government
 contracts under FAR:
  
                    RESTRICTED RIGHTS LEGEND
  
 Use, reproduction and disclosure by the US Government is
 subject to restrictions as set forth in subparagraphs (a)
 and (c) of the Commercial Computer Software - Restricted
 Rights clause in FAR 52.227-19.
  
 Gaussian, Inc.
 340 Quinnipiac St., Bldg. 40, Wallingford CT 06492
  
  
 ---------------------------------------------------------------
 Warning -- This program may not be used in any manner that
 competes with the business of Gaussian, Inc. or will provide
 assistance to any competitor of Gaussian, Inc.  The licensee
 of this program is prohibited from giving any competitor of
 Gaussian, Inc. access to this program.  By using this program,
 the user acknowledges that Gaussian, Inc. is engaged in the
 business of creating and licensing software in the field of
 computational chemistry and represents and warrants to the
 licensee that it is not a competitor of Gaussian, Inc. and that
 it will not use this program in any manner prohibited above.
 ---------------------------------------------------------------
  

 Cite this work as:
 Gaussian 16, Revision C.01,
 M. J. Frisch, G. W. Trucks, H. B. Schlegel, G. E. Scuseria, 
 M. A. Robb, J. R. Cheeseman, G. Scalmani, V. Barone, 
 G. A. Petersson, H. Nakatsuji, X. Li, M. Caricato, A. V. Marenich, 
 J. Bloino, B. G. Janesko, R. Gomperts, B. Mennucci, H. P. Hratchian, 
 J. V. Ortiz, A. F. Izmaylov, J. L. Sonnenberg, D. Williams-Young, 
 F. Ding, F. Lipparini, F. Egidi, J. Goings, B. Peng, A. Petrone, 
 T. Henderson, D. Ranasinghe, V. G. Zakrzewski, J. Gao, N. Rega, 
 G. Zheng, W. Liang, M. Hada, M. Ehara, K. Toyota, R. Fukuda, 
 J. Hasegawa, M. Ishida, T. Nakajima, Y. Honda, O. Kitao, H. Nakai, 
 T. Vreven, K. Throssell, J. A. Montgomery, Jr., J. E. Peralta, 
 F. Ogliaro, M. J. Bearpark, J. J. Heyd, E. N. Brothers, K. N. Kudin, 
 V. N. Staroverov, T. A. Keith, R. Kobayashi, J. Normand, 
 K. Raghavachari, A. P. Rendell, J. C. Burant, S. S. Iyengar, 
 J. Tomasi, M. Cossi, J. M. Millam, M. Klene, C. Adamo, R. Cammi, 
 J. W. Ochterski, R. L. Martin, K. Morokuma, O. Farkas, 
 J. B. Foresman, and D. J. Fox, Gaussian, Inc., Wallingford CT, 2019.
 
 ******************************************
 Gaussian 16:  ES64L-G16RevC.01  3-Jul-2019
                27-Jul-2022 
 ******************************************
 %NProcShared=32
 Will use up to   32 processors via shared memory.
 %mem = 128GB
 ---------------------------------------------------------------
 #n M062X/6-311++G(d,p) TD(NStates=1) EmpiricalDispersion=GD3 SP
 ---------------------------------------------------------------
 1/38=1,172=1/1;
 2/12=2,17=6,18=5,40=1/2;
 3/5=4,6=6,7=1111,11=9,25=1,30=1,74=-55,124=31/1,2,3,8;
 4//1;
 5/5=2,38=5/2;
 8/6=1,10=2,108=1/1;
 9/41=1,42=1,70=2/14;
 6/7=2,8=2,9=2,10=2/1;
 99/5=1,9=1/99;
 ----
 SP_4
 ----
 Symbolic Z-matrix:
 Charge =  1 Multiplicity = 1
 C                     2.4927    1.4491    0.068 
 C                     3.7015    0.7347    0.036 
 C                     3.6839   -0.6901    0.048 
 C                     2.4632   -1.4349   -0.056 
 C                    -2.4632   -1.4829   -0.104 
 C                    -3.6839   -0.6661   -0.048 
 C                    -3.7015    0.7347   -0.012 
 C                    -2.4927    1.3851    0.068 
 C                     0.        1.4861    0.132 
 C                     0.       -1.5075   -0.108 
 C                     1.2621    0.6747   -0.001 
 C                     1.2375   -0.7371   -0.049 
 C                    -1.2621    0.6427    0.065 
 C                    -1.2375   -0.7611   -0.055 
 H                     2.4881    2.5233    0.072 
 H                     4.6368    1.3104   -0.027 
 H                     4.6093   -1.2367    0.062 
 H                     2.4675   -2.4364   -0.06 
 H                     0.       -2.5766   -0.112 
 H                    -2.4675   -2.5804   -0.108 
 H                    -4.6093   -1.2847    0.05 
 H                    -4.6368    1.2384   -0.069 
 H                    -2.4881    2.4113    0.072 
 H                    -0.008     2.2865   -0.7396 
 H                     0.008     2.2865    0.9796 
 
                          Input orientation:                          
 ---------------------------------------------------------------------
 Center     Atomic      Atomic             Coordinates (Angstroms)
 Number     Number       Type             X           Y           Z
 ---------------------------------------------------------------------
      1          6           0        2.492700    1.449100    0.068000
      2          6           0        3.701500    0.734700    0.036000
      3          6           0        3.683900   -0.690100    0.048000
      4          6           0        2.463200   -1.434900   -0.056000
      5          6           0       -2.463200   -1.482900   -0.104000
      6          6           0       -3.683900   -0.666100   -0.048000
      7          6           0       -3.701500    0.734700   -0.012000
      8          6           0       -2.492700    1.385100    0.068000
      9          6           0        0.000000    1.486100    0.132000
     10          6           0        0.000000   -1.507500   -0.108000
     11          6           0        1.262100    0.674700   -0.001000
     12          6           0        1.237500   -0.737100   -0.049000
     13          6           0       -1.262100    0.642700    0.065000
     14          6           0       -1.237500   -0.761100   -0.055000
     15          1           0        2.488100    2.523300    0.072000
     16          1           0        4.636800    1.310400   -0.027000
     17          1           0        4.609300   -1.236700    0.062000
     18          1           0        2.467500   -2.436400   -0.060000
     19          1           0        0.000000   -2.576600   -0.112000
     20          1           0       -2.467500   -2.580400   -0.108000
     21          1           0       -4.609300   -1.284700    0.050000
     22          1           0       -4.636800    1.238400   -0.069000
     23          1           0       -2.488100    2.411300    0.072000
     24          1           0       -0.008000    2.286500   -0.739600
     25          1           0        0.008000    2.286500    0.979600
 ---------------------------------------------------------------------
                    Distance matrix (angstroms):
                    1          2          3          4          5
     1  C    0.000000
     2  C    1.404489   0.000000
     3  C    2.448578   1.424959   0.000000
     4  C    2.886815   2.499803   1.433754   0.000000
     5  C    5.760829   6.552929   6.199877   4.926868   0.000000
     6  C    6.529771   7.517541   7.368464   6.194994   1.469832
     7  C    6.235774   7.403156   7.521821   6.535490   2.541574
     8  C    4.985811   6.228335   6.515922   5.703396   2.873304
     9  C    2.493796   3.778217   4.279488   3.825564   3.864972
    10  C    3.871177   4.330046   3.776718   2.464818   2.463326
    11  C    1.455621   2.440418   2.780323   2.428184   4.306240
    12  C    2.523626   2.871361   2.448773   1.410431   3.775503
    13  C    3.840418   4.964537   5.122457   4.267191   2.447320
    14  C    4.337569   5.161339   4.922990   3.761541   1.423284
    15  H    1.074217   2.161649   3.428768   3.960347   6.371498
    16  H    2.150681   1.100084   2.217125   3.501721   7.630102
    17  H    3.419584   2.170529   1.074864   2.158461   7.078731
    18  H    3.887689   3.404093   2.130929   1.001517   5.022241
    19  H    4.738377   4.968673   4.141932   2.715505   2.695106
    20  H    6.393077   7.004797   6.437180   5.062280   1.097516
    21  H    7.610019   8.552635   8.314489   7.074889   2.160728
    22  H    7.133928   8.354160   8.542064   7.586613   3.482992
    23  H    5.072890   6.412755   6.907448   6.270966   3.898255
    24  H    2.758071   4.095123   4.807347   4.519177   4.543167
    25  H    2.775966   4.115873   4.820816   4.577040   4.635666
                    6          7          8          9         10
     6  C    0.000000
     7  C    1.401373   0.000000
     8  C    2.374834   1.374997   0.000000
     9  C    4.270303   3.779741   2.495566   0.000000
    10  C    3.779242   4.328716   3.822521   3.003205   0.000000
    11  C    5.124731   4.963975   3.822035   1.506305   2.523161
    12  C    4.921912   5.153764   4.293229   2.550840   1.458905
    13  C    2.755148   2.442348   1.437200   1.519444   2.499237
    14  C    2.448254   2.882805   2.489343   2.572214   1.446143
    15  H    6.948400   6.443392   5.109196   2.696298   4.740294
    16  H    8.552254   8.358164   7.130524   4.642851   5.426512
    17  H    8.313534   8.541738   7.570487   5.353895   4.620377
    18  H    6.401080   6.936479   6.262893   4.638041   2.636990
    19  H    4.150328   4.967475   4.684124   4.070021   1.069107
    20  H    2.268871   3.538624   3.969484   4.762623   2.690664
    21  H    1.117423   2.214931   3.407074   5.378634   4.617386
    22  H    2.129690   1.063837   2.153475   4.647760   5.389008
    23  H    3.303745   2.071324   1.026218   2.655228   4.645432
    24  H    4.765333   4.071784   2.763779   1.183381   3.846221
    25  H    4.837761   4.141466   2.810167   1.165817   3.946818
                   11         12         13         14         15
    11  C    0.000000
    12  C    1.412830   0.000000
    13  C    2.525265   2.857419   0.000000
    14  C    2.883130   2.475124   1.409134   0.000000
    15  H    2.219398   3.494116   4.195319   4.968250   0.000000
    16  H    3.434151   3.968373   5.937281   6.228908   2.469380
    17  H    3.855018   3.410419   6.164859   5.867278   4.317081
    18  H    3.336977   2.097771   4.838016   4.066163   4.961499
    19  H    3.489437   2.217912   3.462386   2.197884   5.677453
    20  H    4.951469   4.138630   3.445474   2.196716   7.116047
    21  H    6.189926   5.873222   3.862492   3.413827   8.054467
    22  H    5.926163   6.197613   3.429492   3.943785   7.241205
    23  H    4.133414   4.879258   2.151992   3.412367   4.977460
    24  H    2.180959   3.342208   2.218609   3.356816   2.635391
    25  H    2.265445   3.422257   2.269741   3.451019   2.651548
                   16         17         18         19         20
    16  H    0.000000
    17  H    2.548803   0.000000
    18  H    4.329603   2.457940   0.000000
    19  H    6.051108   4.803255   2.472027   0.000000
    20  H    8.100368   7.205243   4.937334   2.467506   0.000000
    21  H    9.603689   9.218733   7.170747   4.789666   2.508208
    22  H    9.273975   9.572546   7.998457   6.004664   4.392108
    23  H    7.210130   7.980043   6.933656   5.577064   4.994987
    24  H    4.799452   5.863016   5.375476   4.903436   5.489515
    25  H    4.836507   5.867443   5.425467   4.984114   5.567557
                   21         22         23         24         25
    21  H    0.000000
    22  H    2.526054   0.000000
    23  H    4.261501   2.452037   0.000000
    24  H    5.877831   4.793121   2.612502   0.000000
    25  H    5.910760   4.875679   2.658915   1.719274   0.000000
 Stoichiometry    C14H11(1+)
 Framework group  C1[X(C14H11)]
 Deg. of freedom    69
 Full point group                 C1      NOp   1
 Largest Abelian subgroup         C1      NOp   1
 Largest concise Abelian subgroup C1      NOp   1
                         Standard orientation:                         
 ---------------------------------------------------------------------
 Center     Atomic      Atomic             Coordinates (Angstroms)
 Number     Number       Type             X           Y           Z
 ---------------------------------------------------------------------
      1          6           0       -2.501509   -1.425739   -0.014291
      2          6           0       -3.705858   -0.703174   -0.020132
      3          6           0       -3.679941    0.719383    0.058403
      4          6           0       -2.454251    1.460669   -0.003486
      5          6           0        2.472549    1.480437   -0.019884
      6          6           0        3.688045    0.654394    0.005226
      7          6           0        3.697169   -0.746644   -0.024034
      8          6           0        2.484084   -1.392590    0.018355
      9          6           0       -0.009518   -1.481070    0.062744
     10          6           0        0.009610    1.520404   -0.037388
     11          6           0       -1.265964   -0.656577   -0.039779
     12          6           0       -1.232750    0.755747   -0.021742
     13          6           0        1.257921   -0.643273    0.042658
     14          6           0        1.242338    0.764719   -0.011891
     15          1           0       -2.503262   -2.498966   -0.060362
     16          1           0       -4.644122   -1.269528   -0.115474
     17          1           0       -4.602175    1.270440    0.092372
     18          1           0       -2.452627    2.461275    0.039197
     19          1           0        0.015932    2.588509    0.008473
     20          1           0        2.483338    2.576884    0.027327
     21          1           0        4.616444    1.262030    0.137471
     22          1           0        4.629823   -1.252906   -0.098895
     23          1           0        2.473415   -2.417813   -0.025532
     24          1           0       -0.000801   -2.240021   -0.845171
     25          1           0       -0.027513   -2.320032    0.872033
 ---------------------------------------------------------------------
 Rotational constants (GHZ):           2.0057221           0.4445021           0.3647660
 Standard basis: 6-311++G(d,p) (5D, 7F)
 There are   399 symmetry adapted cartesian basis functions of A   symmetry.
 There are   385 symmetry adapted basis functions of A   symmetry.
   385 basis functions,   603 primitive gaussians,   399 cartesian basis functions
    47 alpha electrons       47 beta electrons
       nuclear repulsion energy       772.1884046390 Hartrees.
 NAtoms=   25 NActive=   25 NUniq=   25 SFac= 1.00D+00 NAtFMM=   60 NAOKFM=F Big=F
 Integral buffers will be    131072 words long.
 Regular integral format.
 Two-electron integral symmetry is turned on.
 Nuclear repulsion after empirical dispersion term =      772.1874116950 Hartrees.
 One-electron integrals computed using PRISM.
 NBasis=   385 RedAO= T EigKep=  1.31D-06  NBF=   385
 NBsUse=   380 1.00D-06 EigRej=  7.56D-07 NBFU=   380
 ExpMin= 3.60D-02 ExpMax= 4.56D+03 ExpMxC= 6.82D+02 IAcc=3 IRadAn=         5 AccDes= 0.00D+00
 Harris functional with IExCor= 1009 and IRadAn=       5 diagonalized for initial guess.
 HarFok:  IExCor= 1009 AccDes= 0.00D+00 IRadAn=         5 IDoV= 1 UseB2=F ITyADJ=14
 ICtDFT=  3500011 ScaDFX=  1.000000  1.000000  1.000000  1.000000
 FoFCou: FMM=F IPFlag=           0 FMFlag=      100000 FMFlg1=           0
         NFxFlg=           0 DoJE=T BraDBF=F KetDBF=T FulRan=T
         wScrn=  0.000000 ICntrl=       500 IOpCl=  0 I1Cent=   200000004 NGrid=           0
         NMat0=    1 NMatS0=      1 NMatT0=    0 NMatD0=    1 NMtDS0=    0 NMtDT0=    0
 Petite list used in FoFCou.
 Requested convergence on RMS density matrix=1.00D-08 within 128 cycles.
 Requested convergence on MAX density matrix=1.00D-06.
 Requested convergence on             energy=1.00D-06.
 No special actions if energy rises.
 SCF Done:  E(RM062X) =  -539.711920641     A.U. after   16 cycles
            NFock= 16  Conv=0.83D-08     -V/T= 2.0057
 DoSCS=F DFT=T ScalE2(SS,OS)=  1.000000  1.000000
 ExpMin= 3.60D-02 ExpMax= 4.56D+03 ExpMxC= 6.82D+02 IAcc=3 IRadAn=         5 AccDes= 0.00D+00
 HarFok:  IExCor=  205 AccDes= 0.00D+00 IRadAn=         5 IDoV=-2 UseB2=F ITyADJ=14
 ICtDFT= 12500011 ScaDFX=  1.000000  1.000000  1.000000  1.000000
 Range of M.O.s used for correlation:    15   380
 NBasis=   385 NAE=    47 NBE=    47 NFC=    14 NFV=     0
 NROrb=    366 NOA=    33 NOB=    33 NVA=   333 NVB=   333

 **** Warning!!: The largest alpha MO coefficient is  0.15762257D+03

 Orbital symmetries:
       Occupied  (A) (A) (A) (A) (A) (A) (A) (A) (A) (A) (A) (A)
                 (A) (A) (A) (A) (A) (A) (A) (A) (A) (A) (A) (A)
                 (A) (A) (A) (A) (A) (A) (A) (A) (A) (A) (A) (A)
                 (A) (A) (A) (A) (A) (A) (A) (A) (A) (A) (A)
       Virtual   (A) (A) (A) (A) (A) (A) (A) (A) (A) (A) (A) (A)
                 (A) (A) (A) (A) (A) (A) (A) (A) (A) (A) (A) (A)
                 (A) (A) (A) (A) (A) (A) (A) (A) (A) (A) (A) (A)
                 (A) (A) (A) (A) (A) (A) (A) (A) (A) (A) (A) (A)
                 (A) (A) (A) (A) (A) (A) (A) (A) (A) (A) (A) (A)
                 (A) (A) (A) (A) (A) (A) (A) (A) (A) (A) (A) (A)
                 (A) (A) (A) (A) (A) (A) (A) (A) (A) (A) (A) (A)
                 (A) (A) (A) (A) (A) (A) (A) (A) (A) (A) (A) (A)
                 (A) (A) (A) (A) (A) (A) (A) (A) (A) (A) (A) (A)
                 (A) (A) (A) (A) (A) (A) (A) (A) (A) (A) (A) (A)
                 (A) (A) (A) (A) (A) (A) (A) (A) (A) (A) (A) (A)
                 (A) (A) (A) (A) (A) (A) (A) (A) (A) (A) (A) (A)
                 (A) (A) (A) (A) (A) (A) (A) (A) (A) (A) (A) (A)
                 (A) (A) (A) (A) (A) (A) (A) (A) (A) (A) (A) (A)
                 (A) (A) (A) (A) (A) (A) (A) (A) (A) (A) (A) (A)
                 (A) (A) (A) (A) (A) (A) (A) (A) (A) (A) (A) (A)
                 (A) (A) (A) (A) (A) (A) (A) (A) (A) (A) (A) (A)
                 (A) (A) (A) (A) (A) (A) (A) (A) (A) (A) (A) (A)
                 (A) (A) (A) (A) (A) (A) (A) (A) (A) (A) (A) (A)
                 (A) (A) (A) (A) (A) (A) (A) (A) (A) (A) (A) (A)
                 (A) (A) (A) (A) (A) (A) (A) (A) (A) (A) (A) (A)
                 (A) (A) (A) (A) (A) (A) (A) (A) (A) (A) (A) (A)
                 (A) (A) (A) (A) (A) (A) (A) (A) (A) (A) (A) (A)
                 (A) (A) (A) (A) (A) (A) (A) (A) (A) (A) (A) (A)
                 (A) (A) (A) (A) (A) (A) (A) (A) (A) (A) (A) (A)
                 (A) (A) (A) (A) (A) (A) (A) (A) (A) (A) (A) (A)
                 (A) (A) (A) (A) (A) (A) (A) (A) (A) (A) (A) (A)
                 (A) (A) (A) (A) (A) (A) (A) (A) (A)
     4 initial guesses have been made.
 Convergence on wavefunction:    0.001000000000000
 Iteration     1 Dimension     4 NMult     0 NNew      4
 CISAX will form     4 AO SS matrices at one time.
 Iteration     2 Dimension     6 NMult     4 NNew      2
 Iteration     3 Dimension     8 NMult     6 NNew      2
 Iteration     4 Dimension    10 NMult     8 NNew      2
 Iteration     5 Dimension    12 NMult    10 NNew      2
 Iteration     6 Dimension    14 NMult    12 NNew      2
 ***********************************************************************
 Excited states from <AA,BB:AA,BB> singles matrix:
 ***********************************************************************
 
 Ground to excited state transition densities written to RWF  633
 Ground to excited state transition electric dipole moments (Au):
       state          X           Y           Z        Dip. S.      Osc.
         1         0.0161      0.6719     -0.0019      0.4517      0.0280
 Ground to excited state transition velocity dipole moments (Au):
       state          X           Y           Z        Dip. S.      Osc.
         1        -0.0027     -0.0688      0.0004      0.0047      0.0339
 Ground to excited state transition magnetic dipole moments (Au):
       state          X           Y           Z
         1         0.0131     -0.0075     -0.0414
 Ground to excited state transition velocity quadrupole moments (Au):
       state          XX          YY          ZZ          XY          XZ          YZ
         1        -0.2728     -0.0181      0.0115     -0.0347      0.0040      0.0016
 <0|del|b> * <b|rxdel|0> + <0|del|b> * <b|delr+rdel|0>
 Rotatory Strengths (R) in cgs (10**-40 erg-esu-cm/Gauss)
       state          XX          YY          ZZ    R(velocity)    E-M Angle
         1         2.9018     -0.1632      0.8078      1.1821       81.15
 1/2[<0|r|b>*<b|rxdel|0> + (<0|rxdel|b>*<b|r|0>)*]
 Rotatory Strengths (R) in cgs (10**-40 erg-esu-cm/Gauss)
       state          XX          YY          ZZ     R(length)
         1        -0.1491      3.5857     -0.0558      1.1269
  1/2[<0|del|b>*<b|r|0> + (<0|r|b>*<b|del|0>)*] (Au)
       state          X           Y           Z        Dip. S.   Osc.(frdel)
         1        -0.0000     -0.0462     -0.0000      0.0463      0.0308

 Excitation energies and oscillator strengths:
 
 Excited State   1:      Singlet-A      2.5342 eV  489.24 nm  f=0.0280  <S**2>=0.000
      47 -> 48         0.70460
 This state for optimization and/or second-order correction.
 Total Energy, E(TD-HF/TD-DFT) =  -539.618789617    
 Copying the excited state density for this state as the 1-particle RhoCI density.
 SavETr:  write IOETrn=   770 NScale= 10 NData=  16 NLR=1 NState=    1 LETran=      28.

 **********************************************************************

            Population analysis using the SCF Density.

 **********************************************************************

 Orbital symmetries:
       Occupied  (A) (A) (A) (A) (A) (A) (A) (A) (A) (A) (A) (A)
                 (A) (A) (A) (A) (A) (A) (A) (A) (A) (A) (A) (A)
                 (A) (A) (A) (A) (A) (A) (A) (A) (A) (A) (A) (A)
                 (A) (A) (A) (A) (A) (A) (A) (A) (A) (A) (A)
       Virtual   (A) (A) (A) (A) (A) (A) (A) (A) (A) (A) (A) (A)
                 (A) (A) (A) (A) (A) (A) (A) (A) (A) (A) (A) (A)
                 (A) (A) (A) (A) (A) (A) (A) (A) (A) (A) (A) (A)
                 (A) (A) (A) (A) (A) (A) (A) (A) (A) (A) (A) (A)
                 (A) (A) (A) (A) (A) (A) (A) (A) (A) (A) (A) (A)
                 (A) (A) (A) (A) (A) (A) (A) (A) (A) (A) (A) (A)
                 (A) (A) (A) (A) (A) (A) (A) (A) (A) (A) (A) (A)
                 (A) (A) (A) (A) (A) (A) (A) (A) (A) (A) (A) (A)
                 (A) (A) (A) (A) (A) (A) (A) (A) (A) (A) (A) (A)
                 (A) (A) (A) (A) (A) (A) (A) (A) (A) (A) (A) (A)
                 (A) (A) (A) (A) (A) (A) (A) (A) (A) (A) (A) (A)
                 (A) (A) (A) (A) (A) (A) (A) (A) (A) (A) (A) (A)
                 (A) (A) (A) (A) (A) (A) (A) (A) (A) (A) (A) (A)
                 (A) (A) (A) (A) (A) (A) (A) (A) (A) (A) (A) (A)
                 (A) (A) (A) (A) (A) (A) (A) (A) (A) (A) (A) (A)
                 (A) (A) (A) (A) (A) (A) (A) (A) (A) (A) (A) (A)
                 (A) (A) (A) (A) (A) (A) (A) (A) (A) (A) (A) (A)
                 (A) (A) (A) (A) (A) (A) (A) (A) (A) (A) (A) (A)
                 (A) (A) (A) (A) (A) (A) (A) (A) (A) (A) (A) (A)
                 (A) (A) (A) (A) (A) (A) (A) (A) (A) (A) (A) (A)
                 (A) (A) (A) (A) (A) (A) (A) (A) (A) (A) (A) (A)
                 (A) (A) (A) (A) (A) (A) (A) (A) (A) (A) (A) (A)
                 (A) (A) (A) (A) (A) (A) (A) (A) (A) (A) (A) (A)
                 (A) (A) (A) (A) (A) (A) (A) (A) (A) (A) (A) (A)
                 (A) (A) (A) (A) (A) (A) (A) (A) (A) (A) (A) (A)
                 (A) (A) (A) (A) (A) (A) (A) (A) (A) (A) (A) (A)
                 (A) (A) (A) (A) (A) (A) (A) (A) (A) (A) (A) (A)
                 (A) (A) (A) (A) (A) (A) (A) (A) (A)
 The electronic state is 1-A.
 Alpha  occ. eigenvalues --  -10.78473 -10.74163 -10.73932 -10.73130 -10.73093
 Alpha  occ. eigenvalues --  -10.72661 -10.72300 -10.71524 -10.70863 -10.70718
 Alpha  occ. eigenvalues --  -10.70704 -10.70536 -10.70195 -10.69763  -1.15227
 Alpha  occ. eigenvalues --   -1.11254  -1.06118  -1.04319  -1.01153  -0.98758
 Alpha  occ. eigenvalues --   -0.95240  -0.89799  -0.86721  -0.85033  -0.84097
 Alpha  occ. eigenvalues --   -0.77740  -0.74811  -0.74471  -0.70256  -0.69584
 Alpha  occ. eigenvalues --   -0.68371  -0.67649  -0.65779  -0.65435  -0.64752
 Alpha  occ. eigenvalues --   -0.61991  -0.60941  -0.58802  -0.58522  -0.57822
 Alpha  occ. eigenvalues --   -0.57774  -0.56746  -0.53102  -0.51727  -0.46339
 Alpha  occ. eigenvalues --   -0.45235  -0.43591
 Alpha virt. eigenvalues --   -0.26360  -0.15618  -0.14171  -0.13455  -0.11224
 Alpha virt. eigenvalues --   -0.10287  -0.09161  -0.08356  -0.07862  -0.07525
 Alpha virt. eigenvalues --   -0.07366  -0.07169  -0.05710  -0.05674  -0.05525
 Alpha virt. eigenvalues --   -0.03793  -0.03694  -0.03505  -0.03144  -0.02202
 Alpha virt. eigenvalues --   -0.01449  -0.01075   0.00099   0.00199   0.00602
 Alpha virt. eigenvalues --    0.00809   0.01248   0.01433   0.01665   0.02014
 Alpha virt. eigenvalues --    0.02170   0.02582   0.02686   0.02982   0.03384
 Alpha virt. eigenvalues --    0.04094   0.04259   0.04425   0.04732   0.05251
 Alpha virt. eigenvalues --    0.05593   0.06013   0.06680   0.06854   0.06982
 Alpha virt. eigenvalues --    0.07694   0.07836   0.08261   0.08573   0.08822
 Alpha virt. eigenvalues --    0.09149   0.09435   0.10013   0.10173   0.10424
 Alpha virt. eigenvalues --    0.11123   0.11504   0.11870   0.12134   0.12717
 Alpha virt. eigenvalues --    0.13005   0.13141   0.13374   0.13762   0.14242
 Alpha virt. eigenvalues --    0.15184   0.15759   0.16581   0.16758   0.17156
 Alpha virt. eigenvalues --    0.17414   0.17636   0.18638   0.18988   0.19218
 Alpha virt. eigenvalues --    0.19654   0.20984   0.21494   0.21633   0.21996
 Alpha virt. eigenvalues --    0.23285   0.23544   0.24221   0.26188   0.26506
 Alpha virt. eigenvalues --    0.26691   0.27627   0.28188   0.28494   0.30873
 Alpha virt. eigenvalues --    0.33606   0.34344   0.37025   0.38414   0.39592
 Alpha virt. eigenvalues --    0.41103   0.41322   0.42136   0.42329   0.42887
 Alpha virt. eigenvalues --    0.43259   0.43910   0.44637   0.45171   0.45689
 Alpha virt. eigenvalues --    0.47182   0.48591   0.48676   0.49158   0.49761
 Alpha virt. eigenvalues --    0.50488   0.50695   0.51902   0.52351   0.52753
 Alpha virt. eigenvalues --    0.53350   0.53879   0.54737   0.55382   0.55770
 Alpha virt. eigenvalues --    0.57074   0.57823   0.58090   0.60914   0.61282
 Alpha virt. eigenvalues --    0.62163   0.63010   0.63140   0.63639   0.64131
 Alpha virt. eigenvalues --    0.65286   0.67888   0.68549   0.69990   0.71356
 Alpha virt. eigenvalues --    0.71864   0.73107   0.73792   0.74745   0.75297
 Alpha virt. eigenvalues --    0.76044   0.76292   0.76767   0.78166   0.78940
 Alpha virt. eigenvalues --    0.79800   0.80309   0.80889   0.82286   0.82889
 Alpha virt. eigenvalues --    0.83439   0.85933   0.86634   0.87076   0.87928
 Alpha virt. eigenvalues --    0.89456   0.90481   0.91514   0.93650   0.94736
 Alpha virt. eigenvalues --    0.95089   0.96265   0.99072   0.99285   1.00440
 Alpha virt. eigenvalues --    1.02234   1.02759   1.03425   1.05330   1.07156
 Alpha virt. eigenvalues --    1.09700   1.15801   1.18184   1.21738   1.23479
 Alpha virt. eigenvalues --    1.25828   1.29741   1.32338   1.34860   1.35672
 Alpha virt. eigenvalues --    1.36342   1.37680   1.38609   1.39295   1.40476
 Alpha virt. eigenvalues --    1.41683   1.42227   1.42742   1.43319   1.45048
 Alpha virt. eigenvalues --    1.45755   1.47199   1.48182   1.48786   1.51612
 Alpha virt. eigenvalues --    1.53838   1.54404   1.54965   1.56135   1.57020
 Alpha virt. eigenvalues --    1.60009   1.63474   1.63956   1.64254   1.64656
 Alpha virt. eigenvalues --    1.66009   1.68320   1.69182   1.69234   1.72963
 Alpha virt. eigenvalues --    1.73363   1.74787   1.75437   1.77249   1.78171
 Alpha virt. eigenvalues --    1.79661   1.80222   1.80772   1.81948   1.82628
 Alpha virt. eigenvalues --    1.84080   1.84312   1.85334   1.86305   1.86971
 Alpha virt. eigenvalues --    1.89355   1.91799   1.92867   1.94128   1.96013
 Alpha virt. eigenvalues --    1.96306   1.98437   1.99085   2.03229   2.05029
 Alpha virt. eigenvalues --    2.07132   2.09473   2.12689   2.13508   2.15552
 Alpha virt. eigenvalues --    2.16172   2.18371   2.21119   2.26827   2.29567
 Alpha virt. eigenvalues --    2.31217   2.32489   2.35330   2.37127   2.38305
 Alpha virt. eigenvalues --    2.38637   2.40120   2.42131   2.45869   2.46451
 Alpha virt. eigenvalues --    2.50255   2.54726   2.56884   2.57060   2.58463
 Alpha virt. eigenvalues --    2.59464   2.60687   2.61027   2.61803   2.62573
 Alpha virt. eigenvalues --    2.62890   2.63284   2.63784   2.64571   2.65596
 Alpha virt. eigenvalues --    2.66151   2.67007   2.67594   2.71243   2.72990
 Alpha virt. eigenvalues --    2.73067   2.74625   2.76160   2.79249   2.81470
 Alpha virt. eigenvalues --    2.82195   2.84804   2.85453   2.89994   2.92938
 Alpha virt. eigenvalues --    2.97526   2.97949   2.99682   3.03998   3.08023
 Alpha virt. eigenvalues --    3.09000   3.14301   3.16438   3.21359   3.22587
 Alpha virt. eigenvalues --    3.25166   3.26438   3.28616   3.38359   3.40477
 Alpha virt. eigenvalues --    3.41784   3.44269   3.45557   3.47716   3.51229
 Alpha virt. eigenvalues --    3.65406   3.67046   3.86776   3.91722   3.97450
 Alpha virt. eigenvalues --    3.98670   4.07410   4.08824   4.10790   4.14341
 Alpha virt. eigenvalues --    4.27506   4.52085   4.63452   4.65266  23.46939
 Alpha virt. eigenvalues --   23.60393  23.73923  23.77716  23.80066  23.82866
 Alpha virt. eigenvalues --   23.84680  23.88688  23.90703  23.93205  23.93868
 Alpha virt. eigenvalues --   23.96676  24.02353  24.10831
          Condensed to atoms (all electrons):
               1          2          3          4          5          6
     1  C   15.249803  -1.348743  -0.992076   2.868152  -0.522170   0.055623
     2  C   -1.348743   7.237870   0.161611  -1.471826   0.053926  -0.028958
     3  C   -0.992076   0.161611   6.625392   0.946120  -0.033898   0.005011
     4  C    2.868152  -1.471826   0.946120  11.313315  -0.573572  -0.046058
     5  C   -0.522170   0.053926  -0.033898  -0.573572  11.639586  -0.078337
     6  C    0.055623  -0.028958   0.005011  -0.046058  -0.078337   6.955534
     7  C    0.049667   0.002828  -0.014980   0.016643  -1.111551   0.229063
     8  C   -0.735674   0.090820  -0.007516  -0.175715   3.279517  -1.345795
     9  C    0.484133  -0.974303   0.289411   0.785089  -0.858525   0.011893
    10  C    0.066603   0.090526  -0.591577  -2.217876  -0.348210  -0.600359
    11  C   -6.416163   0.638534   1.355096  -1.272896  -0.625997  -0.039661
    12  C   -3.859076   1.897849  -1.122057  -3.365732   0.884187  -0.673325
    13  C    0.226641  -0.075459  -0.066499  -1.311153  -1.191897   1.612335
    14  C    0.859552  -0.335177  -0.418536   0.276299  -4.689883   0.022322
    15  H    0.490369  -0.128579   0.005922   0.045534  -0.002614   0.002020
    16  H   -0.096020   0.412636  -0.016223  -0.010736  -0.000401  -0.000429
    17  H   -0.042946  -0.035685   0.408702  -0.074583   0.000352   0.000191
    18  H    0.105109   0.003823  -0.148780   0.483600  -0.001419  -0.003176
    19  H   -0.026100  -0.009110   0.034874  -0.042358  -0.031725   0.050207
    20  H   -0.001324   0.002784  -0.003593   0.000688   0.488570  -0.127697
    21  H    0.000295  -0.000551   0.000363   0.000921  -0.086947   0.383682
    22  H    0.001198   0.000483  -0.000344  -0.001128  -0.010382  -0.026768
    23  H   -0.010291  -0.001574   0.001917   0.000853   0.039477   0.000370
    24  H   -0.066708   0.031129  -0.001628  -0.015653  -0.001225  -0.015524
    25  H    0.048488  -0.013012  -0.000632  -0.005862  -0.000141   0.012730
               7          8          9         10         11         12
     1  C    0.049667  -0.735674   0.484133   0.066603  -6.416163  -3.859076
     2  C    0.002828   0.090820  -0.974303   0.090526   0.638534   1.897849
     3  C   -0.014980  -0.007516   0.289411  -0.591577   1.355096  -1.122057
     4  C    0.016643  -0.175715   0.785089  -2.217876  -1.272896  -3.365732
     5  C   -1.111551   3.279517  -0.858525  -0.348210  -0.625997   0.884187
     6  C    0.229063  -1.345795   0.011893  -0.600359  -0.039661  -0.673325
     7  C    6.802699   0.033524  -0.180611   0.012107  -0.218207  -0.091803
     8  C    0.033524  11.154845  -0.989432   0.160919   0.927177  -0.030233
     9  C   -0.180611  -0.989432   9.006689   0.486322  -0.681508  -2.102925
    10  C    0.012107   0.160919   0.486322   8.570334  -0.817831   1.235144
    11  C   -0.218207   0.927177  -0.681508  -0.817831  19.623633  -3.466511
    12  C   -0.091803  -0.030233  -2.102925   1.235144  -3.466511  20.163530
    13  C   -0.650066  -2.539848   0.641231  -0.425658   2.245803  -4.360178
    14  C    1.204284  -4.178865  -0.172518  -0.064110  -5.224419   0.242548
    15  H   -0.001227  -0.015922   0.088482  -0.003062  -0.149742  -0.022259
    16  H    0.000349   0.001933  -0.007733  -0.007296   0.062650  -0.004074
    17  H   -0.000243   0.000242   0.003502  -0.004319   0.035869   0.054579
    18  H    0.002339  -0.000495  -0.022129   0.079480  -0.093550  -0.086100
    19  H   -0.012463  -0.026850   0.050927   0.407347   0.050983  -0.101852
    20  H    0.011708   0.068381  -0.021513   0.088462  -0.009213   0.042013
    21  H   -0.022645  -0.032394  -0.004571   0.005618  -0.002951  -0.002273
    22  H    0.414960  -0.060103   0.000720  -0.008683   0.004530  -0.006904
    23  H   -0.129685   0.436929   0.051636   0.000030   0.015963   0.008196
    24  H    0.009176   0.086335   0.374185   0.010584   0.112038  -0.057209
    25  H    0.003177  -0.032066   0.335735   0.004144  -0.053103  -0.012783
              13         14         15         16         17         18
     1  C    0.226641   0.859552   0.490369  -0.096020  -0.042946   0.105109
     2  C   -0.075459  -0.335177  -0.128579   0.412636  -0.035685   0.003823
     3  C   -0.066499  -0.418536   0.005922  -0.016223   0.408702  -0.148780
     4  C   -1.311153   0.276299   0.045534  -0.010736  -0.074583   0.483600
     5  C   -1.191897  -4.689883  -0.002614  -0.000401   0.000352  -0.001419
     6  C    1.612335   0.022322   0.002020  -0.000429   0.000191  -0.003176
     7  C   -0.650066   1.204284  -0.001227   0.000349  -0.000243   0.002339
     8  C   -2.539848  -4.178865  -0.015922   0.001933   0.000242  -0.000495
     9  C    0.641231  -0.172518   0.088482  -0.007733   0.003502  -0.022129
    10  C   -0.425658  -0.064110  -0.003062  -0.007296  -0.004319   0.079480
    11  C    2.245803  -5.224419  -0.149742   0.062650   0.035869  -0.093550
    12  C   -4.360178   0.242548  -0.022259  -0.004074   0.054579  -0.086100
    13  C   14.549664  -2.306842  -0.002582   0.001946  -0.001334  -0.016962
    14  C   -2.306842  20.186383   0.027835  -0.009050  -0.003979   0.045588
    15  H   -0.002582   0.027835   0.453631  -0.012460   0.001227   0.000552
    16  H    0.001946  -0.009050  -0.012460   0.424505  -0.007365   0.002178
    17  H   -0.001334  -0.003979   0.001227  -0.007365   0.431806  -0.016511
    18  H   -0.016962   0.045588   0.000552   0.002178  -0.016511   0.488810
    19  H    0.058354  -0.030480   0.000396  -0.000478   0.001310  -0.008480
    20  H   -0.042859  -0.162269  -0.000126   0.000033  -0.000146   0.001227
    21  H    0.001680   0.096318   0.000024  -0.000009   0.000013  -0.000174
    22  H    0.046969  -0.017908  -0.000145   0.000012  -0.000007   0.000032
    23  H   -0.029354  -0.052355   0.000772  -0.000153   0.000029  -0.000228
    24  H   -0.028033  -0.097368  -0.008992   0.001551  -0.000286   0.000531
    25  H    0.032786   0.008287   0.004690  -0.000146   0.000131  -0.000522
              19         20         21         22         23         24
     1  C   -0.026100  -0.001324   0.000295   0.001198  -0.010291  -0.066708
     2  C   -0.009110   0.002784  -0.000551   0.000483  -0.001574   0.031129
     3  C    0.034874  -0.003593   0.000363  -0.000344   0.001917  -0.001628
     4  C   -0.042358   0.000688   0.000921  -0.001128   0.000853  -0.015653
     5  C   -0.031725   0.488570  -0.086947  -0.010382   0.039477  -0.001225
     6  C    0.050207  -0.127697   0.383682  -0.026768   0.000370  -0.015524
     7  C   -0.012463   0.011708  -0.022645   0.414960  -0.129685   0.009176
     8  C   -0.026850   0.068381  -0.032394  -0.060103   0.436929   0.086335
     9  C    0.050927  -0.021513  -0.004571   0.000720   0.051636   0.374185
    10  C    0.407347   0.088462   0.005618  -0.008683   0.000030   0.010584
    11  C    0.050983  -0.009213  -0.002951   0.004530   0.015963   0.112038
    12  C   -0.101852   0.042013  -0.002273  -0.006904   0.008196  -0.057209
    13  C    0.058354  -0.042859   0.001680   0.046969  -0.029354  -0.028033
    14  C   -0.030480  -0.162269   0.096318  -0.017908  -0.052355  -0.097368
    15  H    0.000396  -0.000126   0.000024  -0.000145   0.000772  -0.008992
    16  H   -0.000478   0.000033  -0.000009   0.000012  -0.000153   0.001551
    17  H    0.001310  -0.000146   0.000013  -0.000007   0.000029  -0.000286
    18  H   -0.008480   0.001227  -0.000174   0.000032  -0.000228   0.000531
    19  H    0.433712  -0.006780   0.001711  -0.000668   0.000698   0.000136
    20  H   -0.006780   0.453757  -0.010837   0.002057   0.000203   0.000218
    21  H    0.001711  -0.010837   0.434101  -0.008215   0.001271  -0.000477
    22  H   -0.000668   0.002057  -0.008215   0.428282  -0.012390   0.001651
    23  H    0.000698   0.000203   0.001271  -0.012390   0.456013  -0.000444
    24  H    0.000136   0.000218  -0.000477   0.001651  -0.000444   0.491596
    25  H    0.000657  -0.000040   0.000351  -0.000461  -0.002705  -0.084140
              25
     1  C    0.048488
     2  C   -0.013012
     3  C   -0.000632
     4  C   -0.005862
     5  C   -0.000141
     6  C    0.012730
     7  C    0.003177
     8  C   -0.032066
     9  C    0.335735
    10  C    0.004144
    11  C   -0.053103
    12  C   -0.012783
    13  C    0.032786
    14  C    0.008287
    15  H    0.004690
    16  H   -0.000146
    17  H    0.000131
    18  H   -0.000522
    19  H    0.000657
    20  H   -0.000040
    21  H    0.000351
    22  H   -0.000461
    23  H   -0.002705
    24  H   -0.084140
    25  H    0.475664
 Mulliken charges:
               1
     1  C   -0.388342
     2  C   -0.201842
     3  C   -0.416081
     4  C   -0.152067
     5  C   -0.216721
     6  C   -0.354895
     7  C   -0.359044
     8  C   -0.069712
     9  C   -0.594187
    10  C   -0.128638
    11  C   -0.000524
    12  C    0.837247
    13  C   -0.368683
    14  C    0.794346
    15  H    0.226258
    16  H    0.264779
    17  H    0.249454
    18  H    0.185257
    19  H    0.206031
    20  H    0.226296
    21  H    0.245697
    22  H    0.253214
    23  H    0.224821
    24  H    0.258559
    25  H    0.278776
 Sum of Mulliken charges =   1.00000
 Mulliken charges with hydrogens summed into heavy atoms:
               1
     1  C   -0.162083
     2  C    0.062938
     3  C   -0.166627
     4  C    0.033190
     5  C    0.009574
     6  C   -0.109198
     7  C   -0.105830
     8  C    0.155109
     9  C   -0.056852
    10  C    0.077393
    11  C   -0.000524
    12  C    0.837247
    13  C   -0.368683
    14  C    0.794346
 Electronic spatial extent (au):  <R**2>=           2888.0587
 Charge=              1.0000 electrons
 Dipole moment (field-independent basis, Debye):
    X=             -0.0284    Y=              0.0873    Z=             -0.0130  Tot=              0.0927
 Quadrupole moment (field-independent basis, Debye-Ang):
   XX=            -33.4025   YY=            -53.5156   ZZ=            -85.1135
   XY=              0.3710   XZ=              0.3941   YZ=              0.7154
 Traceless Quadrupole moment (field-independent basis, Debye-Ang):
   XX=             23.9414   YY=              3.8283   ZZ=            -27.7697
   XY=              0.3710   XZ=              0.3941   YZ=              0.7154
 Octapole moment (field-independent basis, Debye-Ang**2):
  XXX=             -1.5148  YYY=              4.7645  ZZZ=              0.0534  XYY=              0.0292
  XXY=             -8.9153  XXZ=             -0.0068  XZZ=              0.0606  YZZ=             -3.0205
  YYZ=              0.5630  XYZ=              0.3099
 Hexadecapole moment (field-independent basis, Debye-Ang**3):
 XXXX=          -2185.1679 YYYY=           -621.4658 ZZZZ=           -103.0493 XXXY=             -5.0855
 XXXZ=              9.2922 YYYX=              7.2068 YYYZ=              3.1217 ZZZX=              0.3898
 ZZZY=              0.4766 XXYY=           -507.9733 XXZZ=           -596.5953 YYZZ=           -153.1642
 XXYZ=             15.0965 YYXZ=              1.1941 ZZXY=             -1.7552
 N-N= 7.721874116950D+02 E-N=-2.780086518946D+03  KE= 5.366794029917D+02
 Unable to Open any file for archive entry.
 1\1\GINC-GADI-CPU-CLX-0572\SP\RM062X TD-FC\6-311++G(d,p)\C14H11(1+)\TS
 1578\27-Jul-2022\0\\#n M062X/6-311++G(d,p) TD(NStates=1) EmpiricalDisp
 ersion=GD3 SP\\SP_4\\1,1\C,0,2.4927,1.4491,0.068\C,0,3.7015,0.7347,0.0
 36\C,0,3.6839,-0.6901,0.048\C,0,2.4632,-1.4349,-0.056\C,0,-2.4632,-1.4
 829,-0.104\C,0,-3.6839,-0.6661,-0.048\C,0,-3.7015,0.7347,-0.012\C,0,-2
 .4927,1.3851,0.068\C,0,0.,1.4861,0.132\C,0,0.,-1.5075,-0.108\C,0,1.262
 1,0.6747,-0.001\C,0,1.2375,-0.7371,-0.049\C,0,-1.2621,0.6427,0.065\C,0
 ,-1.2375,-0.7611,-0.055\H,0,2.4881,2.5233,0.072\H,0,4.6368,1.3104,-0.0
 27\H,0,4.6093,-1.2367,0.062\H,0,2.4675,-2.4364,-0.06\H,0,0.,-2.5766,-0
 .112\H,0,-2.4675,-2.5804,-0.108\H,0,-4.6093,-1.2847,0.05\H,0,-4.6368,1
 .2384,-0.069\H,0,-2.4881,2.4113,0.072\H,0,-0.008,2.2865,-0.7396\H,0,0.
 008,2.2865,0.9796\\Version=ES64L-G16RevC.01\State=1-A\HF=-539.7119206\
 RMSD=8.282e-09\PG=C01 [X(C14H11)]\\@
 The archive entry for this job was punched.


      TO SUSPECT YOUR OWN MORTALITY IS TO KNOW THE BEGINNING OF TERROR.
      TO LEARN IRREFUTABLY THAT YOU ARE MORTAL IS TO KNOW THE END
      OF TERROR.

                                                  -- JESSICA
                                                     CHILDREN OF DUNE
                                                     BY FRANK HERBERT
 Job cpu time:       0 days  1 hours 12 minutes 38.5 seconds.
 Elapsed time:       0 days  0 hours  2 minutes 20.0 seconds.
 File lengths (MBytes):  RWF=    461 Int=      0 D2E=      0 Chk=     15 Scr=      1
 Normal termination of Gaussian 16 at Wed Jul 27 12:11:18 2022.
