 Entering Gaussian System, Link 0=g16
 Initial command:
 /apps/gaussian/g16c01/g16/l1.exe "/jobfs/52803152.gadi-pbs/Gau-2822215.inp" -scrdir="/jobfs/52803152.gadi-pbs/"
 Entering Link 1 = /apps/gaussian/g16c01/g16/l1.exe PID=   2822216.
  
 Copyright (c) 1988-2019, Gaussian, Inc.  All Rights Reserved.
  
 This is part of the Gaussian(R) 16 program.  It is based on
 the Gaussian(R) 09 system (copyright 2009, Gaussian, Inc.),
 the Gaussian(R) 03 system (copyright 2003, Gaussian, Inc.),
 the Gaussian(R) 98 system (copyright 1998, Gaussian, Inc.),
 the Gaussian(R) 94 system (copyright 1995, Gaussian, Inc.),
 the Gaussian 92(TM) system (copyright 1992, Gaussian, Inc.),
 the Gaussian 90(TM) system (copyright 1990, Gaussian, Inc.),
 the Gaussian 88(TM) system (copyright 1988, Gaussian, Inc.),
 the Gaussian 86(TM) system (copyright 1986, Carnegie Mellon
 University), and the Gaussian 82(TM) system (copyright 1983,
 Carnegie Mellon University). Gaussian is a federally registered
 trademark of Gaussian, Inc.
  
 This software contains proprietary and confidential information,
 including trade secrets, belonging to Gaussian, Inc.
  
 This software is provided under written license and may be
 used, copied, transmitted, or stored only in accord with that
 written license.
  
 The following legend is applicable only to US Government
 contracts under FAR:
  
                    RESTRICTED RIGHTS LEGEND
  
 Use, reproduction and disclosure by the US Government is
 subject to restrictions as set forth in subparagraphs (a)
 and (c) of the Commercial Computer Software - Restricted
 Rights clause in FAR 52.227-19.
  
 Gaussian, Inc.
 340 Quinnipiac St., Bldg. 40, Wallingford CT 06492
  
  
 ---------------------------------------------------------------
 Warning -- This program may not be used in any manner that
 competes with the business of Gaussian, Inc. or will provide
 assistance to any competitor of Gaussian, Inc.  The licensee
 of this program is prohibited from giving any competitor of
 Gaussian, Inc. access to this program.  By using this program,
 the user acknowledges that Gaussian, Inc. is engaged in the
 business of creating and licensing software in the field of
 computational chemistry and represents and warrants to the
 licensee that it is not a competitor of Gaussian, Inc. and that
 it will not use this program in any manner prohibited above.
 ---------------------------------------------------------------
  

 Cite this work as:
 Gaussian 16, Revision C.01,
 M. J. Frisch, G. W. Trucks, H. B. Schlegel, G. E. Scuseria, 
 M. A. Robb, J. R. Cheeseman, G. Scalmani, V. Barone, 
 G. A. Petersson, H. Nakatsuji, X. Li, M. Caricato, A. V. Marenich, 
 J. Bloino, B. G. Janesko, R. Gomperts, B. Mennucci, H. P. Hratchian, 
 J. V. Ortiz, A. F. Izmaylov, J. L. Sonnenberg, D. Williams-Young, 
 F. Ding, F. Lipparini, F. Egidi, J. Goings, B. Peng, A. Petrone, 
 T. Henderson, D. Ranasinghe, V. G. Zakrzewski, J. Gao, N. Rega, 
 G. Zheng, W. Liang, M. Hada, M. Ehara, K. Toyota, R. Fukuda, 
 J. Hasegawa, M. Ishida, T. Nakajima, Y. Honda, O. Kitao, H. Nakai, 
 T. Vreven, K. Throssell, J. A. Montgomery, Jr., J. E. Peralta, 
 F. Ogliaro, M. J. Bearpark, J. J. Heyd, E. N. Brothers, K. N. Kudin, 
 V. N. Staroverov, T. A. Keith, R. Kobayashi, J. Normand, 
 K. Raghavachari, A. P. Rendell, J. C. Burant, S. S. Iyengar, 
 J. Tomasi, M. Cossi, J. M. Millam, M. Klene, C. Adamo, R. Cammi, 
 J. W. Ochterski, R. L. Martin, K. Morokuma, O. Farkas, 
 J. B. Foresman, and D. J. Fox, Gaussian, Inc., Wallingford CT, 2019.
 
 ******************************************
 Gaussian 16:  ES64L-G16RevC.01  3-Jul-2019
                27-Jul-2022 
 ******************************************
 %NProcShared=32
 Will use up to   32 processors via shared memory.
 %mem = 128GB
 ---------------------------------------------------------------
 #n M062X/6-311++G(d,p) TD(NStates=1) EmpiricalDispersion=GD3 SP
 ---------------------------------------------------------------
 1/38=1,172=1/1;
 2/12=2,17=6,18=5,40=1/2;
 3/5=4,6=6,7=1111,11=9,25=1,30=1,74=-55,124=31/1,2,3,8;
 4//1;
 5/5=2,38=5/2;
 8/6=1,10=2,108=1/1;
 9/41=1,42=1,70=2/14;
 6/7=2,8=2,9=2,10=2/1;
 99/5=1,9=1/99;
 ----
 SP_0
 ----
 Symbolic Z-matrix:
 Charge =  1 Multiplicity = 1
 C                     2.4927    1.3851    0. 
 C                     3.7015    0.6987    0.008 
 C                     3.6839   -0.6961    0.016 
 C                     2.4632   -1.4189    0.008 
 C                    -2.4632   -1.4189   -0.008 
 C                    -3.6839   -0.6961   -0.016 
 C                    -3.7015    0.6987   -0.008 
 C                    -2.4927    1.3851    0. 
 C                     0.        1.4701    0. 
 C                     0.       -1.4495    0. 
 C                     1.2621    0.6767   -0.011 
 C                     1.2375   -0.7311    0.001 
 C                    -1.2621    0.6767    0.011 
 C                    -1.2375   -0.7311   -0.001 
 H                     2.4881    2.4573    0. 
 H                     4.6368    1.2384    0.007 
 H                     4.6093   -1.2627    0.002 
 H                     2.4675   -2.4904    0.008 
 H                     0.       -2.5266    0. 
 H                    -2.4675   -2.4904   -0.008 
 H                    -4.6093   -1.2627   -0.002 
 H                    -4.6368    1.2384   -0.007 
 H                    -2.4881    2.4573    0. 
 H                     0.        2.1985   -0.8596 
 H                     0.        2.1985    0.8596 
 
                          Input orientation:                          
 ---------------------------------------------------------------------
 Center     Atomic      Atomic             Coordinates (Angstroms)
 Number     Number       Type             X           Y           Z
 ---------------------------------------------------------------------
      1          6           0        2.492700    1.385100    0.000000
      2          6           0        3.701500    0.698700    0.008000
      3          6           0        3.683900   -0.696100    0.016000
      4          6           0        2.463200   -1.418900    0.008000
      5          6           0       -2.463200   -1.418900   -0.008000
      6          6           0       -3.683900   -0.696100   -0.016000
      7          6           0       -3.701500    0.698700   -0.008000
      8          6           0       -2.492700    1.385100    0.000000
      9          6           0        0.000000    1.470100    0.000000
     10          6           0        0.000000   -1.449500    0.000000
     11          6           0        1.262100    0.676700   -0.011000
     12          6           0        1.237500   -0.731100    0.001000
     13          6           0       -1.262100    0.676700    0.011000
     14          6           0       -1.237500   -0.731100   -0.001000
     15          1           0        2.488100    2.457300    0.000000
     16          1           0        4.636800    1.238400    0.007000
     17          1           0        4.609300   -1.262700    0.002000
     18          1           0        2.467500   -2.490400    0.008000
     19          1           0        0.000000   -2.526600    0.000000
     20          1           0       -2.467500   -2.490400   -0.008000
     21          1           0       -4.609300   -1.262700   -0.002000
     22          1           0       -4.636800    1.238400   -0.007000
     23          1           0       -2.488100    2.457300    0.000000
     24          1           0        0.000000    2.198500   -0.859600
     25          1           0        0.000000    2.198500    0.859600
 ---------------------------------------------------------------------
                    Distance matrix (angstroms):
                    1          2          3          4          5
     1  C    0.000000
     2  C    1.390110   0.000000
     3  C    2.398042   1.394934   0.000000
     4  C    2.804167   2.453083   1.418666   0.000000
     5  C    5.694157   6.518283   6.189495   4.926426   0.000000
     6  C    6.517825   7.515995   7.367869   6.189495   1.418666
     7  C    6.232120   7.403017   7.515995   6.518283   2.453083
     8  C    4.985400   6.232120   6.517825   5.694157   2.804167
     9  C    2.494149   3.781035   4.273616   3.796543   3.796543
    10  C    3.774720   4.279711   3.760184   2.463403   2.463403
    11  C    1.419975   2.439573   2.783958   2.415480   4.274273
    12  C    2.460453   2.848802   2.446696   1.405510   3.764084
    13  C    3.821057   4.963650   5.132984   4.274273   2.415480
    14  C    4.288671   5.141802   4.921554   3.764084   1.405510
    15  H    1.072210   2.136604   3.372555   3.876288   6.288113
    16  H    2.149124   1.079844   2.156476   3.433043   7.580994
    17  H    3.389815   2.161302   1.085171   2.151785   7.074232
    18  H    3.875590   3.419520   2.167765   1.071509   5.045807
    19  H    4.638421   4.909555   4.113649   2.700818   2.700818
    20  H    6.294692   6.944579   6.407793   5.045807   1.071509
    21  H    7.579529   8.539121   8.312552   7.074232   2.151785
    22  H    7.131013   8.355761   8.542650   7.580994   3.433043
    23  H    5.094898   6.434585   6.930929   6.288113   3.876288
    24  H    2.759363   4.086959   4.766183   4.461577   4.458493
    25  H    2.759363   4.083592   4.760409   4.458493   4.461577
                    6          7          8          9         10
     6  C    0.000000
     7  C    1.394934   0.000000
     8  C    2.398042   1.390110   0.000000
     9  C    4.273616   3.781035   2.494149   0.000000
    10  C    3.760184   4.279711   3.774720   2.919600   0.000000
    11  C    5.132984   4.963650   3.821057   1.490805   2.472599
    12  C    4.921554   5.141802   4.288671   2.525211   1.430911
    13  C    2.783958   2.439573   1.419975   1.490805   2.472599
    14  C    2.446696   2.848802   2.460453   2.525211   1.430911
    15  H    6.930929   6.434585   5.094898   2.676790   4.631817
    16  H    8.542650   8.355761   7.131013   4.642591   5.359549
    17  H    8.312552   8.539121   7.579529   5.358530   4.613084
    18  H    6.407793   6.944579   6.294692   4.666281   2.678076
    19  H    4.113649   4.909555   4.638421   3.996700   1.077100
    20  H    2.167765   3.419520   3.875590   4.666281   2.678076
    21  H    1.085171   2.161302   3.389815   5.358530   4.613084
    22  H    2.156476   1.079844   2.149124   4.642591   5.359549
    23  H    3.372555   2.136604   1.072210   2.676790   4.631817
    24  H    4.760409   4.083592   2.759363   1.126711   3.747908
    25  H    4.766183   4.086959   2.759363   1.126711   3.747908
                   11         12         13         14         15
    11  C    0.000000
    12  C    1.408066   0.000000
    13  C    2.524296   2.868798   0.000000
    14  C    2.868798   2.475001   1.408066   0.000000
    15  H    2.161882   3.424894   4.151464   4.903671   0.000000
    16  H    3.421174   3.928639   5.925584   6.195675   2.470360
    17  H    3.868487   3.413449   6.183421   5.870918   4.282277
    18  H    3.388786   2.146645   4.892898   4.101493   4.947749
    19  H    3.442985   2.180648   3.442985   2.180648   5.570449
    20  H    4.892898   4.101493   3.388786   2.146645   7.002697
    21  H    6.183421   5.870918   3.868487   3.413449   8.013207
    22  H    5.925584   6.195675   3.421174   3.928639   7.228414
    23  H    4.151464   4.903671   2.161882   3.424894   4.976200
    24  H    2.151486   3.294631   2.160258   3.294109   2.645096
    25  H    2.160258   3.294109   2.151486   3.294631   2.645096
                   16         17         18         19         20
    16  H    0.000000
    17  H    2.501256   0.000000
    18  H    4.313909   2.468722   0.000000
    19  H    5.972871   4.779445   2.467778   0.000000
    20  H    8.023419   7.182510   4.935026   2.467778   0.000000
    21  H    9.578410   9.218601   7.182510   4.779445   2.468722
    22  H    9.273611   9.578410   8.023419   5.972871   4.313909
    23  H    7.228414   8.013207   7.002697   5.570449   4.947749
    24  H    4.813803   5.828199   5.369085   4.802654   5.366522
    25  H    4.811303   5.827609   5.366522   4.802654   5.369085
                   21         22         23         24         25
    21  H    0.000000
    22  H    2.501256   0.000000
    23  H    4.282277   2.470360   0.000000
    24  H    5.827609   4.811303   2.645096   0.000000
    25  H    5.828199   4.813803   2.645096   1.719200   0.000000
 Stoichiometry    C14H11(1+)
 Framework group  C2[C2(HCC),X(C12H10)]
 Deg. of freedom    34
 Full point group                 C2      NOp   2
 Largest Abelian subgroup         C2      NOp   2
 Largest concise Abelian subgroup C2      NOp   2
                         Standard orientation:                         
 ---------------------------------------------------------------------
 Center     Atomic      Atomic             Coordinates (Angstroms)
 Number     Number       Type             X           Y           Z
 ---------------------------------------------------------------------
      1          6           0        0.000000    2.492700    1.376132
      2          6           0        0.008000    3.701500    0.689732
      3          6           0        0.016000    3.683900   -0.705068
      4          6           0        0.008000    2.463200   -1.427868
      5          6           0       -0.008000   -2.463200   -1.427868
      6          6           0       -0.016000   -3.683900   -0.705068
      7          6           0       -0.008000   -3.701500    0.689732
      8          6           0       -0.000000   -2.492700    1.376132
      9          6           0       -0.000000    0.000000    1.461132
     10          6           0        0.000000   -0.000000   -1.458468
     11          6           0       -0.011000    1.262100    0.667732
     12          6           0        0.001000    1.237500   -0.740068
     13          6           0        0.011000   -1.262100    0.667732
     14          6           0       -0.001000   -1.237500   -0.740068
     15          1           0        0.000000    2.488100    2.448332
     16          1           0        0.007000    4.636800    1.229432
     17          1           0        0.002000    4.609300   -1.271668
     18          1           0        0.008000    2.467500   -2.499368
     19          1           0        0.000000   -0.000000   -2.535568
     20          1           0       -0.008000   -2.467500   -2.499368
     21          1           0       -0.002000   -4.609300   -1.271668
     22          1           0       -0.007000   -4.636800    1.229432
     23          1           0       -0.000000   -2.488100    2.448332
     24          1           0       -0.859600    0.000000    2.189532
     25          1           0        0.859600   -0.000000    2.189532
 ---------------------------------------------------------------------
 Rotational constants (GHZ):           2.0941947           0.4446134           0.3675480
 Standard basis: 6-311++G(d,p) (5D, 7F)
 There are   204 symmetry adapted cartesian basis functions of A   symmetry.
 There are   195 symmetry adapted cartesian basis functions of B   symmetry.
 There are   196 symmetry adapted basis functions of A   symmetry.
 There are   189 symmetry adapted basis functions of B   symmetry.
   385 basis functions,   603 primitive gaussians,   399 cartesian basis functions
    47 alpha electrons       47 beta electrons
       nuclear repulsion energy       778.3501533729 Hartrees.
 NAtoms=   25 NActive=   25 NUniq=   14 SFac= 3.19D+00 NAtFMM=   60 NAOKFM=F Big=F
 Integral buffers will be    131072 words long.
 Regular integral format.
 Two-electron integral symmetry is turned on.
 Nuclear repulsion after empirical dispersion term =      778.3491694263 Hartrees.
 One-electron integrals computed using PRISM.
 NBasis=   385 RedAO= T EigKep=  1.18D-06  NBF=   196   189
 NBsUse=   379 1.00D-06 EigRej=  9.34D-07 NBFU=   193   186
 ExpMin= 3.60D-02 ExpMax= 4.56D+03 ExpMxC= 6.82D+02 IAcc=3 IRadAn=         5 AccDes= 0.00D+00
 Harris functional with IExCor= 1009 and IRadAn=       5 diagonalized for initial guess.
 HarFok:  IExCor= 1009 AccDes= 0.00D+00 IRadAn=         5 IDoV= 1 UseB2=F ITyADJ=14
 ICtDFT=  3500011 ScaDFX=  1.000000  1.000000  1.000000  1.000000
 FoFCou: FMM=F IPFlag=           0 FMFlag=      100000 FMFlg1=           0
         NFxFlg=           0 DoJE=T BraDBF=F KetDBF=T FulRan=T
         wScrn=  0.000000 ICntrl=       500 IOpCl=  0 I1Cent=   200000004 NGrid=           0
         NMat0=    1 NMatS0=      1 NMatT0=    0 NMatD0=    1 NMtDS0=    0 NMtDT0=    0
 Petite list used in FoFCou.
 Initial guess orbital symmetries:
       Occupied  (B) (A) (A) (B) (A) (B) (A) (B) (A) (A) (B) (A)
                 (B) (A) (A) (B) (A) (A) (B) (B) (A) (A) (B) (A)
                 (B) (A) (B) (A) (A) (B) (B) (A) (B) (B) (A) (B)
                 (A) (A) (B) (A) (B) (B) (A) (B) (A) (A) (B)
       Virtual   (B) (B) (A) (A) (B) (A) (B) (A) (A) (B) (A) (B)
                 (A) (B) (A) (B) (A) (B) (B) (A) (A) (B) (B) (A)
                 (B) (A) (B) (A) (A) (A) (B) (A) (B) (B) (B) (A)
                 (A) (A) (A) (B) (A) (B) (B) (B) (A) (B) (A) (B)
                 (B) (A) (B) (A) (A) (A) (B) (A) (A) (B) (B) (B)
                 (B) (A) (B) (A) (A) (B) (B) (B) (A) (A) (B) (A)
                 (A) (B) (B) (A) (A) (A) (B) (A) (A) (B) (B) (B)
                 (A) (B) (A) (A) (B) (A) (B) (A) (B) (A) (A) (B)
                 (B) (A) (B) (B) (A) (A) (B) (B) (A) (B) (A) (B)
                 (A) (A) (B) (B) (B) (A) (B) (A) (B) (A) (B) (A)
                 (A) (B) (A) (B) (A) (A) (B) (B) (A) (B) (A) (A)
                 (B) (A) (A) (B) (A) (B) (A) (B) (A) (B) (B) (A)
                 (A) (B) (B) (A) (B) (B) (A) (A) (B) (A) (B) (B)
                 (A) (B) (A) (A) (A) (B) (A) (A) (B) (B) (A) (A)
                 (B) (B) (A) (B) (A) (A) (B) (A) (B) (B) (A) (B)
                 (B) (A) (B) (A) (B) (B) (A) (A) (A) (B) (A) (A)
                 (A) (B) (A) (B) (B) (A) (B) (B) (A) (B) (B) (A)
                 (B) (A) (B) (B) (A) (A) (A) (A) (A) (B) (B) (A)
                 (A) (B) (A) (B) (B) (A) (B) (B) (B) (A) (B) (B)
                 (A) (B) (A) (A) (B) (A) (A) (B) (B) (B) (A) (A)
                 (B) (A) (B) (A) (B) (A) (A) (B) (A) (B) (B) (A)
                 (B) (B) (A) (B) (A) (B) (A) (A) (A) (B) (B) (A)
                 (A) (B) (A) (A) (B) (A) (B) (B) (B) (A) (B) (A)
                 (B) (B) (A) (A) (A) (B) (B) (A) (B) (A) (B) (B)
                 (A) (A) (B) (A) (B) (A) (A) (B) (A) (A) (B) (B)
                 (A) (B) (A) (B) (B) (A) (A) (B) (A) (B) (A) (A)
                 (B) (A) (B) (B) (B) (A) (A) (B) (A) (A) (B) (B)
                 (A) (A) (B) (A) (B) (A) (A) (B)
 The electronic state of the initial guess is 1-A.
 Requested convergence on RMS density matrix=1.00D-08 within 128 cycles.
 Requested convergence on MAX density matrix=1.00D-06.
 Requested convergence on             energy=1.00D-06.
 No special actions if energy rises.
 SCF Done:  E(RM062X) =  -539.754589779     A.U. after   15 cycles
            NFock= 15  Conv=0.47D-08     -V/T= 2.0047
 DoSCS=F DFT=T ScalE2(SS,OS)=  1.000000  1.000000
 ExpMin= 3.60D-02 ExpMax= 4.56D+03 ExpMxC= 6.82D+02 IAcc=3 IRadAn=         5 AccDes= 0.00D+00
 HarFok:  IExCor=  205 AccDes= 0.00D+00 IRadAn=         5 IDoV=-2 UseB2=F ITyADJ=14
 ICtDFT= 12500011 ScaDFX=  1.000000  1.000000  1.000000  1.000000
 Range of M.O.s used for correlation:    15   379
 NBasis=   385 NAE=    47 NBE=    47 NFC=    14 NFV=     0
 NROrb=    365 NOA=    33 NOB=    33 NVA=   332 NVB=   332

 **** Warning!!: The largest alpha MO coefficient is  0.14322432D+03

 Orbital symmetries:
       Occupied  (A) (B) (A) (B) (A) (A) (B) (A) (B) (A) (B) (A)
                 (B) (A) (A) (B) (A) (A) (B) (B) (A) (A) (A) (B)
                 (B) (A) (B) (A) (A) (B) (A) (B) (B) (B) (A) (B)
                 (A) (B) (A) (A) (B) (A) (B) (B) (A) (A) (B)
       Virtual   (B) (B) (A) (A) (A) (A) (B) (B) (A) (B) (A) (B)
                 (B) (A) (B) (B) (A) (A) (B) (A) (B) (A) (A) (A)
                 (B) (B) (A) (B) (B) (A) (A) (B) (A) (B) (A) (B)
                 (B) (A) (B) (A) (A) (A) (B) (B) (B) (A) (A) (A)
                 (B) (B) (B) (A) (A) (B) (B) (A) (B) (A) (B) (A)
                 (A) (A) (B) (A) (B) (A) (B) (A) (B) (B) (A) (B)
                 (A) (A) (B) (A) (B) (B) (A) (B) (A) (A) (B) (B)
                 (A) (A) (B) (A) (B) (A) (B) (A) (B) (A) (B) (A)
                 (B) (A) (B) (B) (A) (B) (B) (A) (B) (A) (A) (A)
                 (B) (A) (B) (B) (B) (B) (A) (A) (A) (A) (B) (B)
                 (B) (A) (A) (B) (A) (A) (B) (A) (B) (B) (A) (B)
                 (A) (A) (A) (A) (B) (B) (B) (A) (A) (B) (B) (A)
                 (A) (B) (B) (A) (B) (A) (B) (B) (A) (B) (A) (A)
                 (B) (A) (A) (B) (A) (B) (A) (B) (A) (A) (B) (B)
                 (A) (B) (A) (B) (A) (B) (A) (A) (B) (B) (A) (B)
                 (A) (B) (A) (B) (A) (B) (A) (B) (A) (B) (A) (A)
                 (A) (B) (A) (B) (B) (B) (A) (B) (B) (A) (B) (A)
                 (B) (A) (B) (B) (A) (A) (A) (A) (B) (A) (B) (A)
                 (B) (A) (A) (B) (B) (A) (B) (B) (B) (B) (A) (B)
                 (A) (B) (A) (A) (B) (A) (A) (B) (B) (B) (A) (A)
                 (B) (A) (B) (A) (B) (A) (A) (B) (A) (A) (B) (B)
                 (B) (B) (A) (B) (A) (B) (A) (A) (B) (A) (A) (A)
                 (B) (B) (A) (B) (B) (A) (B) (A) (A) (B) (A) (B)
                 (B) (B) (A) (A) (B) (A) (B) (A) (B) (A) (B) (A)
                 (A) (B) (B) (A) (B) (A) (A) (A) (B) (A) (B) (B)
                 (A) (B) (A) (B) (A) (B) (A) (B) (A) (B) (A) (A)
                 (B) (A) (B) (B) (B) (A) (A) (B) (A) (A) (B) (A)
                 (B) (A) (B) (A) (B) (A) (A) (B)
     4 initial guesses have been made.
 Convergence on wavefunction:    0.001000000000000
 Iteration     1 Dimension     4 NMult     0 NNew      4
 CISAX will form     4 AO SS matrices at one time.
 Iteration     2 Dimension     6 NMult     4 NNew      2
 Iteration     3 Dimension     8 NMult     6 NNew      2
 Iteration     4 Dimension    10 NMult     8 NNew      2
 Iteration     5 Dimension    12 NMult    10 NNew      2
 Iteration     6 Dimension    14 NMult    12 NNew      2
 ***********************************************************************
 Excited states from <AA,BB:AA,BB> singles matrix:
 ***********************************************************************
 
 Ground to excited state transition densities written to RWF  633
 Ground to excited state transition electric dipole moments (Au):
       state          X           Y           Z        Dip. S.      Osc.
         1         0.0000     -0.0000      0.6544      0.4282      0.0287
 Ground to excited state transition velocity dipole moments (Au):
       state          X           Y           Z        Dip. S.      Osc.
         1         0.0000      0.0000     -0.0731      0.0054      0.0355
 Ground to excited state transition magnetic dipole moments (Au):
       state          X           Y           Z
         1        -0.0000      0.0000     -0.0031
 Ground to excited state transition velocity quadrupole moments (Au):
       state          XX          YY          ZZ          XY          XZ          YZ
         1        -0.0106      0.2917      0.0300      0.0023     -0.0000     -0.0000
 <0|del|b> * <b|rxdel|0> + <0|del|b> * <b|delr+rdel|0>
 Rotatory Strengths (R) in cgs (10**-40 erg-esu-cm/Gauss)
       state          XX          YY          ZZ    R(velocity)    E-M Angle
         1         0.1946      1.3811      0.0000      0.5253       90.00
 1/2[<0|r|b>*<b|rxdel|0> + (<0|rxdel|b>*<b|r|0>)*]
 Rotatory Strengths (R) in cgs (10**-40 erg-esu-cm/Gauss)
       state          XX          YY          ZZ     R(length)
         1         0.0000      0.0000      1.4170      0.4723
  1/2[<0|del|b>*<b|r|0> + (<0|r|b>*<b|del|0>)*] (Au)
       state          X           Y           Z        Dip. S.   Osc.(frdel)
         1         0.0000     -0.0000     -0.0479      0.0479      0.0319

 Excitation energies and oscillator strengths:
 
 Excited State   1:      Singlet-A      2.7354 eV  453.26 nm  f=0.0287  <S**2>=0.000
      47 -> 48         0.70441
 This state for optimization and/or second-order correction.
 Total Energy, E(TD-HF/TD-DFT) =  -539.654067198    
 Copying the excited state density for this state as the 1-particle RhoCI density.
 SavETr:  write IOETrn=   770 NScale= 10 NData=  16 NLR=1 NState=    1 LETran=      28.

 **********************************************************************

            Population analysis using the SCF Density.

 **********************************************************************

 Orbital symmetries:
       Occupied  (A) (B) (A) (B) (A) (A) (B) (A) (B) (A) (B) (A)
                 (B) (A) (A) (B) (A) (A) (B) (B) (A) (A) (A) (B)
                 (B) (A) (B) (A) (A) (B) (A) (B) (B) (B) (A) (B)
                 (A) (B) (A) (A) (B) (A) (B) (B) (A) (A) (B)
       Virtual   (B) (B) (A) (A) (A) (A) (B) (B) (A) (B) (A) (B)
                 (B) (A) (B) (B) (A) (A) (B) (A) (B) (A) (A) (A)
                 (B) (B) (A) (B) (B) (A) (A) (B) (A) (B) (A) (B)
                 (B) (A) (B) (A) (A) (A) (B) (B) (B) (A) (A) (A)
                 (B) (B) (B) (A) (A) (B) (B) (A) (B) (A) (B) (A)
                 (A) (A) (B) (A) (B) (A) (B) (A) (B) (B) (A) (B)
                 (A) (A) (B) (A) (B) (B) (A) (B) (A) (A) (B) (B)
                 (A) (A) (B) (A) (B) (A) (B) (A) (B) (A) (B) (A)
                 (B) (A) (B) (B) (A) (B) (B) (A) (B) (A) (A) (A)
                 (B) (A) (B) (B) (B) (B) (A) (A) (A) (A) (B) (B)
                 (B) (A) (A) (B) (A) (A) (B) (A) (B) (B) (A) (B)
                 (A) (A) (A) (A) (B) (B) (B) (A) (A) (B) (B) (A)
                 (A) (B) (B) (A) (B) (A) (B) (B) (A) (B) (A) (A)
                 (B) (A) (A) (B) (A) (B) (A) (B) (A) (A) (B) (B)
                 (A) (B) (A) (B) (A) (B) (A) (A) (B) (B) (A) (B)
                 (A) (B) (A) (B) (A) (B) (A) (B) (A) (B) (A) (A)
                 (A) (B) (A) (B) (B) (B) (A) (B) (B) (A) (B) (A)
                 (B) (A) (B) (B) (A) (A) (A) (A) (B) (A) (B) (A)
                 (B) (A) (A) (B) (B) (A) (B) (B) (B) (B) (A) (B)
                 (A) (B) (A) (A) (B) (A) (A) (B) (B) (B) (A) (A)
                 (B) (A) (B) (A) (B) (A) (A) (B) (A) (A) (B) (B)
                 (B) (B) (A) (B) (A) (B) (A) (A) (B) (A) (A) (A)
                 (B) (B) (A) (B) (B) (A) (B) (A) (A) (B) (A) (B)
                 (B) (B) (A) (A) (B) (A) (B) (A) (B) (A) (B) (A)
                 (A) (B) (B) (A) (B) (A) (A) (A) (B) (A) (B) (B)
                 (A) (B) (A) (B) (A) (B) (A) (B) (A) (B) (A) (A)
                 (B) (A) (B) (B) (B) (A) (A) (B) (A) (A) (B) (A)
                 (B) (A) (B) (A) (B) (A) (A) (B)
 The electronic state is 1-A.
 Alpha  occ. eigenvalues --  -10.77937 -10.73484 -10.73484 -10.72640 -10.72638
 Alpha  occ. eigenvalues --  -10.71515 -10.71426 -10.71426 -10.71026 -10.71026
 Alpha  occ. eigenvalues --  -10.70050 -10.70050 -10.69850 -10.69850  -1.16057
 Alpha  occ. eigenvalues --   -1.12063  -1.06633  -1.05289  -1.01279  -0.99718
 Alpha  occ. eigenvalues --   -0.95616  -0.90631  -0.86525  -0.85621  -0.83915
 Alpha  occ. eigenvalues --   -0.78173  -0.75643  -0.74460  -0.69571  -0.69301
 Alpha  occ. eigenvalues --   -0.68412  -0.68245  -0.67284  -0.64869  -0.64723
 Alpha  occ. eigenvalues --   -0.62344  -0.61925  -0.59470  -0.59376  -0.58798
 Alpha  occ. eigenvalues --   -0.57236  -0.55781  -0.54314  -0.52233  -0.46478
 Alpha  occ. eigenvalues --   -0.45871  -0.44221
 Alpha virt. eigenvalues --   -0.26170  -0.14983  -0.14062  -0.13003  -0.11184
 Alpha virt. eigenvalues --   -0.10145  -0.09203  -0.08039  -0.07930  -0.07489
 Alpha virt. eigenvalues --   -0.07211  -0.07198  -0.05651  -0.05606  -0.05387
 Alpha virt. eigenvalues --   -0.03765  -0.03595  -0.03335  -0.03187  -0.02185
 Alpha virt. eigenvalues --   -0.01317  -0.00956   0.00146   0.00631   0.00643
 Alpha virt. eigenvalues --    0.00983   0.01499   0.01787   0.02067   0.02227
 Alpha virt. eigenvalues --    0.02433   0.02646   0.02663   0.03196   0.03394
 Alpha virt. eigenvalues --    0.04231   0.04494   0.04702   0.04803   0.05330
 Alpha virt. eigenvalues --    0.05968   0.06223   0.06651   0.07049   0.07195
 Alpha virt. eigenvalues --    0.07878   0.08035   0.08365   0.08510   0.08918
 Alpha virt. eigenvalues --    0.09425   0.09529   0.10095   0.10797   0.10985
 Alpha virt. eigenvalues --    0.11091   0.12026   0.12238   0.12773   0.12918
 Alpha virt. eigenvalues --    0.13359   0.13575   0.13924   0.14242   0.15620
 Alpha virt. eigenvalues --    0.16097   0.16307   0.17243   0.17471   0.17789
 Alpha virt. eigenvalues --    0.17910   0.18759   0.19110   0.19599   0.19776
 Alpha virt. eigenvalues --    0.21352   0.21581   0.22215   0.22814   0.23653
 Alpha virt. eigenvalues --    0.23663   0.24273   0.25024   0.26752   0.27273
 Alpha virt. eigenvalues --    0.28594   0.29147   0.29420   0.30936   0.35182
 Alpha virt. eigenvalues --    0.35865   0.37802   0.39119   0.41229   0.41392
 Alpha virt. eigenvalues --    0.41614   0.41938   0.43098   0.43472   0.44304
 Alpha virt. eigenvalues --    0.44500   0.44545   0.45565   0.45940   0.47380
 Alpha virt. eigenvalues --    0.48661   0.48771   0.49131   0.50473   0.51067
 Alpha virt. eigenvalues --    0.51314   0.51587   0.52291   0.52972   0.53581
 Alpha virt. eigenvalues --    0.54035   0.54713   0.55589   0.55701   0.56917
 Alpha virt. eigenvalues --    0.58196   0.58484   0.61373   0.62060   0.62087
 Alpha virt. eigenvalues --    0.63237   0.63395   0.64744   0.64813   0.66716
 Alpha virt. eigenvalues --    0.69713   0.70444   0.70615   0.72134   0.72684
 Alpha virt. eigenvalues --    0.75574   0.76000   0.76130   0.76697   0.76710
 Alpha virt. eigenvalues --    0.77642   0.77825   0.78254   0.79916   0.80277
 Alpha virt. eigenvalues --    0.80798   0.81425   0.82261   0.82776   0.84960
 Alpha virt. eigenvalues --    0.87029   0.87819   0.88702   0.88747   0.90140
 Alpha virt. eigenvalues --    0.90568   0.91334   0.93462   0.94551   0.96116
 Alpha virt. eigenvalues --    0.96339   0.99770   1.01377   1.01475   1.02621
 Alpha virt. eigenvalues --    1.02947   1.03566   1.04382   1.04846   1.08870
 Alpha virt. eigenvalues --    1.18493   1.23026   1.23122   1.24281   1.26946
 Alpha virt. eigenvalues --    1.29291   1.31867   1.34327   1.35763   1.36009
 Alpha virt. eigenvalues --    1.39235   1.39304   1.40394   1.42538   1.42707
 Alpha virt. eigenvalues --    1.43027   1.44499   1.44510   1.45807   1.46292
 Alpha virt. eigenvalues --    1.47388   1.48111   1.50524   1.52925   1.55492
 Alpha virt. eigenvalues --    1.55858   1.55959   1.56229   1.57036   1.61122
 Alpha virt. eigenvalues --    1.63614   1.63788   1.64354   1.65657   1.67021
 Alpha virt. eigenvalues --    1.68454   1.68906   1.69371   1.74155   1.75543
 Alpha virt. eigenvalues --    1.76579   1.77829   1.78961   1.79438   1.79888
 Alpha virt. eigenvalues --    1.82351   1.82774   1.83007   1.83608   1.83815
 Alpha virt. eigenvalues --    1.84051   1.85749   1.85939   1.87794   1.90854
 Alpha virt. eigenvalues --    1.91956   1.93920   1.94825   1.97002   1.98338
 Alpha virt. eigenvalues --    1.98391   2.01273   2.04845   2.05902   2.10287
 Alpha virt. eigenvalues --    2.11219   2.13886   2.14604   2.17974   2.19739
 Alpha virt. eigenvalues --    2.21292   2.26665   2.29505   2.33113   2.34532
 Alpha virt. eigenvalues --    2.35509   2.38760   2.39464   2.40864   2.42375
 Alpha virt. eigenvalues --    2.44440   2.44765   2.49633   2.51623   2.52746
 Alpha virt. eigenvalues --    2.54915   2.57537   2.57615   2.58036   2.59399
 Alpha virt. eigenvalues --    2.59794   2.61197   2.62368   2.63162   2.63311
 Alpha virt. eigenvalues --    2.64376   2.64500   2.64894   2.65234   2.67024
 Alpha virt. eigenvalues --    2.68563   2.69576   2.70945   2.73146   2.74315
 Alpha virt. eigenvalues --    2.76036   2.77120   2.79462   2.82522   2.83354
 Alpha virt. eigenvalues --    2.83712   2.85607   2.91405   2.96154   2.98852
 Alpha virt. eigenvalues --    2.99357   3.03498   3.09000   3.10924   3.11126
 Alpha virt. eigenvalues --    3.19102   3.21559   3.25173   3.26961   3.29127
 Alpha virt. eigenvalues --    3.31018   3.31627   3.42548   3.44833   3.46227
 Alpha virt. eigenvalues --    3.47863   3.48122   3.54910   3.57099   3.66429
 Alpha virt. eigenvalues --    3.67379   3.93548   3.94155   3.95431   3.96654
 Alpha virt. eigenvalues --    4.05366   4.07778   4.08931   4.12616   4.33280
 Alpha virt. eigenvalues --    4.58563   4.68494   4.70366  23.46053  23.60660
 Alpha virt. eigenvalues --   23.81095  23.82228  23.85949  23.88424  23.88454
 Alpha virt. eigenvalues --   23.90266  23.95764  23.97101  23.98049  23.98338
 Alpha virt. eigenvalues --   24.08339  24.08586
          Condensed to atoms (all electrons):
               1          2          3          4          5          6
     1  C    8.109413   0.508685  -0.518701   1.469505   0.032361  -0.083389
     2  C    0.508685   7.069980   0.314850  -1.026348  -0.024101  -0.014909
     3  C   -0.518701   0.314850   6.551984   0.893064  -0.117509   0.015286
     4  C    1.469505  -1.026348   0.893064  10.402453  -0.338286  -0.117509
     5  C    0.032361  -0.024101  -0.117509  -0.338286  10.402453   0.893064
     6  C   -0.083389  -0.014909   0.015286  -0.117509   0.893064   6.551984
     7  C   -0.038339   0.004305  -0.014909  -0.024101  -1.026348   0.314850
     8  C    0.331296  -0.038339  -0.083389   0.032361   1.469505  -0.518701
     9  C   -1.309368  -0.715099   0.252881  -0.227168  -0.227168   0.252881
    10  C   -0.975861   0.236028  -0.384854  -2.413498  -2.413498  -0.384854
    11  C    0.358751  -1.078486   1.028346   0.062903  -1.351111  -0.159974
    12  C   -1.476209   1.293266  -1.409849  -1.319126  -0.382578  -0.234248
    13  C    0.153358  -0.238349  -0.159974  -1.351111   0.062903   1.028346
    14  C   -1.022699  -0.158212  -0.234248  -0.382578  -1.319126  -1.409849
    15  H    0.362995  -0.112733   0.000949   0.025695   0.005555   0.001155
    16  H   -0.024215   0.380529  -0.018577   0.011329  -0.001437  -0.000347
    17  H   -0.016085  -0.022943   0.372823  -0.061648   0.000424   0.000402
    18  H    0.042454   0.008647  -0.087544   0.440897   0.006820  -0.005106
    19  H   -0.040247  -0.008225   0.047772  -0.058138  -0.058138   0.047772
    20  H    0.007277   0.002022  -0.005106   0.006820   0.440897  -0.087544
    21  H   -0.001195  -0.000404   0.000402   0.000424  -0.061648   0.372823
    22  H    0.000784   0.000386  -0.000347  -0.001437   0.011329  -0.018577
    23  H    0.005307  -0.002819   0.001155   0.005555   0.025695   0.000949
    24  H    0.025090   0.013747  -0.000252  -0.010033  -0.010263  -0.002798
    25  H    0.023186   0.010017  -0.002798  -0.010263  -0.010033  -0.000252
               7          8          9         10         11         12
     1  C   -0.038339   0.331296  -1.309368  -0.975861   0.358751  -1.476209
     2  C    0.004305  -0.038339  -0.715099   0.236028  -1.078486   1.293266
     3  C   -0.014909  -0.083389   0.252881  -0.384854   1.028346  -1.409849
     4  C   -0.024101   0.032361  -0.227168  -2.413498   0.062903  -1.319126
     5  C   -1.026348   1.469505  -0.227168  -2.413498  -1.351111  -0.382578
     6  C    0.314850  -0.518701   0.252881  -0.384854  -0.159974  -0.234248
     7  C    7.069980   0.508685  -0.715099   0.236028  -0.238349  -0.158212
     8  C    0.508685   8.109413  -1.309368  -0.975861   0.153358  -1.022699
     9  C   -0.715099  -1.309368   9.232304   0.253347   1.645337  -1.666160
    10  C    0.236028  -0.975861   0.253347   8.893425  -0.529851   2.208064
    11  C   -0.238349   0.153358   1.645337  -0.529851  14.423668  -4.419032
    12  C   -0.158212  -1.022699  -1.666160   2.208064  -4.419032  15.840370
    13  C   -1.078486   0.358751   1.645337  -0.529851   1.589120  -4.993342
    14  C    1.293266  -1.476209  -1.666160   2.208064  -4.993342   3.286423
    15  H   -0.002819   0.005307   0.092680  -0.009800  -0.014359  -0.031649
    16  H    0.000386   0.000784   0.004732  -0.008544   0.032620  -0.035233
    17  H   -0.000404  -0.001195  -0.005016   0.018188  -0.025784   0.083603
    18  H    0.002022   0.007277  -0.024970   0.022341  -0.017164  -0.036669
    19  H   -0.008225  -0.040247   0.067637   0.416768   0.071188  -0.067156
    20  H    0.008647   0.042454  -0.024970   0.022341  -0.010202  -0.008173
    21  H   -0.022943  -0.016085  -0.005016   0.018188  -0.006107   0.004745
    22  H    0.380529  -0.024215   0.004732  -0.008544   0.003241  -0.008911
    23  H   -0.112733   0.362995   0.092680  -0.009800   0.003788   0.006819
    24  H    0.010017   0.023186   0.356920   0.006575   0.017035  -0.048594
    25  H    0.013747   0.025090   0.356920   0.006575   0.010457  -0.055941
              13         14         15         16         17         18
     1  C    0.153358  -1.022699   0.362995  -0.024215  -0.016085   0.042454
     2  C   -0.238349  -0.158212  -0.112733   0.380529  -0.022943   0.008647
     3  C   -0.159974  -0.234248   0.000949  -0.018577   0.372823  -0.087544
     4  C   -1.351111  -0.382578   0.025695   0.011329  -0.061648   0.440897
     5  C    0.062903  -1.319126   0.005555  -0.001437   0.000424   0.006820
     6  C    1.028346  -1.409849   0.001155  -0.000347   0.000402  -0.005106
     7  C   -1.078486   1.293266  -0.002819   0.000386  -0.000404   0.002022
     8  C    0.358751  -1.476209   0.005307   0.000784  -0.001195   0.007277
     9  C    1.645337  -1.666160   0.092680   0.004732  -0.005016  -0.024970
    10  C   -0.529851   2.208064  -0.009800  -0.008544   0.018188   0.022341
    11  C    1.589120  -4.993342  -0.014359   0.032620  -0.025784  -0.017164
    12  C   -4.993342   3.286423  -0.031649  -0.035233   0.083603  -0.036669
    13  C   14.423668  -4.419032   0.003788   0.003241  -0.006107  -0.010202
    14  C   -4.419032  15.840370   0.006819  -0.008911   0.004745  -0.008173
    15  H    0.003788   0.006819   0.440551  -0.009853   0.001523   0.000163
    16  H    0.003241  -0.008911  -0.009853   0.420931  -0.006823   0.002014
    17  H   -0.006107   0.004745   0.001523  -0.006823   0.423617  -0.010714
    18  H   -0.010202  -0.008173   0.000163   0.002014  -0.010714   0.455314
    19  H    0.071188  -0.067156   0.000379  -0.000520   0.001346  -0.006496
    20  H   -0.017164  -0.036669  -0.000116   0.000019  -0.000151   0.001441
    21  H   -0.025784   0.083603   0.000014  -0.000007   0.000011  -0.000151
    22  H    0.032620  -0.035233  -0.000138   0.000009  -0.000007   0.000019
    23  H   -0.014359  -0.031649   0.000792  -0.000138   0.000014  -0.000116
    24  H    0.010457  -0.055941  -0.001766   0.000629  -0.000078   0.000186
    25  H    0.017035  -0.048594  -0.000530   0.000658  -0.000187   0.000106
              19         20         21         22         23         24
     1  C   -0.040247   0.007277  -0.001195   0.000784   0.005307   0.025090
     2  C   -0.008225   0.002022  -0.000404   0.000386  -0.002819   0.013747
     3  C    0.047772  -0.005106   0.000402  -0.000347   0.001155  -0.000252
     4  C   -0.058138   0.006820   0.000424  -0.001437   0.005555  -0.010033
     5  C   -0.058138   0.440897  -0.061648   0.011329   0.025695  -0.010263
     6  C    0.047772  -0.087544   0.372823  -0.018577   0.000949  -0.002798
     7  C   -0.008225   0.008647  -0.022943   0.380529  -0.112733   0.010017
     8  C   -0.040247   0.042454  -0.016085  -0.024215   0.362995   0.023186
     9  C    0.067637  -0.024970  -0.005016   0.004732   0.092680   0.356920
    10  C    0.416768   0.022341   0.018188  -0.008544  -0.009800   0.006575
    11  C    0.071188  -0.010202  -0.006107   0.003241   0.003788   0.017035
    12  C   -0.067156  -0.008173   0.004745  -0.008911   0.006819  -0.048594
    13  C    0.071188  -0.017164  -0.025784   0.032620  -0.014359   0.010457
    14  C   -0.067156  -0.036669   0.083603  -0.035233  -0.031649  -0.055941
    15  H    0.000379  -0.000116   0.000014  -0.000138   0.000792  -0.001766
    16  H   -0.000520   0.000019  -0.000007   0.000009  -0.000138   0.000629
    17  H    0.001346  -0.000151   0.000011  -0.000007   0.000014  -0.000078
    18  H   -0.006496   0.001441  -0.000151   0.000019  -0.000116   0.000186
    19  H    0.437814  -0.006496   0.001346  -0.000520   0.000379   0.000541
    20  H   -0.006496   0.455314  -0.010714   0.002014   0.000163   0.000106
    21  H    0.001346  -0.010714   0.423617  -0.006823   0.001523  -0.000187
    22  H   -0.000520   0.002014  -0.006823   0.420931  -0.009853   0.000658
    23  H    0.000379   0.000163   0.001523  -0.009853   0.440551  -0.000530
    24  H    0.000541   0.000106  -0.000187   0.000658  -0.000530   0.495003
    25  H    0.000541   0.000186  -0.000078   0.000629  -0.001766  -0.085485
              25
     1  C    0.023186
     2  C    0.010017
     3  C   -0.002798
     4  C   -0.010263
     5  C   -0.010033
     6  C   -0.000252
     7  C    0.013747
     8  C    0.025090
     9  C    0.356920
    10  C    0.006575
    11  C    0.010457
    12  C   -0.055941
    13  C    0.017035
    14  C   -0.048594
    15  H   -0.000530
    16  H    0.000658
    17  H   -0.000187
    18  H    0.000106
    19  H    0.000541
    20  H    0.000186
    21  H   -0.000078
    22  H    0.000629
    23  H   -0.001766
    24  H   -0.085485
    25  H    0.495003
 Mulliken charges:
               1
     1  C    0.075844
     2  C   -0.401495
     3  C   -0.441456
     4  C   -0.009761
     5  C   -0.009761
     6  C   -0.441456
     7  C   -0.401495
     8  C    0.075844
     9  C   -0.362825
    10  C    0.098883
    11  C   -0.556052
    12  C    0.650491
    13  C   -0.556052
    14  C    0.650491
    15  H    0.235400
    16  H    0.256726
    17  H    0.250445
    18  H    0.217605
    19  H    0.196892
    20  H    0.217605
    21  H    0.250445
    22  H    0.256726
    23  H    0.235400
    24  H    0.255777
    25  H    0.255777
 Sum of Mulliken charges =   1.00000
 Mulliken charges with hydrogens summed into heavy atoms:
               1
     1  C    0.311244
     2  C   -0.144768
     3  C   -0.191011
     4  C    0.207845
     5  C    0.207845
     6  C   -0.191011
     7  C   -0.144768
     8  C    0.311244
     9  C    0.148728
    10  C    0.295775
    11  C   -0.556052
    12  C    0.650491
    13  C   -0.556052
    14  C    0.650491
 Electronic spatial extent (au):  <R**2>=           2865.8717
 Charge=              1.0000 electrons
 Dipole moment (field-independent basis, Debye):
    X=             -0.0000    Y=              0.0000    Z=             -0.1557  Tot=              0.1557
 Quadrupole moment (field-independent basis, Debye-Ang):
   XX=            -84.4670   YY=            -31.8709   ZZ=            -55.3593
   XY=             -0.0210   XZ=             -0.0000   YZ=             -0.0000
 Traceless Quadrupole moment (field-independent basis, Debye-Ang):
   XX=            -27.2346   YY=             25.3615   ZZ=              1.8731
   XY=             -0.0210   XZ=             -0.0000   YZ=             -0.0000
 Octapole moment (field-independent basis, Debye-Ang**2):
  XXX=              0.0000  YYY=             -0.0000  ZZZ=             -5.1033  XYY=              0.0000
  XXY=              0.0000  XXZ=              3.0804  XZZ=              0.0000  YZZ=              0.0000
  YYZ=              6.4850  XYZ=              0.1046
 Hexadecapole moment (field-independent basis, Debye-Ang**3):
 XXXX=           -100.3140 YYYY=          -2142.1819 ZZZZ=           -613.0299 XXXY=             -3.5917
 XXXZ=              0.0000 YYYX=             -3.8432 YYYZ=              0.0000 ZZZX=             -0.0000
 ZZZY=              0.0000 XXYY=           -593.0118 XXZZ=           -147.9983 YYZZ=           -507.2394
 XXYZ=             -0.0000 YYXZ=             -0.0000 ZZXY=             -1.0391
 N-N= 7.783491694263D+02 E-N=-2.792847517096D+03  KE= 5.372325632743D+02
 Symmetry A    KE= 3.019003110235D+02
 Symmetry B    KE= 2.353322522508D+02
 Unable to Open any file for archive entry.
 1\1\GINC-GADI-CPU-CLX-0572\SP\RM062X TD-FC\6-311++G(d,p)\C14H11(1+)\TS
 1578\27-Jul-2022\0\\#n M062X/6-311++G(d,p) TD(NStates=1) EmpiricalDisp
 ersion=GD3 SP\\SP_0\\1,1\C,0,2.4927,1.3851,0.\C,0,3.7015,0.6987,0.008\
 C,0,3.6839,-0.6961,0.016\C,0,2.4632,-1.4189,0.008\C,0,-2.4632,-1.4189,
 -0.008\C,0,-3.6839,-0.6961,-0.016\C,0,-3.7015,0.6987,-0.008\C,0,-2.492
 7,1.3851,0.\C,0,0.,1.4701,0.\C,0,0.,-1.4495,0.\C,0,1.2621,0.6767,-0.01
 1\C,0,1.2375,-0.7311,0.001\C,0,-1.2621,0.6767,0.011\C,0,-1.2375,-0.731
 1,-0.001\H,0,2.4881,2.4573,0.\H,0,4.6368,1.2384,0.007\H,0,4.6093,-1.26
 27,0.002\H,0,2.4675,-2.4904,0.008\H,0,0.,-2.5266,0.\H,0,-2.4675,-2.490
 4,-0.008\H,0,-4.6093,-1.2627,-0.002\H,0,-4.6368,1.2384,-0.007\H,0,-2.4
 881,2.4573,0.\H,0,0.,2.1985,-0.8596\H,0,0.,2.1985,0.8596\\Version=ES64
 L-G16RevC.01\State=1-A\HF=-539.7545898\RMSD=4.714e-09\PG=C02 [C2(H1C1C
 1),X(C12H10)]\\@
 The archive entry for this job was punched.


 THE RARE EARTHS PERPLEX US IN OUR RESEARCHES,
 BAFFLE US IN OUR SPECULATIONS, AND HAUNT US IN OUR
 VERY DREAMS.  THEY STRETCH LIKE AN UNKNOWN BEFORE US,
 MOCKING, MYSTIFYING, AND MURMURING STRANGE REVELATIONS
 AND POSSIBILITIES.  -- SIR WILLIAM CROOKE, 1832-1919
 Job cpu time:       0 days  0 hours 42 minutes 17.8 seconds.
 Elapsed time:       0 days  0 hours  1 minutes 21.3 seconds.
 File lengths (MBytes):  RWF=    460 Int=      0 D2E=      0 Chk=     15 Scr=      1
 Normal termination of Gaussian 16 at Wed Jul 27 10:57:57 2022.
