 Entering Gaussian System, Link 0=g16
 Initial command:
 /apps/gaussian/g16c01/g16/l1.exe "/jobfs/52803152.gadi-pbs/Gau-2944812.inp" -scrdir="/jobfs/52803152.gadi-pbs/"
 Entering Link 1 = /apps/gaussian/g16c01/g16/l1.exe PID=   2944813.
  
 Copyright (c) 1988-2019, Gaussian, Inc.  All Rights Reserved.
  
 This is part of the Gaussian(R) 16 program.  It is based on
 the Gaussian(R) 09 system (copyright 2009, Gaussian, Inc.),
 the Gaussian(R) 03 system (copyright 2003, Gaussian, Inc.),
 the Gaussian(R) 98 system (copyright 1998, Gaussian, Inc.),
 the Gaussian(R) 94 system (copyright 1995, Gaussian, Inc.),
 the Gaussian 92(TM) system (copyright 1992, Gaussian, Inc.),
 the Gaussian 90(TM) system (copyright 1990, Gaussian, Inc.),
 the Gaussian 88(TM) system (copyright 1988, Gaussian, Inc.),
 the Gaussian 86(TM) system (copyright 1986, Carnegie Mellon
 University), and the Gaussian 82(TM) system (copyright 1983,
 Carnegie Mellon University). Gaussian is a federally registered
 trademark of Gaussian, Inc.
  
 This software contains proprietary and confidential information,
 including trade secrets, belonging to Gaussian, Inc.
  
 This software is provided under written license and may be
 used, copied, transmitted, or stored only in accord with that
 written license.
  
 The following legend is applicable only to US Government
 contracts under FAR:
  
                    RESTRICTED RIGHTS LEGEND
  
 Use, reproduction and disclosure by the US Government is
 subject to restrictions as set forth in subparagraphs (a)
 and (c) of the Commercial Computer Software - Restricted
 Rights clause in FAR 52.227-19.
  
 Gaussian, Inc.
 340 Quinnipiac St., Bldg. 40, Wallingford CT 06492
  
  
 ---------------------------------------------------------------
 Warning -- This program may not be used in any manner that
 competes with the business of Gaussian, Inc. or will provide
 assistance to any competitor of Gaussian, Inc.  The licensee
 of this program is prohibited from giving any competitor of
 Gaussian, Inc. access to this program.  By using this program,
 the user acknowledges that Gaussian, Inc. is engaged in the
 business of creating and licensing software in the field of
 computational chemistry and represents and warrants to the
 licensee that it is not a competitor of Gaussian, Inc. and that
 it will not use this program in any manner prohibited above.
 ---------------------------------------------------------------
  

 Cite this work as:
 Gaussian 16, Revision C.01,
 M. J. Frisch, G. W. Trucks, H. B. Schlegel, G. E. Scuseria, 
 M. A. Robb, J. R. Cheeseman, G. Scalmani, V. Barone, 
 G. A. Petersson, H. Nakatsuji, X. Li, M. Caricato, A. V. Marenich, 
 J. Bloino, B. G. Janesko, R. Gomperts, B. Mennucci, H. P. Hratchian, 
 J. V. Ortiz, A. F. Izmaylov, J. L. Sonnenberg, D. Williams-Young, 
 F. Ding, F. Lipparini, F. Egidi, J. Goings, B. Peng, A. Petrone, 
 T. Henderson, D. Ranasinghe, V. G. Zakrzewski, J. Gao, N. Rega, 
 G. Zheng, W. Liang, M. Hada, M. Ehara, K. Toyota, R. Fukuda, 
 J. Hasegawa, M. Ishida, T. Nakajima, Y. Honda, O. Kitao, H. Nakai, 
 T. Vreven, K. Throssell, J. A. Montgomery, Jr., J. E. Peralta, 
 F. Ogliaro, M. J. Bearpark, J. J. Heyd, E. N. Brothers, K. N. Kudin, 
 V. N. Staroverov, T. A. Keith, R. Kobayashi, J. Normand, 
 K. Raghavachari, A. P. Rendell, J. C. Burant, S. S. Iyengar, 
 J. Tomasi, M. Cossi, J. M. Millam, M. Klene, C. Adamo, R. Cammi, 
 J. W. Ochterski, R. L. Martin, K. Morokuma, O. Farkas, 
 J. B. Foresman, and D. J. Fox, Gaussian, Inc., Wallingford CT, 2019.
 
 ******************************************
 Gaussian 16:  ES64L-G16RevC.01  3-Jul-2019
                27-Jul-2022 
 ******************************************
 %NProcShared=32
 Will use up to   32 processors via shared memory.
 %mem = 128GB
 ---------------------------------------------------------------
 #n M062X/6-311++G(d,p) TD(NStates=1) EmpiricalDispersion=GD3 SP
 ---------------------------------------------------------------
 1/38=1,172=1/1;
 2/12=2,17=6,18=5,40=1/2;
 3/5=4,6=6,7=1111,11=9,25=1,30=1,74=-55,124=31/1,2,3,8;
 4//1;
 5/5=2,38=5/2;
 8/6=1,10=2,108=1/1;
 9/41=1,42=1,70=2/14;
 6/7=2,8=2,9=2,10=2/1;
 99/5=1,9=1/99;
 ----
 SP_2
 ----
 Symbolic Z-matrix:
 Charge =  1 Multiplicity = 1
 C                     2.4927    1.3211    0.034 
 C                     3.7015    0.6087   -0.026 
 C                     3.6839   -0.7471   -0.064 
 C                     2.4632   -1.3069   -0.072 
 C                    -2.4632   -1.3309   -0.008 
 C                    -3.6839   -0.7351    0.064 
 C                    -3.7015    0.6087    0.038 
 C                    -2.4927    1.2891    0.034 
 C                     0.        1.4301    0.066 
 C                     0.       -1.3045   -0.054 
 C                     1.2621    0.7297    0.06 
 C                     1.2375   -0.6801   -0.03 
 C                    -1.2621    0.7137   -0.028 
 C                    -1.2375   -0.6921   -0.022 
 H                     2.4881    2.4603    0.036 
 H                     4.6368    1.1664   -0.052 
 H                     4.6093   -1.2557    0.02 
 H                     2.4675   -2.4094   -0.074 
 H                     0.       -2.4016   -0.056 
 H                    -2.4675   -2.4814   -0.01 
 H                    -4.6093   -1.2797    0.036 
 H                    -4.6368    1.1304    0.004 
 H                    -2.4881    2.4043    0.036 
 H                    -0.004     1.9785   -0.7996 
 H                     0.004     1.9785    0.9196 
 
                          Input orientation:                          
 ---------------------------------------------------------------------
 Center     Atomic      Atomic             Coordinates (Angstroms)
 Number     Number       Type             X           Y           Z
 ---------------------------------------------------------------------
      1          6           0        2.492700    1.321100    0.034000
      2          6           0        3.701500    0.608700   -0.026000
      3          6           0        3.683900   -0.747100   -0.064000
      4          6           0        2.463200   -1.306900   -0.072000
      5          6           0       -2.463200   -1.330900   -0.008000
      6          6           0       -3.683900   -0.735100    0.064000
      7          6           0       -3.701500    0.608700    0.038000
      8          6           0       -2.492700    1.289100    0.034000
      9          6           0        0.000000    1.430100    0.066000
     10          6           0        0.000000   -1.304500   -0.054000
     11          6           0        1.262100    0.729700    0.060000
     12          6           0        1.237500   -0.680100   -0.030000
     13          6           0       -1.262100    0.713700   -0.028000
     14          6           0       -1.237500   -0.692100   -0.022000
     15          1           0        2.488100    2.460300    0.036000
     16          1           0        4.636800    1.166400   -0.052000
     17          1           0        4.609300   -1.255700    0.020000
     18          1           0        2.467500   -2.409400   -0.074000
     19          1           0        0.000000   -2.401600   -0.056000
     20          1           0       -2.467500   -2.481400   -0.010000
     21          1           0       -4.609300   -1.279700    0.036000
     22          1           0       -4.636800    1.130400    0.004000
     23          1           0       -2.488100    2.404300    0.036000
     24          1           0       -0.004000    1.978500   -0.799600
     25          1           0        0.004000    1.978500    0.919600
 ---------------------------------------------------------------------
                    Distance matrix (angstroms):
                    1          2          3          4          5
     1  C    0.000000
     2  C    1.404390   0.000000
     3  C    2.388726   1.356447   0.000000
     4  C    2.630302   2.281453   1.342963   0.000000
     5  C    5.621015   6.462654   6.175014   4.926874   0.000000
     6  C    6.509934   7.507199   7.368922   6.175135   1.360246
     7  C    6.235034   7.403277   7.509509   6.456404   2.301641
     8  C    4.985503   6.231746   6.504314   5.595659   2.620503
     9  C    2.495287   3.792659   4.281147   3.684775   3.700804
    10  C    3.621474   4.166800   3.725844   2.463267   2.463771
    11  C    1.365579   2.443913   2.839266   2.368080   4.257764
    12  C    2.363139   2.780704   2.447553   1.377310   3.757553
    13  C    3.804116   4.964711   5.157339   4.238233   2.371377
    14  C    4.239163   5.107428   4.921887   3.751754   1.382245
    15  H    1.139211   2.214635   3.424522   3.768830   6.236225
    16  H    2.151393   1.089262   2.137673   3.292742   7.526516
    17  H    3.334680   2.074176   1.059290   2.148681   7.072955
    18  H    3.732148   3.260980   2.059847   1.102510   5.047705
    19  H    4.481088   4.771154   4.038385   2.695548   2.686272
    20  H    6.250162   6.899676   6.391434   5.069033   1.150510
    21  H    7.563238   8.522869   8.310886   7.073377   2.147162
    22  H    7.132113   8.354658   8.530163   7.507077   3.283699
    23  H    5.097224   6.445089   6.930722   6.188703   3.735542
    24  H    2.713038   4.025610   4.644417   4.172569   4.198383
    25  H    2.722148   4.054876   4.683805   4.221941   4.230797
                    6          7          8          9         10
     6  C    0.000000
     7  C    1.344167   0.000000
     8  C    2.348881   1.387140   0.000000
     9  C    4.273080   3.791647   2.496890   0.000000
    10  C    3.729512   4.167721   3.598341   2.737232   0.000000
    11  C    5.158350   4.965123   3.796331   1.443431   2.396636
    12  C    4.922605   5.104836   4.218559   2.448176   1.386311
    13  C    2.823579   2.442551   1.359892   1.454291   2.380484
    14  C    2.448289   2.786930   2.346021   2.458228   1.381110
    15  H    6.950176   6.460617   5.116648   2.693112   4.513586
    16  H    8.535995   8.357414   7.131074   4.645791   5.254071
    17  H    8.309641   8.517377   7.544177   5.334912   4.610152
    18  H    6.376680   6.868627   6.188227   4.566171   2.703657
    19  H    4.045089   4.771985   4.454539   3.833642   1.097102
    20  H    2.129476   3.327729   3.770841   4.625383   2.734152
    21  H    1.074122   2.095271   3.328473   5.346921   4.610245
    22  H    2.095640   1.071500   2.150175   4.646889   5.237558
    23  H    3.359547   2.167146   1.115211   2.672191   4.466983
    24  H    4.653074   4.031058   2.713630   1.024706   3.366604
    25  H    4.657927   4.047753   2.737347   1.014589   3.424325
                   11         12         13         14         15
    11  C    0.000000
    12  C    1.412884   0.000000
    13  C    2.525784   2.861937   0.000000
    14  C    2.876845   2.475042   1.406028   0.000000
    15  H    2.120997   3.380898   4.137476   4.880685   0.000000
    16  H    3.404681   3.868499   5.916294   6.161357   2.509748
    17  H    3.891935   3.420943   6.193075   5.874051   4.278832
    18  H    3.365248   2.122573   4.864749   4.083975   4.870986
    19  H    3.378075   2.120293   3.361365   2.110676   5.462342
    20  H    4.921989   4.119722   3.414964   2.171322   6.998606
    21  H    6.205772   5.877835   3.896343   3.423109   8.022511
    22  H    5.912759   6.147070   3.400480   3.857126   7.248024
    23  H    4.107172   4.837145   2.089330   3.339919   4.976515
    24  H    1.975202   3.033440   1.943682   3.042744   2.672250
    25  H    1.970084   3.080814   2.025012   3.091931   2.680230
                   16         17         18         19         20
    16  H    0.000000
    17  H    2.423326   0.000000
    18  H    4.182427   2.434577   0.000000
    19  H    5.850688   4.750212   2.467578   0.000000
    20  H    7.986194   7.182224   4.935940   2.469219   0.000000
    21  H    9.564597   9.218645   7.167246   4.744762   2.456320
    22  H    9.273839   9.549036   7.937717   5.829111   4.213212
    23  H    7.232174   7.985546   6.909543   5.412558   4.885960
    24  H    4.770266   5.693358   5.088072   4.442773   5.155871
    25  H    4.802744   5.698958   5.129302   4.487437   5.182970
                   21         22         23         24         25
    21  H    0.000000
    22  H    2.410469   0.000000
    23  H    4.251041   2.498151   0.000000
    24  H    5.702884   4.777853   2.655237   0.000000
    25  H    5.716568   4.805686   2.678174   1.719219   0.000000
 Stoichiometry    C14H11(1+)
 Framework group  C1[X(C14H11)]
 Deg. of freedom    69
 Full point group                 C1      NOp   1
 Largest Abelian subgroup         C1      NOp   1
 Largest concise Abelian subgroup C1      NOp   1
                         Standard orientation:                         
 ---------------------------------------------------------------------
 Center     Atomic      Atomic             Coordinates (Angstroms)
 Number     Number       Type             X           Y           Z
 ---------------------------------------------------------------------
      1          6           0       -2.495925   -1.307672    0.021762
      2          6           0       -3.703221   -0.590942   -0.010586
      3          6           0       -3.682222    0.765335   -0.015060
      4          6           0       -2.460101    1.322068   -0.019203
      5          6           0        2.466705    1.331993    0.004837
      6          6           0        3.686317    0.731499    0.051978
      7          6           0        3.700027   -0.611281   -0.007518
      8          6           0        2.489378   -1.288308   -0.018462
      9          6           0       -0.003355   -1.423746    0.030536
     10          6           0        0.003148    1.312983   -0.021536
     11          6           0       -1.263540   -0.720219    0.052310
     12          6           0       -1.235819    0.691316   -0.002863
     13          6           0        1.259891   -0.708430   -0.056032
     14          6           0        1.239188    0.696845   -0.014932
     15          1           0       -2.494426   -2.446577   -0.004557
     16          1           0       -4.640224   -1.145453   -0.042727
     17          1           0       -4.605511    1.274033    0.089152
     18          1           0       -2.461400    2.424284    0.006203
     19          1           0        0.006134    2.409790    0.003701
     20          1           0        2.474136    2.482173    0.031364
     21          1           0        4.612944    1.274281    0.029893
     22          1           0        4.633587   -1.134342   -0.062154
     23          1           0        2.481743   -2.403198   -0.044110
     24          1           0       -0.007921   -1.950477   -0.848415
     25          1           0       -0.001888   -1.993174    0.870262
 ---------------------------------------------------------------------
 Rotational constants (GHZ):           2.3092016           0.4445223           0.3736729
 Standard basis: 6-311++G(d,p) (5D, 7F)
 There are   399 symmetry adapted cartesian basis functions of A   symmetry.
 There are   385 symmetry adapted basis functions of A   symmetry.
   385 basis functions,   603 primitive gaussians,   399 cartesian basis functions
    47 alpha electrons       47 beta electrons
       nuclear repulsion energy       792.3823181332 Hartrees.
 NAtoms=   25 NActive=   25 NUniq=   25 SFac= 1.00D+00 NAtFMM=   60 NAOKFM=F Big=F
 Integral buffers will be    131072 words long.
 Regular integral format.
 Two-electron integral symmetry is turned on.
 Nuclear repulsion after empirical dispersion term =      792.3813586382 Hartrees.
 One-electron integrals computed using PRISM.
 NBasis=   385 RedAO= T EigKep=  1.31D-06  NBF=   385
 NBsUse=   379 1.00D-06 EigRej=  9.09D-07 NBFU=   379
 ExpMin= 3.60D-02 ExpMax= 4.56D+03 ExpMxC= 6.82D+02 IAcc=3 IRadAn=         5 AccDes= 0.00D+00
 Harris functional with IExCor= 1009 and IRadAn=       5 diagonalized for initial guess.
 HarFok:  IExCor= 1009 AccDes= 0.00D+00 IRadAn=         5 IDoV= 1 UseB2=F ITyADJ=14
 ICtDFT=  3500011 ScaDFX=  1.000000  1.000000  1.000000  1.000000
 FoFCou: FMM=F IPFlag=           0 FMFlag=      100000 FMFlg1=           0
         NFxFlg=           0 DoJE=T BraDBF=F KetDBF=T FulRan=T
         wScrn=  0.000000 ICntrl=       500 IOpCl=  0 I1Cent=   200000004 NGrid=           0
         NMat0=    1 NMatS0=      1 NMatT0=    0 NMatD0=    1 NMtDS0=    0 NMtDT0=    0
 Petite list used in FoFCou.
 Requested convergence on RMS density matrix=1.00D-08 within 128 cycles.
 Requested convergence on MAX density matrix=1.00D-06.
 Requested convergence on             energy=1.00D-06.
 No special actions if energy rises.
 SCF Done:  E(RM062X) =  -539.714501217     A.U. after   14 cycles
            NFock= 14  Conv=0.75D-08     -V/T= 2.0020
 DoSCS=F DFT=T ScalE2(SS,OS)=  1.000000  1.000000
 ExpMin= 3.60D-02 ExpMax= 4.56D+03 ExpMxC= 6.82D+02 IAcc=3 IRadAn=         5 AccDes= 0.00D+00
 HarFok:  IExCor=  205 AccDes= 0.00D+00 IRadAn=         5 IDoV=-2 UseB2=F ITyADJ=14
 ICtDFT= 12500011 ScaDFX=  1.000000  1.000000  1.000000  1.000000
 Range of M.O.s used for correlation:    15   379
 NBasis=   385 NAE=    47 NBE=    47 NFC=    14 NFV=     0
 NROrb=    365 NOA=    33 NOB=    33 NVA=   332 NVB=   332

 **** Warning!!: The largest alpha MO coefficient is  0.13624086D+03

 Orbital symmetries:
       Occupied  (A) (A) (A) (A) (A) (A) (A) (A) (A) (A) (A) (A)
                 (A) (A) (A) (A) (A) (A) (A) (A) (A) (A) (A) (A)
                 (A) (A) (A) (A) (A) (A) (A) (A) (A) (A) (A) (A)
                 (A) (A) (A) (A) (A) (A) (A) (A) (A) (A) (A)
       Virtual   (A) (A) (A) (A) (A) (A) (A) (A) (A) (A) (A) (A)
                 (A) (A) (A) (A) (A) (A) (A) (A) (A) (A) (A) (A)
                 (A) (A) (A) (A) (A) (A) (A) (A) (A) (A) (A) (A)
                 (A) (A) (A) (A) (A) (A) (A) (A) (A) (A) (A) (A)
                 (A) (A) (A) (A) (A) (A) (A) (A) (A) (A) (A) (A)
                 (A) (A) (A) (A) (A) (A) (A) (A) (A) (A) (A) (A)
                 (A) (A) (A) (A) (A) (A) (A) (A) (A) (A) (A) (A)
                 (A) (A) (A) (A) (A) (A) (A) (A) (A) (A) (A) (A)
                 (A) (A) (A) (A) (A) (A) (A) (A) (A) (A) (A) (A)
                 (A) (A) (A) (A) (A) (A) (A) (A) (A) (A) (A) (A)
                 (A) (A) (A) (A) (A) (A) (A) (A) (A) (A) (A) (A)
                 (A) (A) (A) (A) (A) (A) (A) (A) (A) (A) (A) (A)
                 (A) (A) (A) (A) (A) (A) (A) (A) (A) (A) (A) (A)
                 (A) (A) (A) (A) (A) (A) (A) (A) (A) (A) (A) (A)
                 (A) (A) (A) (A) (A) (A) (A) (A) (A) (A) (A) (A)
                 (A) (A) (A) (A) (A) (A) (A) (A) (A) (A) (A) (A)
                 (A) (A) (A) (A) (A) (A) (A) (A) (A) (A) (A) (A)
                 (A) (A) (A) (A) (A) (A) (A) (A) (A) (A) (A) (A)
                 (A) (A) (A) (A) (A) (A) (A) (A) (A) (A) (A) (A)
                 (A) (A) (A) (A) (A) (A) (A) (A) (A) (A) (A) (A)
                 (A) (A) (A) (A) (A) (A) (A) (A) (A) (A) (A) (A)
                 (A) (A) (A) (A) (A) (A) (A) (A) (A) (A) (A) (A)
                 (A) (A) (A) (A) (A) (A) (A) (A) (A) (A) (A) (A)
                 (A) (A) (A) (A) (A) (A) (A) (A) (A) (A) (A) (A)
                 (A) (A) (A) (A) (A) (A) (A) (A) (A) (A) (A) (A)
                 (A) (A) (A) (A) (A) (A) (A) (A) (A) (A) (A) (A)
                 (A) (A) (A) (A) (A) (A) (A) (A) (A) (A) (A) (A)
                 (A) (A) (A) (A) (A) (A) (A) (A)
     4 initial guesses have been made.
 Convergence on wavefunction:    0.001000000000000
 Iteration     1 Dimension     4 NMult     0 NNew      4
 CISAX will form     4 AO SS matrices at one time.
 Iteration     2 Dimension     6 NMult     4 NNew      2
 Iteration     3 Dimension     8 NMult     6 NNew      2
 Iteration     4 Dimension    10 NMult     8 NNew      2
 Iteration     5 Dimension    12 NMult    10 NNew      2
 Iteration     6 Dimension    14 NMult    12 NNew      2
 ***********************************************************************
 Excited states from <AA,BB:AA,BB> singles matrix:
 ***********************************************************************
 
 Ground to excited state transition densities written to RWF  633
 Ground to excited state transition electric dipole moments (Au):
       state          X           Y           Z        Dip. S.      Osc.
         1        -0.0235     -0.5973     -0.0011      0.3573      0.0273
 Ground to excited state transition velocity dipole moments (Au):
       state          X           Y           Z        Dip. S.      Osc.
         1         0.0028      0.0763      0.0002      0.0058      0.0339
 Ground to excited state transition magnetic dipole moments (Au):
       state          X           Y           Z
         1        -0.0179     -0.0190     -0.0029
 Ground to excited state transition velocity quadrupole moments (Au):
       state          XX          YY          ZZ          XY          XZ          YZ
         1         0.3206      0.0479     -0.0072      0.0148      0.0070     -0.0016
 <0|del|b> * <b|rxdel|0> + <0|del|b> * <b|delr+rdel|0>
 Rotatory Strengths (R) in cgs (10**-40 erg-esu-cm/Gauss)
       state          XX          YY          ZZ    R(velocity)    E-M Angle
         1        -6.1011     -0.1793     -2.9508     -3.0771      138.35
 1/2[<0|r|b>*<b|rxdel|0> + (<0|rxdel|b>*<b|r|0>)*]
 Rotatory Strengths (R) in cgs (10**-40 erg-esu-cm/Gauss)
       state          XX          YY          ZZ     R(length)
         1        -0.2976     -8.0100     -0.0023     -2.7700
  1/2[<0|del|b>*<b|r|0> + (<0|r|b>*<b|del|0>)*] (Au)
       state          X           Y           Z        Dip. S.   Osc.(frdel)
         1        -0.0001     -0.0456     -0.0000      0.0456      0.0304

 Excitation energies and oscillator strengths:
 
 Excited State   1:      Singlet-A      3.1221 eV  397.12 nm  f=0.0273  <S**2>=0.000
      47 -> 48         0.70341
 This state for optimization and/or second-order correction.
 Total Energy, E(TD-HF/TD-DFT) =  -539.599766267    
 Copying the excited state density for this state as the 1-particle RhoCI density.
 SavETr:  write IOETrn=   770 NScale= 10 NData=  16 NLR=1 NState=    1 LETran=      28.

 **********************************************************************

            Population analysis using the SCF Density.

 **********************************************************************

 Orbital symmetries:
       Occupied  (A) (A) (A) (A) (A) (A) (A) (A) (A) (A) (A) (A)
                 (A) (A) (A) (A) (A) (A) (A) (A) (A) (A) (A) (A)
                 (A) (A) (A) (A) (A) (A) (A) (A) (A) (A) (A) (A)
                 (A) (A) (A) (A) (A) (A) (A) (A) (A) (A) (A)
       Virtual   (A) (A) (A) (A) (A) (A) (A) (A) (A) (A) (A) (A)
                 (A) (A) (A) (A) (A) (A) (A) (A) (A) (A) (A) (A)
                 (A) (A) (A) (A) (A) (A) (A) (A) (A) (A) (A) (A)
                 (A) (A) (A) (A) (A) (A) (A) (A) (A) (A) (A) (A)
                 (A) (A) (A) (A) (A) (A) (A) (A) (A) (A) (A) (A)
                 (A) (A) (A) (A) (A) (A) (A) (A) (A) (A) (A) (A)
                 (A) (A) (A) (A) (A) (A) (A) (A) (A) (A) (A) (A)
                 (A) (A) (A) (A) (A) (A) (A) (A) (A) (A) (A) (A)
                 (A) (A) (A) (A) (A) (A) (A) (A) (A) (A) (A) (A)
                 (A) (A) (A) (A) (A) (A) (A) (A) (A) (A) (A) (A)
                 (A) (A) (A) (A) (A) (A) (A) (A) (A) (A) (A) (A)
                 (A) (A) (A) (A) (A) (A) (A) (A) (A) (A) (A) (A)
                 (A) (A) (A) (A) (A) (A) (A) (A) (A) (A) (A) (A)
                 (A) (A) (A) (A) (A) (A) (A) (A) (A) (A) (A) (A)
                 (A) (A) (A) (A) (A) (A) (A) (A) (A) (A) (A) (A)
                 (A) (A) (A) (A) (A) (A) (A) (A) (A) (A) (A) (A)
                 (A) (A) (A) (A) (A) (A) (A) (A) (A) (A) (A) (A)
                 (A) (A) (A) (A) (A) (A) (A) (A) (A) (A) (A) (A)
                 (A) (A) (A) (A) (A) (A) (A) (A) (A) (A) (A) (A)
                 (A) (A) (A) (A) (A) (A) (A) (A) (A) (A) (A) (A)
                 (A) (A) (A) (A) (A) (A) (A) (A) (A) (A) (A) (A)
                 (A) (A) (A) (A) (A) (A) (A) (A) (A) (A) (A) (A)
                 (A) (A) (A) (A) (A) (A) (A) (A) (A) (A) (A) (A)
                 (A) (A) (A) (A) (A) (A) (A) (A) (A) (A) (A) (A)
                 (A) (A) (A) (A) (A) (A) (A) (A) (A) (A) (A) (A)
                 (A) (A) (A) (A) (A) (A) (A) (A) (A) (A) (A) (A)
                 (A) (A) (A) (A) (A) (A) (A) (A) (A) (A) (A) (A)
                 (A) (A) (A) (A) (A) (A) (A) (A)
 The electronic state is 1-A.
 Alpha  occ. eigenvalues --  -10.76614 -10.72427 -10.72297 -10.71761 -10.71689
 Alpha  occ. eigenvalues --  -10.71567 -10.71248 -10.70929 -10.70739 -10.69965
 Alpha  occ. eigenvalues --  -10.69488 -10.68994 -10.68948 -10.68855  -1.18047
 Alpha  occ. eigenvalues --   -1.14167  -1.08819  -1.07010  -1.02344  -1.01188
 Alpha  occ. eigenvalues --   -0.96530  -0.92729  -0.86982  -0.85915  -0.83697
 Alpha  occ. eigenvalues --   -0.79409  -0.77343  -0.74242  -0.71972  -0.71441
 Alpha  occ. eigenvalues --   -0.69353  -0.68451  -0.66835  -0.66320  -0.63042
 Alpha  occ. eigenvalues --   -0.62260  -0.61847  -0.61601  -0.60798  -0.59878
 Alpha  occ. eigenvalues --   -0.56908  -0.55282  -0.53239  -0.52622  -0.47848
 Alpha  occ. eigenvalues --   -0.46166  -0.45530
 Alpha virt. eigenvalues --   -0.25851  -0.14396  -0.13412  -0.12016  -0.11178
 Alpha virt. eigenvalues --   -0.09887  -0.09369  -0.08245  -0.08009  -0.07435
 Alpha virt. eigenvalues --   -0.07172  -0.06862  -0.05641  -0.05511  -0.05169
 Alpha virt. eigenvalues --   -0.04063  -0.04035  -0.03139  -0.02951  -0.02022
 Alpha virt. eigenvalues --   -0.01754  -0.00886   0.00349   0.00439   0.00801
 Alpha virt. eigenvalues --    0.01305   0.01393   0.02089   0.02238   0.02411
 Alpha virt. eigenvalues --    0.02692   0.02890   0.03099   0.03190   0.03421
 Alpha virt. eigenvalues --    0.04248   0.04536   0.04612   0.05304   0.05356
 Alpha virt. eigenvalues --    0.06075   0.06347   0.06462   0.06923   0.07523
 Alpha virt. eigenvalues --    0.07706   0.08260   0.08559   0.08892   0.09166
 Alpha virt. eigenvalues --    0.09396   0.09727   0.09974   0.10187   0.11432
 Alpha virt. eigenvalues --    0.11626   0.11915   0.12442   0.12486   0.12772
 Alpha virt. eigenvalues --    0.13528   0.13846   0.14321   0.14763   0.15430
 Alpha virt. eigenvalues --    0.16168   0.16667   0.17962   0.18151   0.18545
 Alpha virt. eigenvalues --    0.18923   0.19217   0.19799   0.20106   0.20420
 Alpha virt. eigenvalues --    0.21199   0.22017   0.23053   0.23172   0.23797
 Alpha virt. eigenvalues --    0.24275   0.24976   0.25381   0.27501   0.28486
 Alpha virt. eigenvalues --    0.29143   0.29503   0.32116   0.32573   0.37774
 Alpha virt. eigenvalues --    0.38268   0.38958   0.39256   0.40425   0.41382
 Alpha virt. eigenvalues --    0.41674   0.42536   0.43388   0.43717   0.44642
 Alpha virt. eigenvalues --    0.45125   0.46033   0.46693   0.47535   0.47697
 Alpha virt. eigenvalues --    0.48915   0.49291   0.49594   0.50462   0.50721
 Alpha virt. eigenvalues --    0.51071   0.51841   0.52384   0.52738   0.53698
 Alpha virt. eigenvalues --    0.54107   0.55708   0.55951   0.56386   0.58377
 Alpha virt. eigenvalues --    0.59707   0.60347   0.61659   0.62410   0.63115
 Alpha virt. eigenvalues --    0.63508   0.64026   0.64413   0.66117   0.67198
 Alpha virt. eigenvalues --    0.68445   0.70319   0.71522   0.72107   0.73345
 Alpha virt. eigenvalues --    0.74357   0.75628   0.75962   0.76470   0.76536
 Alpha virt. eigenvalues --    0.77169   0.77955   0.78306   0.79380   0.80947
 Alpha virt. eigenvalues --    0.81720   0.82195   0.82782   0.83597   0.84863
 Alpha virt. eigenvalues --    0.85408   0.86834   0.87824   0.88616   0.89661
 Alpha virt. eigenvalues --    0.92005   0.93255   0.94718   0.96369   0.97594
 Alpha virt. eigenvalues --    0.98127   0.99877   1.00218   1.02866   1.03043
 Alpha virt. eigenvalues --    1.04699   1.06434   1.06608   1.08563   1.11699
 Alpha virt. eigenvalues --    1.21940   1.23095   1.25305   1.29233   1.29832
 Alpha virt. eigenvalues --    1.32191   1.33168   1.33307   1.35195   1.35636
 Alpha virt. eigenvalues --    1.38248   1.42661   1.43038   1.44151   1.44879
 Alpha virt. eigenvalues --    1.45469   1.47323   1.48152   1.48346   1.49162
 Alpha virt. eigenvalues --    1.49828   1.51406   1.52287   1.55761   1.56788
 Alpha virt. eigenvalues --    1.57029   1.58054   1.58692   1.59592   1.61475
 Alpha virt. eigenvalues --    1.62500   1.62996   1.63398   1.66340   1.67403
 Alpha virt. eigenvalues --    1.68005   1.70920   1.72909   1.73537   1.76882
 Alpha virt. eigenvalues --    1.78208   1.79282   1.80192   1.82989   1.83507
 Alpha virt. eigenvalues --    1.84321   1.85109   1.85392   1.85555   1.85852
 Alpha virt. eigenvalues --    1.86497   1.87272   1.88386   1.90076   1.92892
 Alpha virt. eigenvalues --    1.93356   1.95181   1.96645   1.99013   2.01819
 Alpha virt. eigenvalues --    2.03090   2.05244   2.07601   2.11313   2.13031
 Alpha virt. eigenvalues --    2.14975   2.16879   2.17369   2.24564   2.25630
 Alpha virt. eigenvalues --    2.25867   2.30759   2.31770   2.33196   2.36760
 Alpha virt. eigenvalues --    2.37643   2.39198   2.41416   2.42467   2.45306
 Alpha virt. eigenvalues --    2.47913   2.51424   2.52486   2.56568   2.56886
 Alpha virt. eigenvalues --    2.58653   2.59372   2.59730   2.60409   2.61135
 Alpha virt. eigenvalues --    2.61329   2.62570   2.62613   2.63904   2.64316
 Alpha virt. eigenvalues --    2.65697   2.66819   2.66991   2.67602   2.68613
 Alpha virt. eigenvalues --    2.71680   2.72774   2.75466   2.76951   2.77725
 Alpha virt. eigenvalues --    2.79977   2.81175   2.81953   2.82647   2.85189
 Alpha virt. eigenvalues --    2.89358   2.92938   2.94681   2.96151   3.02057
 Alpha virt. eigenvalues --    3.02971   3.09303   3.10717   3.17868   3.19329
 Alpha virt. eigenvalues --    3.27475   3.29839   3.31833   3.33580   3.34827
 Alpha virt. eigenvalues --    3.36676   3.40460   3.45772   3.48185   3.49670
 Alpha virt. eigenvalues --    3.50067   3.56763   3.58248   3.66667   3.67219
 Alpha virt. eigenvalues --    3.89241   3.91342   3.94610   3.96614   3.97587
 Alpha virt. eigenvalues --    4.01546   4.02825   4.03442   4.11713   4.39258
 Alpha virt. eigenvalues --    4.69376   4.71836   4.73382  23.42026  23.59737
 Alpha virt. eigenvalues --   23.84493  23.87238  23.88767  23.98822  24.01770
 Alpha virt. eigenvalues --   24.05917  24.06428  24.08917  24.09402  24.13000
 Alpha virt. eigenvalues --   24.22737  24.24624
          Condensed to atoms (all electrons):
               1          2          3          4          5          6
     1  C   10.229132   0.422751  -0.953570   2.819843   0.099485  -0.095639
     2  C    0.422751   6.484113   0.610381  -0.585654  -0.095191  -0.010905
     3  C   -0.953570   0.610381   7.119585  -0.310287  -0.159248   0.023215
     4  C    2.819843  -0.585654  -0.310287   9.987471   0.150288  -0.088390
     5  C    0.099485  -0.095191  -0.159248   0.150288  13.438694   0.018900
     6  C   -0.095639  -0.010905   0.023215  -0.088390   0.018900   6.893233
     7  C   -0.028171   0.014569  -0.019919  -0.098899  -0.624117   0.394027
     8  C    0.677012  -0.020221  -0.089131   0.123332   2.445726  -0.975275
     9  C   -2.368696  -0.014225   0.344647  -1.967887  -0.270811   0.595653
    10  C   -1.864206  -0.071044  -0.427306  -1.880530  -3.527704  -0.297845
    11  C   -0.987914  -0.449970   1.335718  -1.245884  -2.319260  -0.163794
    12  C   -1.521885   0.164733  -1.181997  -0.152625  -1.406722  -0.128431
    13  C   -0.035778  -0.090376  -0.068267  -1.065329  -1.153728   1.101097
    14  C   -0.826734  -0.266122  -0.140789  -0.159804  -1.075978  -1.161560
    15  H    0.316725  -0.037664  -0.015357   0.015563   0.008418   0.000901
    16  H   -0.008574   0.374381  -0.012173   0.022233  -0.002471  -0.000243
    17  H   -0.043632  -0.009163   0.407090  -0.086586  -0.001431   0.000319
    18  H    0.069397  -0.015717  -0.104062   0.464950   0.019767  -0.002949
    19  H   -0.075779  -0.001288   0.064642  -0.072009  -0.146101   0.050549
    20  H    0.008718  -0.000104  -0.003198   0.020485   0.450956  -0.092453
    21  H   -0.000770  -0.000043   0.000360  -0.001143  -0.078327   0.410291
    22  H   -0.000262   0.000121  -0.000278  -0.001108   0.019252  -0.015133
    23  H    0.012049  -0.000927   0.001216   0.005166   0.029295  -0.014976
    24  H    0.066689   0.027437  -0.009341  -0.014713  -0.017120  -0.004550
    25  H    0.077559   0.017478   0.006709  -0.002130  -0.023954   0.001543
               7          8          9         10         11         12
     1  C   -0.028171   0.677012  -2.368696  -1.864206  -0.987914  -1.521885
     2  C    0.014569  -0.020221  -0.014225  -0.071044  -0.449970   0.164733
     3  C   -0.019919  -0.089131   0.344647  -0.427306   1.335718  -1.181997
     4  C   -0.098899   0.123332  -1.967887  -1.880530  -1.245884  -0.152625
     5  C   -0.624117   2.445726  -0.270811  -3.527704  -2.319260  -1.406722
     6  C    0.394027  -0.975275   0.595653  -0.297845  -0.163794  -0.128431
     7  C    7.080523   0.525344  -0.484100   0.015104  -0.083776  -0.237723
     8  C    0.525344   9.806242  -1.651069  -1.669884  -0.145504  -1.028717
     9  C   -0.484100  -1.651069  10.825024   0.907190   1.347571  -1.279448
    10  C    0.015104  -1.669884   0.907190  10.708253  -0.729994   2.053443
    11  C   -0.083776  -0.145504   1.347571  -0.729994  13.569099  -0.090284
    12  C   -0.237723  -1.028717  -1.279448   2.053443  -0.090284  12.687664
    13  C   -0.820877  -0.539730   1.847904  -0.587276   0.224186  -2.896831
    14  C    0.395396  -1.889563  -2.246853   2.802569  -3.508972   0.659497
    15  H   -0.001820   0.009396   0.034537   0.000913  -0.055880   0.048022
    16  H    0.000259   0.000475  -0.004703  -0.018420   0.018872  -0.024238
    17  H   -0.000193  -0.001091   0.006098   0.025311  -0.008041   0.062166
    18  H    0.001215   0.010277  -0.048539   0.057825  -0.040354  -0.066910
    19  H   -0.007147  -0.070258   0.109032   0.434719   0.102415  -0.000964
    20  H   -0.005733   0.056765  -0.040793   0.045253  -0.019182  -0.021136
    21  H   -0.039260  -0.026434   0.010421   0.013964  -0.000302   0.001983
    22  H    0.403281  -0.030024   0.000407  -0.012997  -0.002036  -0.006524
    23  H   -0.062827   0.338929   0.034328  -0.007037  -0.011193   0.003440
    24  H    0.032849   0.074126   0.375817  -0.014116  -0.029434  -0.061247
    25  H    0.020022   0.093276   0.320430  -0.016870  -0.015861  -0.078741
              13         14         15         16         17         18
     1  C   -0.035778  -0.826734   0.316725  -0.008574  -0.043632   0.069397
     2  C   -0.090376  -0.266122  -0.037664   0.374381  -0.009163  -0.015717
     3  C   -0.068267  -0.140789  -0.015357  -0.012173   0.407090  -0.104062
     4  C   -1.065329  -0.159804   0.015563   0.022233  -0.086586   0.464950
     5  C   -1.153728  -1.075978   0.008418  -0.002471  -0.001431   0.019767
     6  C    1.101097  -1.161560   0.000901  -0.000243   0.000319  -0.002949
     7  C   -0.820877   0.395396  -0.001820   0.000259  -0.000193   0.001215
     8  C   -0.539730  -1.889563   0.009396   0.000475  -0.001091   0.010277
     9  C    1.847904  -2.246853   0.034537  -0.004703   0.006098  -0.048539
    10  C   -0.587276   2.802569   0.000913  -0.018420   0.025311   0.057825
    11  C    0.224186  -3.508972  -0.055880   0.018872  -0.008041  -0.040354
    12  C   -2.896831   0.659497   0.048022  -0.024238   0.062166  -0.066910
    13  C   12.407602  -1.643427  -0.011251   0.002856  -0.002029  -0.008468
    14  C   -1.643427  14.348249   0.010351  -0.010863   0.005856  -0.006709
    15  H   -0.011251   0.010351   0.432818  -0.006444   0.000911   0.000444
    16  H    0.002856  -0.010863  -0.006444   0.415144  -0.007078   0.001293
    17  H   -0.002029   0.005856   0.000911  -0.007078   0.430859  -0.008051
    18  H   -0.008468  -0.006709   0.000444   0.001293  -0.008051   0.451908
    19  H    0.050274  -0.070727  -0.000105  -0.000495   0.001668  -0.004052
    20  H   -0.039212  -0.043930  -0.000080  -0.000010  -0.000115   0.000922
    21  H    0.014938   0.047972   0.000014  -0.000003   0.000010  -0.000120
    22  H    0.004709  -0.019127  -0.000072   0.000002  -0.000004   0.000009
    23  H   -0.047888   0.039309   0.000434  -0.000094   0.000011  -0.000133
    24  H   -0.023809  -0.068577   0.001091   0.000920  -0.000384   0.000502
    25  H    0.005863  -0.076078  -0.000702   0.000169   0.000082   0.000610
              19         20         21         22         23         24
     1  C   -0.075779   0.008718  -0.000770  -0.000262   0.012049   0.066689
     2  C   -0.001288  -0.000104  -0.000043   0.000121  -0.000927   0.027437
     3  C    0.064642  -0.003198   0.000360  -0.000278   0.001216  -0.009341
     4  C   -0.072009   0.020485  -0.001143  -0.001108   0.005166  -0.014713
     5  C   -0.146101   0.450956  -0.078327   0.019252   0.029295  -0.017120
     6  C    0.050549  -0.092453   0.410291  -0.015133  -0.014976  -0.004550
     7  C   -0.007147  -0.005733  -0.039260   0.403281  -0.062827   0.032849
     8  C   -0.070258   0.056765  -0.026434  -0.030024   0.338929   0.074126
     9  C    0.109032  -0.040793   0.010421   0.000407   0.034328   0.375817
    10  C    0.434719   0.045253   0.013964  -0.012997  -0.007037  -0.014116
    11  C    0.102415  -0.019182  -0.000302  -0.002036  -0.011193  -0.029434
    12  C   -0.000964  -0.021136   0.001983  -0.006524   0.003440  -0.061247
    13  C    0.050274  -0.039212   0.014938   0.004709  -0.047888  -0.023809
    14  C   -0.070727  -0.043930   0.047972  -0.019127   0.039309  -0.068577
    15  H   -0.000105  -0.000080   0.000014  -0.000072   0.000434   0.001091
    16  H   -0.000495  -0.000010  -0.000003   0.000002  -0.000094   0.000920
    17  H    0.001668  -0.000115   0.000010  -0.000004   0.000011  -0.000384
    18  H   -0.004052   0.000922  -0.000120   0.000009  -0.000133   0.000502
    19  H    0.462158  -0.004024   0.001711  -0.000646   0.000030  -0.000195
    20  H   -0.004024   0.445068  -0.008922   0.001793   0.000407   0.000897
    21  H    0.001711  -0.008922   0.432406  -0.008296   0.001228  -0.000345
    22  H   -0.000646   0.001793  -0.008296   0.419778  -0.008660   0.000862
    23  H    0.000030   0.000407   0.001228  -0.008660   0.445797  -0.000541
    24  H   -0.000195   0.000897  -0.000345   0.000862  -0.000541   0.474380
    25  H    0.000422  -0.000201   0.000068   0.000073   0.001518  -0.039261
              25
     1  C    0.077559
     2  C    0.017478
     3  C    0.006709
     4  C   -0.002130
     5  C   -0.023954
     6  C    0.001543
     7  C    0.020022
     8  C    0.093276
     9  C    0.320430
    10  C   -0.016870
    11  C   -0.015861
    12  C   -0.078741
    13  C    0.005863
    14  C   -0.076078
    15  H   -0.000702
    16  H    0.000169
    17  H    0.000082
    18  H    0.000610
    19  H    0.000422
    20  H   -0.000201
    21  H    0.000068
    22  H    0.000073
    23  H    0.001518
    24  H   -0.039261
    25  H    0.482185
 Mulliken charges:
               1
     1  C    0.012250
     2  C   -0.447351
     3  C   -0.418639
     4  C    0.123647
     5  C    0.221380
     6  C   -0.437585
     7  C   -0.368029
     8  C   -0.024000
     9  C   -0.381935
    10  C    0.060688
    11  C   -0.690224
    12  C    0.503476
    13  C   -0.625151
    14  C    0.906615
    15  H    0.248836
    16  H    0.259206
    17  H    0.227416
    18  H    0.226945
    19  H    0.176170
    20  H    0.247830
    21  H    0.228600
    22  H    0.254881
    23  H    0.241119
    24  H    0.228064
    25  H    0.225792
 Sum of Mulliken charges =   1.00000
 Mulliken charges with hydrogens summed into heavy atoms:
               1
     1  C    0.261085
     2  C   -0.188145
     3  C   -0.191222
     4  C    0.350592
     5  C    0.469209
     6  C   -0.208985
     7  C   -0.113148
     8  C    0.217119
     9  C    0.071921
    10  C    0.236858
    11  C   -0.690224
    12  C    0.503476
    13  C   -0.625151
    14  C    0.906615
 Electronic spatial extent (au):  <R**2>=           2819.0274
 Charge=              1.0000 electrons
 Dipole moment (field-independent basis, Debye):
    X=             -0.0283    Y=              0.3249    Z=             -0.0047  Tot=              0.3262
 Quadrupole moment (field-independent basis, Debye-Ang):
   XX=            -28.0261   YY=            -59.9090   ZZ=            -82.8943
   XY=              0.1619   XZ=             -0.4720   YZ=              0.3640
 Traceless Quadrupole moment (field-independent basis, Debye-Ang):
   XX=             28.9170   YY=             -2.9659   ZZ=            -25.9511
   XY=              0.1619   XZ=             -0.4720   YZ=              0.3640
 Octapole moment (field-independent basis, Debye-Ang**2):
  XXX=             -0.2646  YYY=              5.4430  ZZZ=              0.0999  XYY=             -0.0475
  XXY=              0.5099  XXZ=              0.1946  XZZ=              0.0012  YZZ=             -3.0126
  YYZ=              0.2961  XYZ=             -0.3932
 Hexadecapole moment (field-independent basis, Debye-Ang**3):
 XXXX=          -2044.6355 YYYY=           -595.7091 ZZZZ=            -96.3047 XXXY=             -1.1777
 XXXZ=            -11.5842 YYYX=              2.9594 YYYZ=              1.7770 ZZZX=             -0.4890
 ZZZY=              0.0814 XXYY=           -511.4754 XXZZ=           -581.6722 YYZZ=           -137.5576
 XXYZ=              7.2100 YYXZ=             -1.0266 ZZXY=             -0.9842
 N-N= 7.923813586382D+02 E-N=-2.821782925792D+03  KE= 5.386526211245D+02
 Unable to Open any file for archive entry.
 1\1\GINC-GADI-CPU-CLX-0572\SP\RM062X TD-FC\6-311++G(d,p)\C14H11(1+)\TS
 1578\27-Jul-2022\0\\#n M062X/6-311++G(d,p) TD(NStates=1) EmpiricalDisp
 ersion=GD3 SP\\SP_2\\1,1\C,0,2.4927,1.3211,0.034\C,0,3.7015,0.6087,-0.
 026\C,0,3.6839,-0.7471,-0.064\C,0,2.4632,-1.3069,-0.072\C,0,-2.4632,-1
 .3309,-0.008\C,0,-3.6839,-0.7351,0.064\C,0,-3.7015,0.6087,0.038\C,0,-2
 .4927,1.2891,0.034\C,0,0.,1.4301,0.066\C,0,0.,-1.3045,-0.054\C,0,1.262
 1,0.7297,0.06\C,0,1.2375,-0.6801,-0.03\C,0,-1.2621,0.7137,-0.028\C,0,-
 1.2375,-0.6921,-0.022\H,0,2.4881,2.4603,0.036\H,0,4.6368,1.1664,-0.052
 \H,0,4.6093,-1.2557,0.02\H,0,2.4675,-2.4094,-0.074\H,0,0.,-2.4016,-0.0
 56\H,0,-2.4675,-2.4814,-0.01\H,0,-4.6093,-1.2797,0.036\H,0,-4.6368,1.1
 304,0.004\H,0,-2.4881,2.4043,0.036\H,0,-0.004,1.9785,-0.7996\H,0,0.004
 ,1.9785,0.9196\\Version=ES64L-G16RevC.01\State=1-A\HF=-539.7145012\RMS
 D=7.473e-09\PG=C01 [X(C14H11)]\\@
 The archive entry for this job was punched.


 ALL THINGS ARE POSSIBLE EXCEPT SKIING THROUGH A REVOLVING DOOR.
 Job cpu time:       0 days  1 hours 11 minutes 17.2 seconds.
 Elapsed time:       0 days  0 hours  2 minutes 14.0 seconds.
 File lengths (MBytes):  RWF=    460 Int=      0 D2E=      0 Chk=     15 Scr=      1
 Normal termination of Gaussian 16 at Wed Jul 27 11:46:12 2022.
