 Entering Gaussian System, Link 0=g16
 Initial command:
 /apps/gaussian/g16c01/g16/l1.exe "/jobfs/52803152.gadi-pbs/Gau-2799870.inp" -scrdir="/jobfs/52803152.gadi-pbs/"
 Entering Link 1 = /apps/gaussian/g16c01/g16/l1.exe PID=   2799871.
  
 Copyright (c) 1988-2019, Gaussian, Inc.  All Rights Reserved.
  
 This is part of the Gaussian(R) 16 program.  It is based on
 the Gaussian(R) 09 system (copyright 2009, Gaussian, Inc.),
 the Gaussian(R) 03 system (copyright 2003, Gaussian, Inc.),
 the Gaussian(R) 98 system (copyright 1998, Gaussian, Inc.),
 the Gaussian(R) 94 system (copyright 1995, Gaussian, Inc.),
 the Gaussian 92(TM) system (copyright 1992, Gaussian, Inc.),
 the Gaussian 90(TM) system (copyright 1990, Gaussian, Inc.),
 the Gaussian 88(TM) system (copyright 1988, Gaussian, Inc.),
 the Gaussian 86(TM) system (copyright 1986, Carnegie Mellon
 University), and the Gaussian 82(TM) system (copyright 1983,
 Carnegie Mellon University). Gaussian is a federally registered
 trademark of Gaussian, Inc.
  
 This software contains proprietary and confidential information,
 including trade secrets, belonging to Gaussian, Inc.
  
 This software is provided under written license and may be
 used, copied, transmitted, or stored only in accord with that
 written license.
  
 The following legend is applicable only to US Government
 contracts under FAR:
  
                    RESTRICTED RIGHTS LEGEND
  
 Use, reproduction and disclosure by the US Government is
 subject to restrictions as set forth in subparagraphs (a)
 and (c) of the Commercial Computer Software - Restricted
 Rights clause in FAR 52.227-19.
  
 Gaussian, Inc.
 340 Quinnipiac St., Bldg. 40, Wallingford CT 06492
  
  
 ---------------------------------------------------------------
 Warning -- This program may not be used in any manner that
 competes with the business of Gaussian, Inc. or will provide
 assistance to any competitor of Gaussian, Inc.  The licensee
 of this program is prohibited from giving any competitor of
 Gaussian, Inc. access to this program.  By using this program,
 the user acknowledges that Gaussian, Inc. is engaged in the
 business of creating and licensing software in the field of
 computational chemistry and represents and warrants to the
 licensee that it is not a competitor of Gaussian, Inc. and that
 it will not use this program in any manner prohibited above.
 ---------------------------------------------------------------
  

 Cite this work as:
 Gaussian 16, Revision C.01,
 M. J. Frisch, G. W. Trucks, H. B. Schlegel, G. E. Scuseria, 
 M. A. Robb, J. R. Cheeseman, G. Scalmani, V. Barone, 
 G. A. Petersson, H. Nakatsuji, X. Li, M. Caricato, A. V. Marenich, 
 J. Bloino, B. G. Janesko, R. Gomperts, B. Mennucci, H. P. Hratchian, 
 J. V. Ortiz, A. F. Izmaylov, J. L. Sonnenberg, D. Williams-Young, 
 F. Ding, F. Lipparini, F. Egidi, J. Goings, B. Peng, A. Petrone, 
 T. Henderson, D. Ranasinghe, V. G. Zakrzewski, J. Gao, N. Rega, 
 G. Zheng, W. Liang, M. Hada, M. Ehara, K. Toyota, R. Fukuda, 
 J. Hasegawa, M. Ishida, T. Nakajima, Y. Honda, O. Kitao, H. Nakai, 
 T. Vreven, K. Throssell, J. A. Montgomery, Jr., J. E. Peralta, 
 F. Ogliaro, M. J. Bearpark, J. J. Heyd, E. N. Brothers, K. N. Kudin, 
 V. N. Staroverov, T. A. Keith, R. Kobayashi, J. Normand, 
 K. Raghavachari, A. P. Rendell, J. C. Burant, S. S. Iyengar, 
 J. Tomasi, M. Cossi, J. M. Millam, M. Klene, C. Adamo, R. Cammi, 
 J. W. Ochterski, R. L. Martin, K. Morokuma, O. Farkas, 
 J. B. Foresman, and D. J. Fox, Gaussian, Inc., Wallingford CT, 2019.
 
 ******************************************
 Gaussian 16:  ES64L-G16RevC.01  3-Jul-2019
                27-Jul-2022 
 ******************************************
 %NProcShared=32
 Will use up to   32 processors via shared memory.
 %mem = 128GB
 ---------------------------------------------------------------
 #n M062X/6-311++G(d,p) TD(NStates=1) EmpiricalDispersion=GD3 SP
 ---------------------------------------------------------------
 1/38=1,172=1/1;
 2/12=2,17=6,18=5,40=1/2;
 3/5=4,6=6,7=1111,11=9,25=1,30=1,74=-55,124=31/1,2,3,8;
 4//1;
 5/5=2,38=5/2;
 8/6=1,10=2,108=1/1;
 9/41=1,42=1,70=2/14;
 6/7=2,8=2,9=2,10=2/1;
 99/5=1,9=1/99;
 -----
 SP_-2
 -----
 Symbolic Z-matrix:
 Charge =  1 Multiplicity = 1
 C                     2.4927    1.3851   -0.034 
 C                     3.7015    0.7167    0.01 
 C                     3.6839   -0.6811    0.032 
 C                     2.4632   -1.4509    0.056 
 C                    -2.4632   -1.4269    0.024 
 C                    -3.6839   -0.6931   -0.032 
 C                    -3.7015    0.7167   -0.022 
 C                    -2.4927    1.4171   -0.034 
 C                     0.        1.4781   -0.066 
 C                     0.       -1.4785    0.054 
 C                     1.2621    0.6597   -0.038 
 C                     1.2375   -0.7461    0.028 
 C                    -1.2621    0.6757    0.006 
 C                    -1.2375   -0.7341    0.024 
 H                     2.4881    2.4343   -0.036 
 H                     4.6368    1.2384    0.038 
 H                     4.6093   -1.2737   -0.024 
 H                     2.4675   -2.5354    0.058 
 H                     0.       -2.5516    0.056 
 H                    -2.4675   -2.4634    0.026 
 H                    -4.6093   -1.2497   -0.032 
 H                    -4.6368    1.2744    0.01 
 H                    -2.4881    2.4903   -0.036 
 H                     0.004     2.2425   -0.9196 
 H                    -0.004     2.2425    0.7996 
 
                          Input orientation:                          
 ---------------------------------------------------------------------
 Center     Atomic      Atomic             Coordinates (Angstroms)
 Number     Number       Type             X           Y           Z
 ---------------------------------------------------------------------
      1          6           0        2.492700    1.385100   -0.034000
      2          6           0        3.701500    0.716700    0.010000
      3          6           0        3.683900   -0.681100    0.032000
      4          6           0        2.463200   -1.450900    0.056000
      5          6           0       -2.463200   -1.426900    0.024000
      6          6           0       -3.683900   -0.693100   -0.032000
      7          6           0       -3.701500    0.716700   -0.022000
      8          6           0       -2.492700    1.417100   -0.034000
      9          6           0        0.000000    1.478100   -0.066000
     10          6           0        0.000000   -1.478500    0.054000
     11          6           0        1.262100    0.659700   -0.038000
     12          6           0        1.237500   -0.746100    0.028000
     13          6           0       -1.262100    0.675700    0.006000
     14          6           0       -1.237500   -0.734100    0.024000
     15          1           0        2.488100    2.434300   -0.036000
     16          1           0        4.636800    1.238400    0.038000
     17          1           0        4.609300   -1.273700   -0.024000
     18          1           0        2.467500   -2.535400    0.058000
     19          1           0        0.000000   -2.551600    0.056000
     20          1           0       -2.467500   -2.463400    0.026000
     21          1           0       -4.609300   -1.249700   -0.032000
     22          1           0       -4.636800    1.274400    0.010000
     23          1           0       -2.488100    2.490300   -0.036000
     24          1           0        0.004000    2.242500   -0.919600
     25          1           0       -0.004000    2.242500    0.799600
 ---------------------------------------------------------------------
                    Distance matrix (angstroms):
                    1          2          3          4          5
     1  C    0.000000
     2  C    1.381988   0.000000
     3  C    2.385895   1.398084   0.000000
     4  C    2.837581   2.496796   1.443356   0.000000
     5  C    5.698390   6.526771   6.192182   4.926562   0.000000
     6  C    6.516848   7.518872   7.368088   6.194259   1.425380
     7  C    6.230170   7.403069   7.516708   6.535143   2.475989
     8  C    4.985503   6.233828   6.523587   5.726646   2.844744
     9  C    2.494640   3.779763   4.271167   3.829005   3.809787
    10  C    3.797565   4.303713   3.769277   2.463355   2.463923
    11  C    1.428495   2.440538   2.769072   2.430249   4.270317
    12  C    2.474143   2.865555   2.447267   1.414167   3.762803
    13  C    3.821436   4.963771   5.128791   4.289847   2.421547
    14  C    4.290544   5.147692   4.921692   3.769616   1.407946
    15  H    1.049212   2.103475   3.337706   3.886369   6.279159
    16  H    2.150319   1.071327   2.143020   3.457918   7.583800
    17  H    3.398428   2.187910   1.100307   2.154889   7.074322
    18  H    3.921660   3.478680   2.217822   1.084510   5.053883
    19  H    4.660393   4.938117   4.131642   2.697943   2.708012
    20  H    6.278386   6.940450   6.404401   5.033672   1.036511
    21  H    7.574997   8.540368   8.312916   7.075909   2.154131
    22  H    7.130495   8.356930   8.547427   7.605220   3.467240
    23  H    5.101945   6.438860   6.939451   6.329052   3.917739
    24  H    2.777238   4.106547   4.795273   4.543200   4.521278
    25  H    2.768309   4.084393   4.768360   4.503468   4.484832
                    6          7          8          9         10
     6  C    0.000000
     7  C    1.409945   0.000000
     8  C    2.423201   1.397105   0.000000
     9  C    4.276258   3.779255   2.493652   0.000000
    10  C    3.767674   4.304159   3.821753   2.959034   0.000000
    11  C    5.127672   4.963953   3.830430   1.504480   2.484605
    12  C    4.922051   5.151311   4.312502   2.547019   1.438225
    13  C    2.782117   2.439905   1.437237   1.497306   2.497154
    14  C    2.447384   2.859761   2.491295   2.536402   1.444451
    15  H    6.919121   6.423511   5.083608   2.665682   4.637752
    16  H    8.542227   8.354820   7.132103   4.644156   5.374171
    17  H    8.313503   8.545823   7.594663   5.368409   4.614507
    18  H    6.421985   6.974175   6.343052   4.712973   2.684327
    19  H    4.127092   4.938519   4.687455   4.031546   1.073102
    20  H    2.148710   3.411465   3.881046   4.651069   2.656947
    21  H    1.079893   2.165855   3.404676   5.356090   4.615776
    22  H    2.186513   1.089422   2.149294   4.641894   5.392616
    23  H    3.400587   2.148998   1.073212   2.686278   4.685095
    24  H    4.796477   4.106639   2.774722   1.145843   3.846265
    25  H    4.780269   4.083454   2.751327   1.154810   3.794967
                   11         12         13         14         15
    11  C    0.000000
    12  C    1.407563   0.000000
    13  C    2.524634   2.875761   0.000000
    14  C    2.862608   2.475032   1.410129   0.000000
    15  H    2.156916   3.418046   4.142274   4.891059   0.000000
    16  H    3.424802   3.936189   5.925764   6.196640   2.460196
    17  H    3.865486   3.413224   6.186631   5.871843   4.271873
    18  H    3.416265   2.171496   4.921766   4.119813   4.970632
    19  H    3.451692   2.189068   3.465669   2.199031   5.572998
    20  H    4.864953   4.083644   3.362639   2.122117   6.967731
    21  H    6.174073   5.868755   3.861652   3.411453   7.996559
    22  H    5.931035   6.212097   3.427398   3.948355   7.218842
    23  H    4.173140   4.935431   2.190345   3.458953   4.976515
    24  H    2.205740   3.369154   2.216891   3.360335   2.643537
    25  H    2.193134   3.326923   2.160435   3.314095   2.635446
                   16         17         18         19         20
    16  H    0.000000
    17  H    2.513015   0.000000
    18  H    4.352910   2.487151   0.000000
    19  H    5.988684   4.783835   2.467554   0.000000
    20  H    8.010902   7.176279   4.935629   2.469258   0.000000
    21  H    9.575276   9.218635   7.193207   4.790442   2.462466
    22  H    9.273712   9.590846   8.061511   6.011681   4.321720
    23  H    7.234427   8.033737   7.058645   5.623154   4.954131
    24  H    4.836119   5.862981   5.463777   4.892362   5.398886
    25  H    4.808875   5.858713   5.430158   4.851428   5.367754
                   21         22         23         24         25
    21  H    0.000000
    22  H    2.524599   0.000000
    23  H    4.299663   2.469300   0.000000
    24  H    5.853702   4.830983   2.655695   0.000000
    25  H    5.839162   4.798283   2.632562   1.719219   0.000000
 Stoichiometry    C14H11(1+)
 Framework group  C1[X(C14H11)]
 Deg. of freedom    69
 Full point group                 C1      NOp   1
 Largest Abelian subgroup         C1      NOp   1
 Largest concise Abelian subgroup C1      NOp   1
                         Standard orientation:                         
 ---------------------------------------------------------------------
 Center     Atomic      Atomic             Coordinates (Angstroms)
 Number     Number       Type             X           Y           Z
 ---------------------------------------------------------------------
      1          6           0        2.488524   -1.383754    0.011520
      2          6           0        3.699435   -0.718142   -0.011864
      3          6           0        3.685995    0.679835   -0.001025
      4          6           0        2.467650    1.453655   -0.011816
      5          6           0       -2.458888    1.443724   -0.000237
      6          6           0       -3.681939    0.712484    0.033556
      7          6           0       -3.703603   -0.696631   -0.009698
      8          6           0       -2.496907   -1.400752   -0.009318
      9          6           0       -0.004547   -1.469984    0.031280
     10          6           0        0.004554    1.488608   -0.019091
     11          6           0        1.260035   -0.654951    0.027637
     12          6           0        1.239799    0.752080   -0.005352
     13          6           0       -1.263999   -0.662320   -0.026897
     14          6           0       -1.235221    0.747433   -0.011607
     15          1           0        2.480860   -2.432692   -0.011196
     16          1           0        4.633319   -1.241849   -0.048368
     17          1           0        4.612880    1.268168    0.072636
     18          1           0        2.475116    2.537884    0.011730
     19          1           0        0.007687    2.561453    0.004170
     20          1           0       -2.460162    2.479992    0.022144
     21          1           0       -4.605707    1.271710    0.042929
     22          1           0       -4.640384   -1.250609   -0.058584
     23          1           0       -2.495440   -2.473711   -0.032562
     24          1           0       -0.006271   -2.254264    0.866659
     25          1           0       -0.007225   -2.213792   -0.852083
 ---------------------------------------------------------------------
 Rotational constants (GHZ):           2.0511750           0.4445807           0.3662112
 Standard basis: 6-311++G(d,p) (5D, 7F)
 There are   399 symmetry adapted cartesian basis functions of A   symmetry.
 There are   385 symmetry adapted basis functions of A   symmetry.
   385 basis functions,   603 primitive gaussians,   399 cartesian basis functions
    47 alpha electrons       47 beta electrons
       nuclear repulsion energy       775.3856756694 Hartrees.
 NAtoms=   25 NActive=   25 NUniq=   25 SFac= 1.00D+00 NAtFMM=   60 NAOKFM=F Big=F
 Integral buffers will be    131072 words long.
 Regular integral format.
 Two-electron integral symmetry is turned on.
 Nuclear repulsion after empirical dispersion term =      775.3846872863 Hartrees.
 One-electron integrals computed using PRISM.
 NBasis=   385 RedAO= T EigKep=  1.08D-06  NBF=   385
 NBsUse=   380 1.00D-06 EigRej=  5.84D-07 NBFU=   380
 ExpMin= 3.60D-02 ExpMax= 4.56D+03 ExpMxC= 6.82D+02 IAcc=3 IRadAn=         5 AccDes= 0.00D+00
 Harris functional with IExCor= 1009 and IRadAn=       5 diagonalized for initial guess.
 HarFok:  IExCor= 1009 AccDes= 0.00D+00 IRadAn=         5 IDoV= 1 UseB2=F ITyADJ=14
 ICtDFT=  3500011 ScaDFX=  1.000000  1.000000  1.000000  1.000000
 FoFCou: FMM=F IPFlag=           0 FMFlag=      100000 FMFlg1=           0
         NFxFlg=           0 DoJE=T BraDBF=F KetDBF=T FulRan=T
         wScrn=  0.000000 ICntrl=       500 IOpCl=  0 I1Cent=   200000004 NGrid=           0
         NMat0=    1 NMatS0=      1 NMatT0=    0 NMatD0=    1 NMtDS0=    0 NMtDT0=    0
 Petite list used in FoFCou.
 Requested convergence on RMS density matrix=1.00D-08 within 128 cycles.
 Requested convergence on MAX density matrix=1.00D-06.
 Requested convergence on             energy=1.00D-06.
 No special actions if energy rises.
 SCF Done:  E(RM062X) =  -539.739597082     A.U. after   16 cycles
            NFock= 16  Conv=0.54D-08     -V/T= 2.0052
 DoSCS=F DFT=T ScalE2(SS,OS)=  1.000000  1.000000
 ExpMin= 3.60D-02 ExpMax= 4.56D+03 ExpMxC= 6.82D+02 IAcc=3 IRadAn=         5 AccDes= 0.00D+00
 HarFok:  IExCor=  205 AccDes= 0.00D+00 IRadAn=         5 IDoV=-2 UseB2=F ITyADJ=14
 ICtDFT= 12500011 ScaDFX=  1.000000  1.000000  1.000000  1.000000
 Range of M.O.s used for correlation:    15   380
 NBasis=   385 NAE=    47 NBE=    47 NFC=    14 NFV=     0
 NROrb=    366 NOA=    33 NOB=    33 NVA=   333 NVB=   333

 **** Warning!!: The largest alpha MO coefficient is  0.16522971D+03

 Orbital symmetries:
       Occupied  (A) (A) (A) (A) (A) (A) (A) (A) (A) (A) (A) (A)
                 (A) (A) (A) (A) (A) (A) (A) (A) (A) (A) (A) (A)
                 (A) (A) (A) (A) (A) (A) (A) (A) (A) (A) (A) (A)
                 (A) (A) (A) (A) (A) (A) (A) (A) (A) (A) (A)
       Virtual   (A) (A) (A) (A) (A) (A) (A) (A) (A) (A) (A) (A)
                 (A) (A) (A) (A) (A) (A) (A) (A) (A) (A) (A) (A)
                 (A) (A) (A) (A) (A) (A) (A) (A) (A) (A) (A) (A)
                 (A) (A) (A) (A) (A) (A) (A) (A) (A) (A) (A) (A)
                 (A) (A) (A) (A) (A) (A) (A) (A) (A) (A) (A) (A)
                 (A) (A) (A) (A) (A) (A) (A) (A) (A) (A) (A) (A)
                 (A) (A) (A) (A) (A) (A) (A) (A) (A) (A) (A) (A)
                 (A) (A) (A) (A) (A) (A) (A) (A) (A) (A) (A) (A)
                 (A) (A) (A) (A) (A) (A) (A) (A) (A) (A) (A) (A)
                 (A) (A) (A) (A) (A) (A) (A) (A) (A) (A) (A) (A)
                 (A) (A) (A) (A) (A) (A) (A) (A) (A) (A) (A) (A)
                 (A) (A) (A) (A) (A) (A) (A) (A) (A) (A) (A) (A)
                 (A) (A) (A) (A) (A) (A) (A) (A) (A) (A) (A) (A)
                 (A) (A) (A) (A) (A) (A) (A) (A) (A) (A) (A) (A)
                 (A) (A) (A) (A) (A) (A) (A) (A) (A) (A) (A) (A)
                 (A) (A) (A) (A) (A) (A) (A) (A) (A) (A) (A) (A)
                 (A) (A) (A) (A) (A) (A) (A) (A) (A) (A) (A) (A)
                 (A) (A) (A) (A) (A) (A) (A) (A) (A) (A) (A) (A)
                 (A) (A) (A) (A) (A) (A) (A) (A) (A) (A) (A) (A)
                 (A) (A) (A) (A) (A) (A) (A) (A) (A) (A) (A) (A)
                 (A) (A) (A) (A) (A) (A) (A) (A) (A) (A) (A) (A)
                 (A) (A) (A) (A) (A) (A) (A) (A) (A) (A) (A) (A)
                 (A) (A) (A) (A) (A) (A) (A) (A) (A) (A) (A) (A)
                 (A) (A) (A) (A) (A) (A) (A) (A) (A) (A) (A) (A)
                 (A) (A) (A) (A) (A) (A) (A) (A) (A) (A) (A) (A)
                 (A) (A) (A) (A) (A) (A) (A) (A) (A) (A) (A) (A)
                 (A) (A) (A) (A) (A) (A) (A) (A) (A) (A) (A) (A)
                 (A) (A) (A) (A) (A) (A) (A) (A) (A)
     4 initial guesses have been made.
 Convergence on wavefunction:    0.001000000000000
 Iteration     1 Dimension     4 NMult     0 NNew      4
 CISAX will form     4 AO SS matrices at one time.
 Iteration     2 Dimension     6 NMult     4 NNew      2
 Iteration     3 Dimension     8 NMult     6 NNew      2
 Iteration     4 Dimension    10 NMult     8 NNew      2
 Iteration     5 Dimension    12 NMult    10 NNew      2
 Iteration     6 Dimension    14 NMult    12 NNew      2
 ***********************************************************************
 Excited states from <AA,BB:AA,BB> singles matrix:
 ***********************************************************************
 
 Ground to excited state transition densities written to RWF  633
 Ground to excited state transition electric dipole moments (Au):
       state          X           Y           Z        Dip. S.      Osc.
         1        -0.0111     -0.6637      0.0007      0.4406      0.0285
 Ground to excited state transition velocity dipole moments (Au):
       state          X           Y           Z        Dip. S.      Osc.
         1         0.0017      0.0713     -0.0001      0.0051      0.0349
 Ground to excited state transition magnetic dipole moments (Au):
       state          X           Y           Z
         1        -0.0074      0.0045      0.0183
 Ground to excited state transition velocity quadrupole moments (Au):
       state          XX          YY          ZZ          XY          XZ          YZ
         1         0.2838      0.0242     -0.0112      0.0176     -0.0032     -0.0007
 <0|del|b> * <b|rxdel|0> + <0|del|b> * <b|delr+rdel|0>
 Rotatory Strengths (R) in cgs (10**-40 erg-esu-cm/Gauss)
       state          XX          YY          ZZ    R(velocity)    E-M Angle
         1         1.9841     -0.0504      0.2990      0.7442       77.73
 1/2[<0|r|b>*<b|rxdel|0> + (<0|rxdel|b>*<b|r|0>)*]
 Rotatory Strengths (R) in cgs (10**-40 erg-esu-cm/Gauss)
       state          XX          YY          ZZ     R(length)
         1        -0.0578      2.1177     -0.0084      0.6838
  1/2[<0|del|b>*<b|r|0> + (<0|r|b>*<b|del|0>)*] (Au)
       state          X           Y           Z        Dip. S.   Osc.(frdel)
         1        -0.0000     -0.0473     -0.0000      0.0473      0.0315

 Excitation energies and oscillator strengths:
 
 Excited State   1:      Singlet-A      2.6400 eV  469.63 nm  f=0.0285  <S**2>=0.000
      47 -> 48         0.70454
 This state for optimization and/or second-order correction.
 Total Energy, E(TD-HF/TD-DFT) =  -539.642577758    
 Copying the excited state density for this state as the 1-particle RhoCI density.
 SavETr:  write IOETrn=   770 NScale= 10 NData=  16 NLR=1 NState=    1 LETran=      28.

 **********************************************************************

            Population analysis using the SCF Density.

 **********************************************************************

 Orbital symmetries:
       Occupied  (A) (A) (A) (A) (A) (A) (A) (A) (A) (A) (A) (A)
                 (A) (A) (A) (A) (A) (A) (A) (A) (A) (A) (A) (A)
                 (A) (A) (A) (A) (A) (A) (A) (A) (A) (A) (A) (A)
                 (A) (A) (A) (A) (A) (A) (A) (A) (A) (A) (A)
       Virtual   (A) (A) (A) (A) (A) (A) (A) (A) (A) (A) (A) (A)
                 (A) (A) (A) (A) (A) (A) (A) (A) (A) (A) (A) (A)
                 (A) (A) (A) (A) (A) (A) (A) (A) (A) (A) (A) (A)
                 (A) (A) (A) (A) (A) (A) (A) (A) (A) (A) (A) (A)
                 (A) (A) (A) (A) (A) (A) (A) (A) (A) (A) (A) (A)
                 (A) (A) (A) (A) (A) (A) (A) (A) (A) (A) (A) (A)
                 (A) (A) (A) (A) (A) (A) (A) (A) (A) (A) (A) (A)
                 (A) (A) (A) (A) (A) (A) (A) (A) (A) (A) (A) (A)
                 (A) (A) (A) (A) (A) (A) (A) (A) (A) (A) (A) (A)
                 (A) (A) (A) (A) (A) (A) (A) (A) (A) (A) (A) (A)
                 (A) (A) (A) (A) (A) (A) (A) (A) (A) (A) (A) (A)
                 (A) (A) (A) (A) (A) (A) (A) (A) (A) (A) (A) (A)
                 (A) (A) (A) (A) (A) (A) (A) (A) (A) (A) (A) (A)
                 (A) (A) (A) (A) (A) (A) (A) (A) (A) (A) (A) (A)
                 (A) (A) (A) (A) (A) (A) (A) (A) (A) (A) (A) (A)
                 (A) (A) (A) (A) (A) (A) (A) (A) (A) (A) (A) (A)
                 (A) (A) (A) (A) (A) (A) (A) (A) (A) (A) (A) (A)
                 (A) (A) (A) (A) (A) (A) (A) (A) (A) (A) (A) (A)
                 (A) (A) (A) (A) (A) (A) (A) (A) (A) (A) (A) (A)
                 (A) (A) (A) (A) (A) (A) (A) (A) (A) (A) (A) (A)
                 (A) (A) (A) (A) (A) (A) (A) (A) (A) (A) (A) (A)
                 (A) (A) (A) (A) (A) (A) (A) (A) (A) (A) (A) (A)
                 (A) (A) (A) (A) (A) (A) (A) (A) (A) (A) (A) (A)
                 (A) (A) (A) (A) (A) (A) (A) (A) (A) (A) (A) (A)
                 (A) (A) (A) (A) (A) (A) (A) (A) (A) (A) (A) (A)
                 (A) (A) (A) (A) (A) (A) (A) (A) (A) (A) (A) (A)
                 (A) (A) (A) (A) (A) (A) (A) (A) (A) (A) (A) (A)
                 (A) (A) (A) (A) (A) (A) (A) (A) (A)
 The electronic state is 1-A.
 Alpha  occ. eigenvalues --  -10.78206 -10.73811 -10.73685 -10.72876 -10.72845
 Alpha  occ. eigenvalues --  -10.72071 -10.71852 -10.71272 -10.71138 -10.70850
 Alpha  occ. eigenvalues --  -10.70374 -10.70174 -10.70011 -10.69898  -1.15657
 Alpha  occ. eigenvalues --   -1.11661  -1.06363  -1.04814  -1.01234  -0.99242
 Alpha  occ. eigenvalues --   -0.95441  -0.90210  -0.86625  -0.85327  -0.84019
 Alpha  occ. eigenvalues --   -0.77954  -0.75235  -0.74485  -0.69862  -0.69424
 Alpha  occ. eigenvalues --   -0.68318  -0.68042  -0.66513  -0.65128  -0.64877
 Alpha  occ. eigenvalues --   -0.61977  -0.61614  -0.59091  -0.58954  -0.58378
 Alpha  occ. eigenvalues --   -0.57545  -0.56303  -0.53742  -0.52004  -0.46403
 Alpha  occ. eigenvalues --   -0.45586  -0.43919
 Alpha virt. eigenvalues --   -0.26259  -0.15297  -0.14073  -0.13235  -0.11197
 Alpha virt. eigenvalues --   -0.10212  -0.09183  -0.08167  -0.07886  -0.07507
 Alpha virt. eigenvalues --   -0.07275  -0.07196  -0.05668  -0.05642  -0.05451
 Alpha virt. eigenvalues --   -0.03756  -0.03631  -0.03412  -0.03192  -0.02196
 Alpha virt. eigenvalues --   -0.01337  -0.01005   0.00112   0.00243   0.00651
 Alpha virt. eigenvalues --    0.00904   0.01445   0.01568   0.01877   0.02148
 Alpha virt. eigenvalues --    0.02326   0.02559   0.02650   0.02781   0.03400
 Alpha virt. eigenvalues --    0.04197   0.04448   0.04509   0.04720   0.05286
 Alpha virt. eigenvalues --    0.05825   0.06130   0.06690   0.07019   0.07071
 Alpha virt. eigenvalues --    0.07855   0.07878   0.08333   0.08535   0.08874
 Alpha virt. eigenvalues --    0.09292   0.09491   0.10120   0.10496   0.10743
 Alpha virt. eigenvalues --    0.11295   0.11413   0.12199   0.12249   0.12869
 Alpha virt. eigenvalues --    0.13221   0.13537   0.13749   0.14186   0.14237
 Alpha virt. eigenvalues --    0.15354   0.15944   0.17107   0.17182   0.17417
 Alpha virt. eigenvalues --    0.17638   0.17927   0.18965   0.19002   0.19493
 Alpha virt. eigenvalues --    0.19614   0.21166   0.21628   0.22293   0.22413
 Alpha virt. eigenvalues --    0.23640   0.23931   0.24563   0.26562   0.26893
 Alpha virt. eigenvalues --    0.27717   0.28199   0.28773   0.28980   0.31808
 Alpha virt. eigenvalues --    0.34447   0.35185   0.37420   0.38819   0.40522
 Alpha virt. eigenvalues --    0.41377   0.41524   0.41965   0.43174   0.43535
 Alpha virt. eigenvalues --    0.43679   0.44331   0.44910   0.45293   0.45814
 Alpha virt. eigenvalues --    0.47288   0.48642   0.48809   0.49180   0.50401
 Alpha virt. eigenvalues --    0.50506   0.51016   0.51951   0.52497   0.52893
 Alpha virt. eigenvalues --    0.53296   0.53960   0.54814   0.55528   0.55702
 Alpha virt. eigenvalues --    0.56925   0.58125   0.58177   0.61266   0.61731
 Alpha virt. eigenvalues --    0.62932   0.63317   0.63910   0.64072   0.64503
 Alpha virt. eigenvalues --    0.66097   0.68835   0.69838   0.70545   0.71800
 Alpha virt. eigenvalues --    0.72319   0.74816   0.75493   0.75659   0.76076
 Alpha virt. eigenvalues --    0.76432   0.77011   0.77288   0.78298   0.79834
 Alpha virt. eigenvalues --    0.80031   0.80467   0.81631   0.82377   0.83156
 Alpha virt. eigenvalues --    0.84276   0.86601   0.87285   0.87905   0.88722
 Alpha virt. eigenvalues --    0.89709   0.90424   0.91554   0.93613   0.94807
 Alpha virt. eigenvalues --    0.95749   0.96157   0.99557   1.00260   1.01498
 Alpha virt. eigenvalues --    1.01908   1.02867   1.03281   1.04664   1.05646
 Alpha virt. eigenvalues --    1.09290   1.17278   1.20723   1.22529   1.24013
 Alpha virt. eigenvalues --    1.26090   1.29488   1.32106   1.35474   1.35923
 Alpha virt. eigenvalues --    1.36382   1.38717   1.38985   1.39858   1.41632
 Alpha virt. eigenvalues --    1.42136   1.42927   1.43716   1.43790   1.45468
 Alpha virt. eigenvalues --    1.45989   1.47280   1.48256   1.49438   1.52272
 Alpha virt. eigenvalues --    1.54956   1.55134   1.55457   1.56342   1.56761
 Alpha virt. eigenvalues --    1.60688   1.63934   1.64038   1.64700   1.65337
 Alpha virt. eigenvalues --    1.65685   1.68537   1.69065   1.69226   1.73663
 Alpha virt. eigenvalues --    1.74935   1.75545   1.76849   1.78134   1.79002
 Alpha virt. eigenvalues --    1.79623   1.81245   1.81790   1.82600   1.83133
 Alpha virt. eigenvalues --    1.83982   1.84051   1.85659   1.86550   1.87374
 Alpha virt. eigenvalues --    1.90181   1.92314   1.93549   1.94493   1.96477
 Alpha virt. eigenvalues --    1.97164   1.98589   2.00085   2.04539   2.05201
 Alpha virt. eigenvalues --    2.08692   2.10775   2.13441   2.14028   2.17013
 Alpha virt. eigenvalues --    2.17892   2.19841   2.24068   2.28498   2.31489
 Alpha virt. eigenvalues --    2.33272   2.34449   2.37810   2.38747   2.39283
 Alpha virt. eigenvalues --    2.40753   2.42345   2.43445   2.48877   2.49162
 Alpha virt. eigenvalues --    2.51970   2.54998   2.57253   2.57762   2.58642
 Alpha virt. eigenvalues --    2.59739   2.59861   2.60980   2.62260   2.62457
 Alpha virt. eigenvalues --    2.63136   2.63591   2.64375   2.64704   2.65342
 Alpha virt. eigenvalues --    2.66036   2.68079   2.68192   2.71050   2.73054
 Alpha virt. eigenvalues --    2.73781   2.75327   2.76143   2.79310   2.81974
 Alpha virt. eigenvalues --    2.82841   2.84085   2.85142   2.90700   2.94746
 Alpha virt. eigenvalues --    2.98207   2.98658   3.01711   3.06588   3.09965
 Alpha virt. eigenvalues --    3.11351   3.16883   3.19057   3.23425   3.25236
 Alpha virt. eigenvalues --    3.27261   3.28410   3.30200   3.41234   3.42921
 Alpha virt. eigenvalues --    3.45763   3.46516   3.47269   3.49148   3.53051
 Alpha virt. eigenvalues --    3.65959   3.67272   3.90735   3.93288   3.96444
 Alpha virt. eigenvalues --    3.97647   4.06570   4.08412   4.10264   4.12860
 Alpha virt. eigenvalues --    4.30776   4.55572   4.66448   4.68320  23.46609
 Alpha virt. eigenvalues --   23.60672  23.78144  23.79726  23.83343  23.85549
 Alpha virt. eigenvalues --   23.87347  23.89510  23.93337  23.94724  23.95988
 Alpha virt. eigenvalues --   23.97605  24.04884  24.09206
          Condensed to atoms (all electrons):
               1          2          3          4          5          6
     1  C   13.545580  -0.595748  -1.417382   4.468591  -0.387314  -0.007951
     2  C   -0.595748   7.120197   0.366200  -1.558997   0.049211  -0.019736
     3  C   -1.417382   0.366200   6.835057  -0.143051  -0.023703   0.008087
     4  C    4.468591  -1.558997  -0.143051  13.237307  -0.824858  -0.021178
     5  C   -0.387314   0.049211  -0.023703  -0.824858  12.573716   0.528556
     6  C   -0.007951  -0.019736   0.008087  -0.021178   0.528556   6.648698
     7  C    0.115390  -0.005858  -0.026755   0.078726  -1.762771   0.316349
     8  C   -0.922613   0.091862   0.034363  -0.635319   4.102145  -1.108926
     9  C   -0.769404  -0.520890   0.084960  -0.407221   0.517040   0.225631
    10  C    0.195392   0.034123  -0.611153  -0.608128  -1.685063  -0.590427
    11  C   -5.142280  -0.126828   1.843954  -2.755642  -1.098574  -0.134920
    12  C   -4.368740   1.719903  -0.201765  -5.512705   0.749144  -0.370276
    13  C    1.102627  -0.298836  -0.115154  -0.670162  -2.505439   1.497621
    14  C   -0.122037  -0.179328  -0.520180   1.095025  -4.496531  -0.836891
    15  H    0.478134  -0.142401  -0.006461   0.061057  -0.001522   0.002024
    16  H   -0.081187   0.410295  -0.015796  -0.016758  -0.000823  -0.000374
    17  H   -0.034901  -0.014532   0.386878  -0.093001   0.000869   0.000386
    18  H    0.087619  -0.001929  -0.130088   0.531019  -0.001889  -0.003541
    19  H   -0.035901  -0.010083   0.048998  -0.051217  -0.045382   0.041071
    20  H    0.000500   0.002883  -0.003445  -0.002233   0.522322  -0.134352
    21  H   -0.000478  -0.000356   0.000308   0.000436  -0.091810   0.397316
    22  H    0.002215   0.000319  -0.000418  -0.000393  -0.012550  -0.016018
    23  H   -0.018896  -0.000632   0.002112  -0.004044   0.061997  -0.000633
    24  H   -0.010460   0.009955   0.007005  -0.003575  -0.007553  -0.001834
    25  H    0.060413   0.006562  -0.009776  -0.005346  -0.014543  -0.001405
               7          8          9         10         11         12
     1  C    0.115390  -0.922613  -0.769404   0.195392  -5.142280  -4.368740
     2  C   -0.005858   0.091862  -0.520890   0.034123  -0.126828   1.719903
     3  C   -0.026755   0.034363   0.084960  -0.611153   1.843954  -0.201765
     4  C    0.078726  -0.635319  -0.407221  -0.608128  -2.755642  -5.512705
     5  C   -1.762771   4.102145   0.517040  -1.685063  -1.098574   0.749144
     6  C    0.316349  -1.108926   0.225631  -0.590427  -0.134920  -0.370276
     7  C    7.326221  -1.388668  -0.942804   0.055609  -0.224629  -0.286535
     8  C   -1.388668  15.843761  -0.151971   0.239716   0.868316   0.253693
     9  C   -0.942804  -0.151971   9.092505   0.558533   0.919491  -1.088930
    10  C    0.055609   0.239716   0.558533   9.124696  -1.169131   0.338352
    11  C   -0.224629   0.868316   0.919491  -1.169131  18.465221  -1.549279
    12  C   -0.286535   0.253693  -1.088930   0.338352  -1.549279  20.744608
    13  C    0.739869  -7.368584   0.182028  -1.402136   1.471420  -5.444097
    14  C    2.008127  -4.022135  -2.096404   1.027984  -5.088549   0.526770
    15  H   -0.000662  -0.016048   0.084593  -0.001133  -0.093490  -0.062983
    16  H    0.000356   0.001855  -0.000006  -0.011548   0.073833  -0.019543
    17  H   -0.000473  -0.000497  -0.005689   0.006365   0.000003   0.097250
    18  H    0.003075  -0.000869  -0.021111   0.096317  -0.070879  -0.184258
    19  H   -0.008393  -0.031330   0.060811   0.412190   0.067316  -0.046231
    20  H   -0.008217   0.101200  -0.020469   0.088888  -0.010829   0.036827
    21  H   -0.017323  -0.040321  -0.002348   0.001584  -0.003959   0.000882
    22  H    0.410459  -0.099119  -0.002148  -0.011231   0.002497  -0.009339
    23  H   -0.140676   0.510483   0.104676  -0.001282   0.014884   0.017963
    24  H   -0.003081   0.034679   0.344713   0.006584   0.036169  -0.024532
    25  H    0.024476  -0.021945   0.368535   0.006975  -0.032528  -0.066504
              13         14         15         16         17         18
     1  C    1.102627  -0.122037   0.478134  -0.081187  -0.034901   0.087619
     2  C   -0.298836  -0.179328  -0.142401   0.410295  -0.014532  -0.001929
     3  C   -0.115154  -0.520180  -0.006461  -0.015796   0.386878  -0.130088
     4  C   -0.670162   1.095025   0.061057  -0.016758  -0.093001   0.531019
     5  C   -2.505439  -4.496531  -0.001522  -0.000823   0.000869  -0.001889
     6  C    1.497621  -0.836891   0.002024  -0.000374   0.000386  -0.003541
     7  C    0.739869   2.008127  -0.000662   0.000356  -0.000473   0.003075
     8  C   -7.368584  -4.022135  -0.016048   0.001855  -0.000497  -0.000869
     9  C    0.182028  -2.096404   0.084593  -0.000006  -0.005689  -0.021111
    10  C   -1.402136   1.027984  -0.001133  -0.011548   0.006365   0.096317
    11  C    1.471420  -5.088549  -0.093490   0.073833   0.000003  -0.070879
    12  C   -5.444097   0.526770  -0.062983  -0.019543   0.097250  -0.184258
    13  C   21.525913  -2.579154   0.024058   0.004107  -0.004856  -0.007857
    14  C   -2.579154  20.798258   0.010237  -0.008529   0.001174   0.040131
    15  H    0.024058   0.010237   0.448835  -0.011977   0.001249   0.000551
    16  H    0.004107  -0.008529  -0.011977   0.425360  -0.007050   0.001783
    17  H   -0.004856   0.001174   0.001249  -0.007050   0.427221  -0.011055
    18  H   -0.007857   0.040131   0.000551   0.001783  -0.011055   0.456174
    19  H    0.059887  -0.088653   0.000526  -0.000571   0.001497  -0.006854
    20  H   -0.091663  -0.136562  -0.000226   0.000032  -0.000164   0.001256
    21  H    0.015011   0.081625   0.000027  -0.000008   0.000012  -0.000149
    22  H    0.085582  -0.018328  -0.000137   0.000010  -0.000008   0.000031
    23  H   -0.165177  -0.045884   0.000575  -0.000129   0.000018  -0.000162
    24  H   -0.029363  -0.026647  -0.002968   0.000084   0.000177   0.000070
    25  H    0.080267  -0.057462   0.000293   0.001145  -0.000374   0.000171
              19         20         21         22         23         24
     1  C   -0.035901   0.000500  -0.000478   0.002215  -0.018896  -0.010460
     2  C   -0.010083   0.002883  -0.000356   0.000319  -0.000632   0.009955
     3  C    0.048998  -0.003445   0.000308  -0.000418   0.002112   0.007005
     4  C   -0.051217  -0.002233   0.000436  -0.000393  -0.004044  -0.003575
     5  C   -0.045382   0.522322  -0.091810  -0.012550   0.061997  -0.007553
     6  C    0.041071  -0.134352   0.397316  -0.016018  -0.000633  -0.001834
     7  C   -0.008393  -0.008217  -0.017323   0.410459  -0.140676  -0.003081
     8  C   -0.031330   0.101200  -0.040321  -0.099119   0.510483   0.034679
     9  C    0.060811  -0.020469  -0.002348  -0.002148   0.104676   0.344713
    10  C    0.412190   0.088888   0.001584  -0.011231  -0.001282   0.006584
    11  C    0.067316  -0.010829  -0.003959   0.002497   0.014884   0.036169
    12  C   -0.046231   0.036827   0.000882  -0.009339   0.017963  -0.024532
    13  C    0.059887  -0.091663   0.015011   0.085582  -0.165177  -0.029363
    14  C   -0.088653  -0.136562   0.081625  -0.018328  -0.045884  -0.026647
    15  H    0.000526  -0.000226   0.000027  -0.000137   0.000575  -0.002968
    16  H   -0.000571   0.000032  -0.000008   0.000010  -0.000129   0.000084
    17  H    0.001497  -0.000164   0.000012  -0.000008   0.000018   0.000177
    18  H   -0.006854   0.001256  -0.000149   0.000031  -0.000162   0.000070
    19  H    0.434728  -0.007079   0.001252  -0.000490   0.000372   0.000667
    20  H   -0.007079   0.470233  -0.013127   0.001886   0.000697  -0.000240
    21  H    0.001252  -0.013127   0.426940  -0.006783   0.001185  -0.000011
    22  H   -0.000490   0.001886  -0.006783   0.423506  -0.012241   0.000141
    23  H    0.000372   0.000697   0.001185  -0.012241   0.448242   0.002779
    24  H    0.000667  -0.000240  -0.000011   0.000141   0.002779   0.488794
    25  H    0.000253   0.000437  -0.000232   0.001221  -0.005769  -0.086861
              25
     1  C    0.060413
     2  C    0.006562
     3  C   -0.009776
     4  C   -0.005346
     5  C   -0.014543
     6  C   -0.001405
     7  C    0.024476
     8  C   -0.021945
     9  C    0.368535
    10  C    0.006975
    11  C   -0.032528
    12  C   -0.066504
    13  C    0.080267
    14  C   -0.057462
    15  H    0.000293
    16  H    0.001145
    17  H   -0.000374
    18  H    0.000171
    19  H    0.000253
    20  H    0.000437
    21  H   -0.000232
    22  H    0.001221
    23  H   -0.005769
    24  H   -0.086861
    25  H    0.493233
 Mulliken charges:
               1
     1  C   -0.141170
     2  C   -0.335356
     3  C   -0.392796
     4  C   -0.158329
     5  C   -0.144671
     6  C   -0.417278
     7  C   -0.261814
     8  C   -0.273727
     9  C   -0.514121
    10  C   -0.102076
    11  C   -0.261587
    12  C    0.750326
    13  C   -0.105910
    14  C    0.733943
    15  H    0.227849
    16  H    0.255438
    17  H    0.249502
    18  H    0.222443
    19  H    0.202617
    20  H    0.201444
    21  H    0.250325
    22  H    0.261336
    23  H    0.229543
    24  H    0.265310
    25  H    0.258763
 Sum of Mulliken charges =   1.00000
 Mulliken charges with hydrogens summed into heavy atoms:
               1
     1  C    0.086679
     2  C   -0.079918
     3  C   -0.143294
     4  C    0.064114
     5  C    0.056772
     6  C   -0.166953
     7  C   -0.000479
     8  C   -0.044185
     9  C    0.009952
    10  C    0.100541
    11  C   -0.261587
    12  C    0.750326
    13  C   -0.105910
    14  C    0.733943
 Electronic spatial extent (au):  <R**2>=           2876.4248
 Charge=              1.0000 electrons
 Dipole moment (field-independent basis, Debye):
    X=             -0.0175    Y=              0.1226    Z=             -0.0069  Tot=              0.1240
 Quadrupole moment (field-independent basis, Debye-Ang):
   XX=            -32.6255   YY=            -54.4466   ZZ=            -84.7898
   XY=              0.1823   XZ=              0.2727   YZ=              0.3596
 Traceless Quadrupole moment (field-independent basis, Debye-Ang):
   XX=             24.6618   YY=              2.8407   ZZ=            -27.5025
   XY=              0.1823   XZ=              0.2727   YZ=              0.3596
 Octapole moment (field-independent basis, Debye-Ang**2):
  XXX=             -0.7179  YYY=              4.9562  ZZZ=              0.0353  XYY=              0.0024
  XXY=             -7.7337  XXZ=              0.0159  XZZ=              0.0264  YZZ=             -3.0562
  YYZ=              0.2827  XYZ=              0.1711
 Hexadecapole moment (field-independent basis, Debye-Ang**3):
 XXXX=          -2162.7412 YYYY=           -617.0839 ZZZZ=           -101.4835 XXXY=             -2.3546
 XXXZ=              6.2157 YYYX=              3.4962 YYYZ=              1.6003 ZZZX=              0.3143
 ZZZY=              0.2127 XXYY=           -507.1947 XXZZ=           -594.9969 YYZZ=           -150.4481
 XXYZ=              7.5333 YYXZ=              0.7564 ZZXY=             -0.9015
 N-N= 7.753846872863D+02 E-N=-2.786711783071D+03  KE= 5.369593021378D+02
 Unable to Open any file for archive entry.
 1\1\GINC-GADI-CPU-CLX-0572\SP\RM062X TD-FC\6-311++G(d,p)\C14H11(1+)\TS
 1578\27-Jul-2022\0\\#n M062X/6-311++G(d,p) TD(NStates=1) EmpiricalDisp
 ersion=GD3 SP\\SP_-2\\1,1\C,0,2.4927,1.3851,-0.034\C,0,3.7015,0.7167,0
 .01\C,0,3.6839,-0.6811,0.032\C,0,2.4632,-1.4509,0.056\C,0,-2.4632,-1.4
 269,0.024\C,0,-3.6839,-0.6931,-0.032\C,0,-3.7015,0.7167,-0.022\C,0,-2.
 4927,1.4171,-0.034\C,0,0.,1.4781,-0.066\C,0,0.,-1.4785,0.054\C,0,1.262
 1,0.6597,-0.038\C,0,1.2375,-0.7461,0.028\C,0,-1.2621,0.6757,0.006\C,0,
 -1.2375,-0.7341,0.024\H,0,2.4881,2.4343,-0.036\H,0,4.6368,1.2384,0.038
 \H,0,4.6093,-1.2737,-0.024\H,0,2.4675,-2.5354,0.058\H,0,0.,-2.5516,0.0
 56\H,0,-2.4675,-2.4634,0.026\H,0,-4.6093,-1.2497,-0.032\H,0,-4.6368,1.
 2744,0.01\H,0,-2.4881,2.4903,-0.036\H,0,0.004,2.2425,-0.9196\H,0,-0.00
 4,2.2425,0.7996\\Version=ES64L-G16RevC.01\State=1-A\HF=-539.7395971\RM
 SD=5.444e-09\PG=C01 [X(C14H11)]\\@
 The archive entry for this job was punched.


 HEAVEN'S NET CASTS WIDE.
 THOUGH ITS MESHES ARE COARSE, NOTHING SLIPS THROUGH.

                                          -- LAO-TSU
 Job cpu time:       0 days  1 hours 13 minutes 10.9 seconds.
 Elapsed time:       0 days  0 hours  2 minutes 17.7 seconds.
 File lengths (MBytes):  RWF=    461 Int=      0 D2E=      0 Chk=     15 Scr=      1
 Normal termination of Gaussian 16 at Wed Jul 27 10:18:08 2022.
