 Entering Gaussian System, Link 0=g16
 Initial command:
 /apps/gaussian/g16c01/g16/l1.exe "/jobfs/52803152.gadi-pbs/Gau-2757534.inp" -scrdir="/jobfs/52803152.gadi-pbs/"
 Entering Link 1 = /apps/gaussian/g16c01/g16/l1.exe PID=   2757535.
  
 Copyright (c) 1988-2019, Gaussian, Inc.  All Rights Reserved.
  
 This is part of the Gaussian(R) 16 program.  It is based on
 the Gaussian(R) 09 system (copyright 2009, Gaussian, Inc.),
 the Gaussian(R) 03 system (copyright 2003, Gaussian, Inc.),
 the Gaussian(R) 98 system (copyright 1998, Gaussian, Inc.),
 the Gaussian(R) 94 system (copyright 1995, Gaussian, Inc.),
 the Gaussian 92(TM) system (copyright 1992, Gaussian, Inc.),
 the Gaussian 90(TM) system (copyright 1990, Gaussian, Inc.),
 the Gaussian 88(TM) system (copyright 1988, Gaussian, Inc.),
 the Gaussian 86(TM) system (copyright 1986, Carnegie Mellon
 University), and the Gaussian 82(TM) system (copyright 1983,
 Carnegie Mellon University). Gaussian is a federally registered
 trademark of Gaussian, Inc.
  
 This software contains proprietary and confidential information,
 including trade secrets, belonging to Gaussian, Inc.
  
 This software is provided under written license and may be
 used, copied, transmitted, or stored only in accord with that
 written license.
  
 The following legend is applicable only to US Government
 contracts under FAR:
  
                    RESTRICTED RIGHTS LEGEND
  
 Use, reproduction and disclosure by the US Government is
 subject to restrictions as set forth in subparagraphs (a)
 and (c) of the Commercial Computer Software - Restricted
 Rights clause in FAR 52.227-19.
  
 Gaussian, Inc.
 340 Quinnipiac St., Bldg. 40, Wallingford CT 06492
  
  
 ---------------------------------------------------------------
 Warning -- This program may not be used in any manner that
 competes with the business of Gaussian, Inc. or will provide
 assistance to any competitor of Gaussian, Inc.  The licensee
 of this program is prohibited from giving any competitor of
 Gaussian, Inc. access to this program.  By using this program,
 the user acknowledges that Gaussian, Inc. is engaged in the
 business of creating and licensing software in the field of
 computational chemistry and represents and warrants to the
 licensee that it is not a competitor of Gaussian, Inc. and that
 it will not use this program in any manner prohibited above.
 ---------------------------------------------------------------
  

 Cite this work as:
 Gaussian 16, Revision C.01,
 M. J. Frisch, G. W. Trucks, H. B. Schlegel, G. E. Scuseria, 
 M. A. Robb, J. R. Cheeseman, G. Scalmani, V. Barone, 
 G. A. Petersson, H. Nakatsuji, X. Li, M. Caricato, A. V. Marenich, 
 J. Bloino, B. G. Janesko, R. Gomperts, B. Mennucci, H. P. Hratchian, 
 J. V. Ortiz, A. F. Izmaylov, J. L. Sonnenberg, D. Williams-Young, 
 F. Ding, F. Lipparini, F. Egidi, J. Goings, B. Peng, A. Petrone, 
 T. Henderson, D. Ranasinghe, V. G. Zakrzewski, J. Gao, N. Rega, 
 G. Zheng, W. Liang, M. Hada, M. Ehara, K. Toyota, R. Fukuda, 
 J. Hasegawa, M. Ishida, T. Nakajima, Y. Honda, O. Kitao, H. Nakai, 
 T. Vreven, K. Throssell, J. A. Montgomery, Jr., J. E. Peralta, 
 F. Ogliaro, M. J. Bearpark, J. J. Heyd, E. N. Brothers, K. N. Kudin, 
 V. N. Staroverov, T. A. Keith, R. Kobayashi, J. Normand, 
 K. Raghavachari, A. P. Rendell, J. C. Burant, S. S. Iyengar, 
 J. Tomasi, M. Cossi, J. M. Millam, M. Klene, C. Adamo, R. Cammi, 
 J. W. Ochterski, R. L. Martin, K. Morokuma, O. Farkas, 
 J. B. Foresman, and D. J. Fox, Gaussian, Inc., Wallingford CT, 2019.
 
 ******************************************
 Gaussian 16:  ES64L-G16RevC.01  3-Jul-2019
                27-Jul-2022 
 ******************************************
 %NProcShared=32
 Will use up to   32 processors via shared memory.
 %mem = 128GB
 ---------------------------------------------------------------
 #n M062X/6-311++G(d,p) TD(NStates=1) EmpiricalDispersion=GD3 SP
 ---------------------------------------------------------------
 1/38=1,172=1/1;
 2/12=2,17=6,18=5,40=1/2;
 3/5=4,6=6,7=1111,11=9,25=1,30=1,74=-55,124=31/1,2,3,8;
 4//1;
 5/5=2,38=5/2;
 8/6=1,10=2,108=1/1;
 9/41=1,42=1,70=2/14;
 6/7=2,8=2,9=2,10=2/1;
 99/5=1,9=1/99;
 -----
 SP_-4
 -----
 Symbolic Z-matrix:
 Charge =  1 Multiplicity = 1
 C                     2.4927    1.3211   -0.068 
 C                     3.7015    0.6627   -0.02 
 C                     3.6839   -0.7021   -0.016 
 C                     2.4632   -1.4029    0.072 
 C                    -2.4632   -1.3549    0.088 
 C                    -3.6839   -0.7261    0.016 
 C                    -3.7015    0.6627   -0.004 
 C                    -2.4927    1.3851   -0.068 
 C                     0.        1.4541   -0.132 
 C                     0.       -1.3915    0.108 
 C                     1.2621    0.6787   -0.021 
 C                     1.2375   -0.7251    0.051 
 C                    -1.2621    0.7107   -0.043 
 C                    -1.2375   -0.7011    0.053 
 H                     2.4881    2.3913   -0.072 
 H                     4.6368    1.1664    0.041 
 H                     4.6093   -1.2887   -0.058 
 H                     2.4675   -2.5444    0.076 
 H                     0.       -2.4766    0.112 
 H                    -2.4675   -2.4004    0.092 
 H                    -4.6093   -1.2407   -0.054 
 H                    -4.6368    1.2384    0.055 
 H                    -2.4881    2.5033   -0.072 
 H                     0.008     2.1105   -0.9796 
 H                    -0.008     2.1105    0.7396 
 
                          Input orientation:                          
 ---------------------------------------------------------------------
 Center     Atomic      Atomic             Coordinates (Angstroms)
 Number     Number       Type             X           Y           Z
 ---------------------------------------------------------------------
      1          6           0        2.492700    1.321100   -0.068000
      2          6           0        3.701500    0.662700   -0.020000
      3          6           0        3.683900   -0.702100   -0.016000
      4          6           0        2.463200   -1.402900    0.072000
      5          6           0       -2.463200   -1.354900    0.088000
      6          6           0       -3.683900   -0.726100    0.016000
      7          6           0       -3.701500    0.662700   -0.004000
      8          6           0       -2.492700    1.385100   -0.068000
      9          6           0        0.000000    1.454100   -0.132000
     10          6           0        0.000000   -1.391500    0.108000
     11          6           0        1.262100    0.678700   -0.021000
     12          6           0        1.237500   -0.725100    0.051000
     13          6           0       -1.262100    0.710700   -0.043000
     14          6           0       -1.237500   -0.701100    0.053000
     15          1           0        2.488100    2.391300   -0.072000
     16          1           0        4.636800    1.166400    0.041000
     17          1           0        4.609300   -1.288700   -0.058000
     18          1           0        2.467500   -2.544400    0.076000
     19          1           0        0.000000   -2.476600    0.112000
     20          1           0       -2.467500   -2.400400    0.092000
     21          1           0       -4.609300   -1.240700   -0.054000
     22          1           0       -4.636800    1.238400    0.055000
     23          1           0       -2.488100    2.503300   -0.072000
     24          1           0        0.008000    2.110500   -0.979600
     25          1           0       -0.008000    2.110500    0.739600
 ---------------------------------------------------------------------
                    Distance matrix (angstroms):
                    1          2          3          4          5
     1  C    0.000000
     2  C    1.377313   0.000000
     3  C    2.348404   1.364919   0.000000
     4  C    2.727755   2.410094   1.410310   0.000000
     5  C    5.634382   6.487365   6.182540   4.926660   0.000000
     6  C    6.507570   7.514931   7.367909   6.184499   1.375021
     7  C    6.229422   7.403017   7.510456   6.502000   2.369084
     8  C    4.985811   6.236367   6.519931   5.688013   2.744596
     9  C    2.497066   3.786814   4.270102   3.777753   3.742491
    10  C    3.688188   4.235236   3.749902   2.463489   2.463553
    11  C    1.388979   2.439453   2.787786   2.405067   4.245618
    12  C    2.403461   2.828838   2.447425   1.400783   3.754091
    13  C    3.804174   4.963885   5.143894   4.284669   2.393012
    14  C    4.244800   5.124354   4.921884   3.766705   1.389611
    15  H    1.070217   2.112605   3.316956   3.797013   6.210876
    16  H    2.152435   1.064059   2.098228   3.365531   7.534531
    17  H    3.360231   2.152558   1.096462   2.153065   7.074317
    18  H    3.868263   3.437654   2.209562   1.141515   5.072165
    19  H    4.546260   4.855279   4.091009   2.687338   2.706685
    20  H    6.203124   6.888518   6.382445   5.030627   1.045516
    21  H    7.549928   8.526047   8.310758   7.075482   2.153822
    22  H    7.131040   8.358487   8.544275   7.575405   3.383908
    23  H    5.119178   6.457682   6.954949   6.308289   3.861596
    24  H    2.761865   4.081531   4.727736   4.413372   4.388120
    25  H    2.743879   4.053826   4.702316   4.347010   4.296695
                    6          7          8          9         10
     6  C    0.000000
     7  C    1.389056   0.000000
     8  C    2.425527   1.409665   0.000000
     9  C    4.283258   3.787321   2.494476   0.000000
    10  C    3.744642   4.234783   3.735510   2.855703   0.000000
    11  C    5.141765   4.963655   3.820960   1.485417   2.428017
    12  C    4.921525   5.130569   4.287365   2.512729   1.406678
    13  C    2.816556   2.440184   1.403502   1.467468   2.456612
    14  C    2.446808   2.816824   2.437704   2.492091   1.418127
    15  H    6.915165   6.426806   5.081419   2.659433   4.531293
    16  H    8.533243   8.353621   7.133686   4.648937   5.295966
    17  H    8.312591   8.536994   7.588657   5.364147   4.613434
    18  H    6.414790   6.953305   6.329715   4.703172   2.723740
    19  H    4.079778   4.854870   4.599857   3.938266   1.085107
    20  H    2.070914   3.303718   3.788964   4.582129   2.665838
    21  H    1.061168   2.109391   3.372687   5.339820   4.614611
    22  H    2.183758   1.099863   2.152630   4.645580   5.330957
    23  H    3.444809   2.205623   1.118217   2.700937   4.625204
    24  H    4.761055   4.099794   2.758753   1.072078   3.667007
    25  H    4.699163   4.036212   2.711486   1.091151   3.558509
                   11         12         13         14         15
    11  C    0.000000
    12  C    1.405860   0.000000
    13  C    2.524499   2.884156   0.000000
    14  C    2.856103   2.475117   1.415274   0.000000
    15  H    2.106816   3.360220   4.109654   4.843414   0.000000
    16  H    3.410322   3.890130   5.917072   6.164017   2.475896
    17  H    3.882754   3.420316   6.202513   5.877301   4.247598
    18  H    3.442495   2.196219   4.951742   4.138274   4.937961
    19  H    3.400956   2.145432   3.431589   2.165014   5.470004
    20  H    4.837721   4.066366   3.339185   2.098104   6.895307
    21  H    6.177259   5.870429   3.874510   3.416380   7.972756
    22  H    5.925881   6.193767   3.417114   3.913682   7.218692
    23  H    4.170823   4.931307   2.171942   3.442064   4.977460
    24  H    2.131134   3.257980   2.109458   3.243860   2.655839
    25  H    2.059543   3.172707   2.035846   3.144548   2.639708
                   16         17         18         19         20
    16  H    0.000000
    17  H    2.457249   0.000000
    18  H    4.298503   2.486372   0.000000
    19  H    5.897152   4.762946   2.468694   0.000000
    20  H    7.949575   7.165157   4.937126   2.468757   0.000000
    21  H    9.554764   9.218726   7.197057   4.775003   2.439985
    22  H    9.273890   9.585894   8.048670   5.941750   4.236519
    23  H    7.250122   8.046897   7.075249   5.569910   4.906485
    24  H    4.833088   5.794469   5.369500   4.715203   5.255915
    25  H    4.790985   5.788798   5.313808   4.629841   5.178489
                   21         22         23         24         25
    21  H    0.000000
    22  H    2.481647   0.000000
    23  H    4.303179   2.496600   0.000000
    24  H    5.779856   4.837884   2.684873   0.000000
    25  H    5.747374   4.759730   2.638917   1.719274   0.000000
 Stoichiometry    C14H11(1+)
 Framework group  C1[X(C14H11)]
 Deg. of freedom    69
 Full point group                 C1      NOp   1
 Largest Abelian subgroup         C1      NOp   1
 Largest concise Abelian subgroup C1      NOp   1
                         Standard orientation:                         
 ---------------------------------------------------------------------
 Center     Atomic      Atomic             Coordinates (Angstroms)
 Number     Number       Type             X           Y           Z
 ---------------------------------------------------------------------
      1          6           0        2.485387   -1.328221   -0.001469
      2          6           0        3.697783   -0.674973   -0.020344
      3          6           0        3.687873    0.688501    0.041672
      4          6           0        2.470971    1.399484   -0.009566
      5          6           0       -2.455644    1.379589   -0.016633
      6          6           0       -3.679724    0.754812    0.027671
      7          6           0       -3.705117   -0.633212   -0.019444
      8          6           0       -2.500284   -1.364543    0.006806
      9          6           0       -0.007889   -1.450357    0.061711
     10          6           0        0.007678    1.403475   -0.040458
     11          6           0        1.258338   -0.677497   -0.014556
     12          6           0        1.241512    0.728257   -0.018559
     13          6           0       -1.265953   -0.696547    0.011628
     14          6           0       -1.233583    0.718086   -0.016073
     15          1           0        2.474759   -2.397321   -0.049195
     16          1           0        4.630102   -1.180305   -0.107753
     17          1           0        4.616650    1.267251    0.109868
     18          1           0        2.481701    2.539801    0.041607
     19          1           0        0.013791    2.487483    0.007998
     20          1           0       -2.454055    2.424068    0.029919
     21          1           0       -4.602064    1.270541    0.124574
     22          1           0       -4.643766   -1.200199   -0.104070
     23          1           0       -2.501983   -2.481637   -0.043261
     24          1           0       -0.001888   -2.147005    0.876571
     25          1           0       -0.021344   -2.063793   -0.840579
 ---------------------------------------------------------------------
 Rotational constants (GHZ):           2.1711437           0.4445405           0.3698879
 Standard basis: 6-311++G(d,p) (5D, 7F)
 There are   399 symmetry adapted cartesian basis functions of A   symmetry.
 There are   385 symmetry adapted basis functions of A   symmetry.
   385 basis functions,   603 primitive gaussians,   399 cartesian basis functions
    47 alpha electrons       47 beta electrons
       nuclear repulsion energy       783.5199906783 Hartrees.
 NAtoms=   25 NActive=   25 NUniq=   25 SFac= 1.00D+00 NAtFMM=   60 NAOKFM=F Big=F
 Integral buffers will be    131072 words long.
 Regular integral format.
 Two-electron integral symmetry is turned on.
 Nuclear repulsion after empirical dispersion term =      783.5190152106 Hartrees.
 One-electron integrals computed using PRISM.
 NBasis=   385 RedAO= T EigKep=  1.56D-06  NBF=   385
 NBsUse=   379 1.00D-06 EigRej=  8.03D-07 NBFU=   379
 ExpMin= 3.60D-02 ExpMax= 4.56D+03 ExpMxC= 6.82D+02 IAcc=3 IRadAn=         5 AccDes= 0.00D+00
 Harris functional with IExCor= 1009 and IRadAn=       5 diagonalized for initial guess.
 HarFok:  IExCor= 1009 AccDes= 0.00D+00 IRadAn=         5 IDoV= 1 UseB2=F ITyADJ=14
 ICtDFT=  3500011 ScaDFX=  1.000000  1.000000  1.000000  1.000000
 FoFCou: FMM=F IPFlag=           0 FMFlag=      100000 FMFlg1=           0
         NFxFlg=           0 DoJE=T BraDBF=F KetDBF=T FulRan=T
         wScrn=  0.000000 ICntrl=       500 IOpCl=  0 I1Cent=   200000004 NGrid=           0
         NMat0=    1 NMatS0=      1 NMatT0=    0 NMatD0=    1 NMtDS0=    0 NMtDT0=    0
 Petite list used in FoFCou.
 Requested convergence on RMS density matrix=1.00D-08 within 128 cycles.
 Requested convergence on MAX density matrix=1.00D-06.
 Requested convergence on             energy=1.00D-06.
 No special actions if energy rises.
 SCF Done:  E(RM062X) =  -539.748335303     A.U. after   15 cycles
            NFock= 15  Conv=0.76D-08     -V/T= 2.0037
 DoSCS=F DFT=T ScalE2(SS,OS)=  1.000000  1.000000
 ExpMin= 3.60D-02 ExpMax= 4.56D+03 ExpMxC= 6.82D+02 IAcc=3 IRadAn=         5 AccDes= 0.00D+00
 HarFok:  IExCor=  205 AccDes= 0.00D+00 IRadAn=         5 IDoV=-2 UseB2=F ITyADJ=14
 ICtDFT= 12500011 ScaDFX=  1.000000  1.000000  1.000000  1.000000
 Range of M.O.s used for correlation:    15   379
 NBasis=   385 NAE=    47 NBE=    47 NFC=    14 NFV=     0
 NROrb=    365 NOA=    33 NOB=    33 NVA=   332 NVB=   332

 **** Warning!!: The largest alpha MO coefficient is  0.13131677D+03

 Orbital symmetries:
       Occupied  (A) (A) (A) (A) (A) (A) (A) (A) (A) (A) (A) (A)
                 (A) (A) (A) (A) (A) (A) (A) (A) (A) (A) (A) (A)
                 (A) (A) (A) (A) (A) (A) (A) (A) (A) (A) (A) (A)
                 (A) (A) (A) (A) (A) (A) (A) (A) (A) (A) (A)
       Virtual   (A) (A) (A) (A) (A) (A) (A) (A) (A) (A) (A) (A)
                 (A) (A) (A) (A) (A) (A) (A) (A) (A) (A) (A) (A)
                 (A) (A) (A) (A) (A) (A) (A) (A) (A) (A) (A) (A)
                 (A) (A) (A) (A) (A) (A) (A) (A) (A) (A) (A) (A)
                 (A) (A) (A) (A) (A) (A) (A) (A) (A) (A) (A) (A)
                 (A) (A) (A) (A) (A) (A) (A) (A) (A) (A) (A) (A)
                 (A) (A) (A) (A) (A) (A) (A) (A) (A) (A) (A) (A)
                 (A) (A) (A) (A) (A) (A) (A) (A) (A) (A) (A) (A)
                 (A) (A) (A) (A) (A) (A) (A) (A) (A) (A) (A) (A)
                 (A) (A) (A) (A) (A) (A) (A) (A) (A) (A) (A) (A)
                 (A) (A) (A) (A) (A) (A) (A) (A) (A) (A) (A) (A)
                 (A) (A) (A) (A) (A) (A) (A) (A) (A) (A) (A) (A)
                 (A) (A) (A) (A) (A) (A) (A) (A) (A) (A) (A) (A)
                 (A) (A) (A) (A) (A) (A) (A) (A) (A) (A) (A) (A)
                 (A) (A) (A) (A) (A) (A) (A) (A) (A) (A) (A) (A)
                 (A) (A) (A) (A) (A) (A) (A) (A) (A) (A) (A) (A)
                 (A) (A) (A) (A) (A) (A) (A) (A) (A) (A) (A) (A)
                 (A) (A) (A) (A) (A) (A) (A) (A) (A) (A) (A) (A)
                 (A) (A) (A) (A) (A) (A) (A) (A) (A) (A) (A) (A)
                 (A) (A) (A) (A) (A) (A) (A) (A) (A) (A) (A) (A)
                 (A) (A) (A) (A) (A) (A) (A) (A) (A) (A) (A) (A)
                 (A) (A) (A) (A) (A) (A) (A) (A) (A) (A) (A) (A)
                 (A) (A) (A) (A) (A) (A) (A) (A) (A) (A) (A) (A)
                 (A) (A) (A) (A) (A) (A) (A) (A) (A) (A) (A) (A)
                 (A) (A) (A) (A) (A) (A) (A) (A) (A) (A) (A) (A)
                 (A) (A) (A) (A) (A) (A) (A) (A) (A) (A) (A) (A)
                 (A) (A) (A) (A) (A) (A) (A) (A) (A) (A) (A) (A)
                 (A) (A) (A) (A) (A) (A) (A) (A)
     4 initial guesses have been made.
 Convergence on wavefunction:    0.001000000000000
 Iteration     1 Dimension     4 NMult     0 NNew      4
 CISAX will form     4 AO SS matrices at one time.
 Iteration     2 Dimension     6 NMult     4 NNew      2
 Iteration     3 Dimension     8 NMult     6 NNew      2
 Iteration     4 Dimension    10 NMult     8 NNew      2
 Iteration     5 Dimension    12 NMult    10 NNew      2
 Iteration     6 Dimension    14 NMult    12 NNew      2
 ***********************************************************************
 Excited states from <AA,BB:AA,BB> singles matrix:
 ***********************************************************************
 
 Ground to excited state transition densities written to RWF  633
 Ground to excited state transition electric dipole moments (Au):
       state          X           Y           Z        Dip. S.      Osc.
         1        -0.0367     -0.6333      0.0001      0.4024      0.0285
 Ground to excited state transition velocity dipole moments (Au):
       state          X           Y           Z        Dip. S.      Osc.
         1         0.0046      0.0746     -0.0001      0.0056      0.0351
 Ground to excited state transition magnetic dipole moments (Au):
       state          X           Y           Z
         1        -0.0212     -0.0051      0.0157
 Ground to excited state transition velocity quadrupole moments (Au):
       state          XX          YY          ZZ          XY          XZ          YZ
         1         0.2938      0.0398     -0.0085      0.0334      0.0016     -0.0018
 <0|del|b> * <b|rxdel|0> + <0|del|b> * <b|delr+rdel|0>
 Rotatory Strengths (R) in cgs (10**-40 erg-esu-cm/Gauss)
       state          XX          YY          ZZ    R(velocity)    E-M Angle
         1        -1.6781     -0.3457     -1.1594     -1.0611      103.76
 1/2[<0|r|b>*<b|rxdel|0> + (<0|rxdel|b>*<b|r|0>)*]
 Rotatory Strengths (R) in cgs (10**-40 erg-esu-cm/Gauss)
       state          XX          YY          ZZ     R(length)
         1        -0.5508     -2.2768     -0.0013     -0.9430
  1/2[<0|del|b>*<b|r|0> + (<0|r|b>*<b|del|0>)*] (Au)
       state          X           Y           Z        Dip. S.   Osc.(frdel)
         1        -0.0002     -0.0472     -0.0000      0.0474      0.0316

 Excitation energies and oscillator strengths:
 
 Excited State   1:      Singlet-A      2.8862 eV  429.57 nm  f=0.0285  <S**2>=0.000
      47 -> 48         0.70402
 This state for optimization and/or second-order correction.
 Total Energy, E(TD-HF/TD-DFT) =  -539.642267681    
 Copying the excited state density for this state as the 1-particle RhoCI density.
 SavETr:  write IOETrn=   770 NScale= 10 NData=  16 NLR=1 NState=    1 LETran=      28.

 **********************************************************************

            Population analysis using the SCF Density.

 **********************************************************************

 Orbital symmetries:
       Occupied  (A) (A) (A) (A) (A) (A) (A) (A) (A) (A) (A) (A)
                 (A) (A) (A) (A) (A) (A) (A) (A) (A) (A) (A) (A)
                 (A) (A) (A) (A) (A) (A) (A) (A) (A) (A) (A) (A)
                 (A) (A) (A) (A) (A) (A) (A) (A) (A) (A) (A)
       Virtual   (A) (A) (A) (A) (A) (A) (A) (A) (A) (A) (A) (A)
                 (A) (A) (A) (A) (A) (A) (A) (A) (A) (A) (A) (A)
                 (A) (A) (A) (A) (A) (A) (A) (A) (A) (A) (A) (A)
                 (A) (A) (A) (A) (A) (A) (A) (A) (A) (A) (A) (A)
                 (A) (A) (A) (A) (A) (A) (A) (A) (A) (A) (A) (A)
                 (A) (A) (A) (A) (A) (A) (A) (A) (A) (A) (A) (A)
                 (A) (A) (A) (A) (A) (A) (A) (A) (A) (A) (A) (A)
                 (A) (A) (A) (A) (A) (A) (A) (A) (A) (A) (A) (A)
                 (A) (A) (A) (A) (A) (A) (A) (A) (A) (A) (A) (A)
                 (A) (A) (A) (A) (A) (A) (A) (A) (A) (A) (A) (A)
                 (A) (A) (A) (A) (A) (A) (A) (A) (A) (A) (A) (A)
                 (A) (A) (A) (A) (A) (A) (A) (A) (A) (A) (A) (A)
                 (A) (A) (A) (A) (A) (A) (A) (A) (A) (A) (A) (A)
                 (A) (A) (A) (A) (A) (A) (A) (A) (A) (A) (A) (A)
                 (A) (A) (A) (A) (A) (A) (A) (A) (A) (A) (A) (A)
                 (A) (A) (A) (A) (A) (A) (A) (A) (A) (A) (A) (A)
                 (A) (A) (A) (A) (A) (A) (A) (A) (A) (A) (A) (A)
                 (A) (A) (A) (A) (A) (A) (A) (A) (A) (A) (A) (A)
                 (A) (A) (A) (A) (A) (A) (A) (A) (A) (A) (A) (A)
                 (A) (A) (A) (A) (A) (A) (A) (A) (A) (A) (A) (A)
                 (A) (A) (A) (A) (A) (A) (A) (A) (A) (A) (A) (A)
                 (A) (A) (A) (A) (A) (A) (A) (A) (A) (A) (A) (A)
                 (A) (A) (A) (A) (A) (A) (A) (A) (A) (A) (A) (A)
                 (A) (A) (A) (A) (A) (A) (A) (A) (A) (A) (A) (A)
                 (A) (A) (A) (A) (A) (A) (A) (A) (A) (A) (A) (A)
                 (A) (A) (A) (A) (A) (A) (A) (A) (A) (A) (A) (A)
                 (A) (A) (A) (A) (A) (A) (A) (A) (A) (A) (A) (A)
                 (A) (A) (A) (A) (A) (A) (A) (A)
 The electronic state is 1-A.
 Alpha  occ. eigenvalues --  -10.77387 -10.73209 -10.72929 -10.72347 -10.72228
 Alpha  occ. eigenvalues --  -10.72015 -10.71483 -10.70658 -10.70548 -10.70525
 Alpha  occ. eigenvalues --  -10.70395 -10.69599 -10.69431 -10.69345  -1.16750
 Alpha  occ. eigenvalues --   -1.12837  -1.07299  -1.06102  -1.01322  -1.00582
 Alpha  occ. eigenvalues --   -0.95897  -0.91471  -0.86324  -0.86046  -0.83747
 Alpha  occ. eigenvalues --   -0.78592  -0.76330  -0.74358  -0.70048  -0.69210
 Alpha  occ. eigenvalues --   -0.68942  -0.68219  -0.68046  -0.64608  -0.63919
 Alpha  occ. eigenvalues --   -0.63507  -0.61818  -0.60534  -0.59991  -0.59096
 Alpha  occ. eigenvalues --   -0.56517  -0.55205  -0.54614  -0.52531  -0.46836
 Alpha  occ. eigenvalues --   -0.46053  -0.44704
 Alpha virt. eigenvalues --   -0.26016  -0.14383  -0.14219  -0.12599  -0.11185
 Alpha virt. eigenvalues --   -0.10044  -0.09257  -0.08133  -0.07924  -0.07470
 Alpha virt. eigenvalues --   -0.07186  -0.07120  -0.05647  -0.05584  -0.05305
 Alpha virt. eigenvalues --   -0.03909  -0.03905  -0.03251  -0.02991  -0.02103
 Alpha virt. eigenvalues --   -0.01547  -0.01003   0.00289   0.00524   0.00757
 Alpha virt. eigenvalues --    0.01113   0.01516   0.02015   0.02182   0.02339
 Alpha virt. eigenvalues --    0.02562   0.02610   0.02959   0.03324   0.03458
 Alpha virt. eigenvalues --    0.04233   0.04492   0.04727   0.05139   0.05402
 Alpha virt. eigenvalues --    0.05806   0.06293   0.06522   0.06891   0.07205
 Alpha virt. eigenvalues --    0.07947   0.08138   0.08317   0.08560   0.08873
 Alpha virt. eigenvalues --    0.09575   0.09693   0.09963   0.10534   0.11083
 Alpha virt. eigenvalues --    0.11258   0.12270   0.12295   0.12766   0.13094
 Alpha virt. eigenvalues --    0.13200   0.13550   0.14063   0.14462   0.15548
 Alpha virt. eigenvalues --    0.15956   0.16692   0.16985   0.17571   0.17736
 Alpha virt. eigenvalues --    0.18196   0.18978   0.19265   0.19516   0.19945
 Alpha virt. eigenvalues --    0.21473   0.21779   0.22389   0.23300   0.23396
 Alpha virt. eigenvalues --    0.23488   0.24367   0.24820   0.26924   0.27742
 Alpha virt. eigenvalues --    0.28536   0.28737   0.30055   0.31594   0.36132
 Alpha virt. eigenvalues --    0.36684   0.38161   0.39177   0.40613   0.41452
 Alpha virt. eigenvalues --    0.41716   0.42694   0.42987   0.43473   0.44048
 Alpha virt. eigenvalues --    0.44399   0.45036   0.45686   0.46454   0.48318
 Alpha virt. eigenvalues --    0.48610   0.48702   0.49076   0.50313   0.50444
 Alpha virt. eigenvalues --    0.51340   0.51438   0.52265   0.52462   0.54004
 Alpha virt. eigenvalues --    0.54126   0.54770   0.55731   0.56132   0.58202
 Alpha virt. eigenvalues --    0.58307   0.59094   0.61306   0.62096   0.62549
 Alpha virt. eigenvalues --    0.62701   0.63489   0.63763   0.65317   0.66544
 Alpha virt. eigenvalues --    0.69952   0.70641   0.70824   0.71839   0.72303
 Alpha virt. eigenvalues --    0.74710   0.75141   0.75587   0.75776   0.76175
 Alpha virt. eigenvalues --    0.76477   0.77136   0.78109   0.79869   0.80378
 Alpha virt. eigenvalues --    0.80922   0.81821   0.82460   0.83112   0.84051
 Alpha virt. eigenvalues --    0.86465   0.86878   0.87622   0.88700   0.90378
 Alpha virt. eigenvalues --    0.91408   0.92299   0.93640   0.94963   0.96181
 Alpha virt. eigenvalues --    0.97432   0.99615   1.00815   1.01251   1.03143
 Alpha virt. eigenvalues --    1.03334   1.05201   1.06474   1.07875   1.10020
 Alpha virt. eigenvalues --    1.19304   1.21959   1.23489   1.25657   1.29417
 Alpha virt. eigenvalues --    1.30879   1.33095   1.33906   1.35298   1.36088
 Alpha virt. eigenvalues --    1.39220   1.40598   1.41332   1.43428   1.43676
 Alpha virt. eigenvalues --    1.43941   1.45337   1.45855   1.46923   1.47860
 Alpha virt. eigenvalues --    1.48301   1.49011   1.52943   1.54098   1.55469
 Alpha virt. eigenvalues --    1.55960   1.56012   1.57109   1.58480   1.61377
 Alpha virt. eigenvalues --    1.62572   1.63521   1.64198   1.66498   1.67912
 Alpha virt. eigenvalues --    1.68524   1.69397   1.69912   1.74180   1.76211
 Alpha virt. eigenvalues --    1.77024   1.77816   1.79253   1.81343   1.81654
 Alpha virt. eigenvalues --    1.82344   1.83517   1.84124   1.84447   1.84863
 Alpha virt. eigenvalues --    1.85499   1.86169   1.86784   1.88485   1.91479
 Alpha virt. eigenvalues --    1.91568   1.94026   1.95380   1.98089   1.98530
 Alpha virt. eigenvalues --    2.01173   2.02804   2.03955   2.08488   2.12329
 Alpha virt. eigenvalues --    2.12687   2.13567   2.15969   2.20578   2.21487
 Alpha virt. eigenvalues --    2.23595   2.28557   2.30494   2.32743   2.35661
 Alpha virt. eigenvalues --    2.37434   2.37833   2.39780   2.41682   2.46238
 Alpha virt. eigenvalues --    2.46887   2.47454   2.48170   2.51228   2.54340
 Alpha virt. eigenvalues --    2.54975   2.56732   2.57959   2.58775   2.59912
 Alpha virt. eigenvalues --    2.60129   2.60829   2.61812   2.62930   2.63357
 Alpha virt. eigenvalues --    2.63736   2.64628   2.65529   2.66480   2.67566
 Alpha virt. eigenvalues --    2.67834   2.71443   2.73526   2.74752   2.75381
 Alpha virt. eigenvalues --    2.77036   2.80082   2.80472   2.82525   2.83674
 Alpha virt. eigenvalues --    2.86554   2.87710   2.92774   2.96803   3.00119
 Alpha virt. eigenvalues --    3.00871   3.05978   3.10747   3.12681   3.14326
 Alpha virt. eigenvalues --    3.21641   3.24403   3.27178   3.29426   3.31497
 Alpha virt. eigenvalues --    3.32705   3.34555   3.43114   3.46599   3.47090
 Alpha virt. eigenvalues --    3.48178   3.51866   3.57415   3.66542   3.67365
 Alpha virt. eigenvalues --    3.74508   3.90963   3.91128   3.96328   3.98387
 Alpha virt. eigenvalues --    4.02733   4.05799   4.07125   4.12385   4.36994
 Alpha virt. eigenvalues --    4.63062   4.69095   4.70886  23.44554  23.60236
 Alpha virt. eigenvalues --   23.82635  23.86532  23.87425  23.90524  23.91446
 Alpha virt. eigenvalues --   23.95358  23.98271  24.00440  24.00752  24.03917
 Alpha virt. eigenvalues --   24.14040  24.15720
          Condensed to atoms (all electrons):
               1          2          3          4          5          6
     1  C    8.644569   0.431948  -0.597427   1.996327  -0.049596  -0.095587
     2  C    0.431948   7.170281   0.237471  -0.790315  -0.058832  -0.020101
     3  C   -0.597427   0.237471   6.607605   0.416610  -0.108365   0.020218
     4  C    1.996327  -0.790315   0.416610  11.368354  -0.076235  -0.122197
     5  C   -0.049596  -0.058832  -0.108365  -0.076235  10.203033   0.448958
     6  C   -0.095587  -0.020101   0.020218  -0.122197   0.448958   6.828617
     7  C   -0.012702   0.008912  -0.010804  -0.052850  -0.690464   0.312682
     8  C    0.418534  -0.002048  -0.097926  -0.075111   2.125938  -0.556865
     9  C   -1.207745  -0.664949   0.352293  -0.215086  -0.833464   0.260831
    10  C   -1.303017   0.064758  -0.182710  -2.507500  -2.249210  -0.360058
    11  C    0.384723  -0.991967   1.078138  -0.513811  -1.542029  -0.156054
    12  C   -2.218187   0.949069  -1.252967  -1.568740  -0.020858  -0.118566
    13  C    0.211602  -0.067435  -0.116339  -1.802169  -1.065099   0.948898
    14  C   -1.101001  -0.200990  -0.225175  -0.460987  -0.482022  -1.273555
    15  H    0.360345  -0.096406   0.003010   0.019595   0.005761   0.001599
    16  H   -0.030287   0.410176  -0.023901   0.010061  -0.001548  -0.000378
    17  H   -0.015540  -0.037056   0.383573  -0.052690   0.000207   0.000498
    18  H    0.042599   0.011001  -0.078397   0.421712   0.010971  -0.004118
    19  H   -0.044539  -0.013124   0.052405  -0.093618  -0.060563   0.054694
    20  H    0.007883   0.002302  -0.005254   0.009042   0.486986  -0.116227
    21  H   -0.001391  -0.000384   0.000441   0.000113  -0.074792   0.395602
    22  H    0.000838   0.000420  -0.000313  -0.002003   0.016623  -0.018421
    23  H    0.004412  -0.002415   0.000578   0.005834   0.011569   0.006963
    24  H    0.048231   0.007572   0.007063  -0.005883  -0.004522   0.006397
    25  H    0.040984   0.023228  -0.006548  -0.020629  -0.022076  -0.009698
               7          8          9         10         11         12
     1  C   -0.012702   0.418534  -1.207745  -1.303017   0.384723  -2.218187
     2  C    0.008912  -0.002048  -0.664949   0.064758  -0.991967   0.949069
     3  C   -0.010804  -0.097926   0.352293  -0.182710   1.078138  -1.252967
     4  C   -0.052850  -0.075111  -0.215086  -2.507500  -0.513811  -1.568740
     5  C   -0.690464   2.125938  -0.833464  -2.249210  -1.542029  -0.020858
     6  C    0.312682  -0.556865   0.260831  -0.360058  -0.156054  -0.118566
     7  C    6.687436   0.377187  -0.319908   0.087431  -0.179061  -0.218508
     8  C    0.377187   8.877517  -1.351976  -1.437774   0.188438  -0.940135
     9  C   -0.319908  -1.351976   8.884863   0.663329   1.298231  -1.683510
    10  C    0.087431  -1.437774   0.663329   9.030811  -0.333131   2.213043
    11  C   -0.179061   0.188438   1.298231  -0.333131  13.463591  -3.011894
    12  C   -0.218508  -0.940135  -1.683510   2.213043  -3.011894  14.892586
    13  C   -0.640522   0.033966   1.268737  -0.116159   0.967211  -3.815571
    14  C    0.721080  -2.005277  -0.886357   1.870018  -4.015417   2.246856
    15  H   -0.002695   0.003665   0.040080  -0.003526  -0.012859   0.025380
    16  H    0.000298   0.000653   0.000603  -0.009768   0.010881  -0.020738
    17  H   -0.000261  -0.001282   0.000447   0.013271  -0.004066   0.057812
    18  H    0.000607   0.006395  -0.025061   0.017892  -0.004235  -0.050650
    19  H   -0.005697  -0.048598   0.074661   0.430550   0.065425  -0.060733
    20  H    0.008088   0.060844  -0.033403   0.007336  -0.012226  -0.015406
    21  H   -0.023957  -0.034533  -0.000903   0.024342  -0.004449   0.005614
    22  H    0.378781  -0.017181   0.000212  -0.013232   0.001718  -0.008607
    23  H   -0.061769   0.333059   0.038649  -0.002013  -0.010402   0.004999
    24  H    0.003966   0.034220   0.319985   0.000073  -0.005465  -0.044957
    25  H    0.024843   0.041728   0.396805   0.003461   0.008867  -0.084264
              13         14         15         16         17         18
     1  C    0.211602  -1.101001   0.360345  -0.030287  -0.015540   0.042599
     2  C   -0.067435  -0.200990  -0.096406   0.410176  -0.037056   0.011001
     3  C   -0.116339  -0.225175   0.003010  -0.023901   0.383573  -0.078397
     4  C   -1.802169  -0.460987   0.019595   0.010061  -0.052690   0.421712
     5  C   -1.065099  -0.482022   0.005761  -0.001548   0.000207   0.010971
     6  C    0.948898  -1.273555   0.001599  -0.000378   0.000498  -0.004118
     7  C   -0.640522   0.721080  -0.002695   0.000298  -0.000261   0.000607
     8  C    0.033966  -2.005277   0.003665   0.000653  -0.001282   0.006395
     9  C    1.268737  -0.886357   0.040080   0.000603   0.000447  -0.025061
    10  C   -0.116159   1.870018  -0.003526  -0.009768   0.013271   0.017892
    11  C    0.967211  -4.015417  -0.012859   0.010881  -0.004066  -0.004235
    12  C   -3.815571   2.246856   0.025380  -0.020738   0.057812  -0.050650
    13  C   12.977174  -2.142939  -0.019529   0.002072  -0.004401  -0.011102
    14  C   -2.142939  13.450690   0.005083  -0.007512   0.001875  -0.014437
    15  H   -0.019529   0.005083   0.454810  -0.010804   0.002004  -0.000117
    16  H    0.002072  -0.007512  -0.010804   0.424110  -0.008690   0.002142
    17  H   -0.004401   0.001875   0.002004  -0.008690   0.423344  -0.008560
    18  H   -0.011102  -0.014437  -0.000117   0.002142  -0.008560   0.445040
    19  H    0.081091  -0.055537   0.000469  -0.000722   0.001610  -0.004597
    20  H   -0.017869  -0.040788  -0.000150   0.000025  -0.000160   0.000997
    21  H   -0.015654   0.076695   0.000018  -0.000006   0.000011  -0.000123
    22  H    0.020325  -0.024399  -0.000115   0.000006  -0.000005   0.000001
    23  H   -0.020681   0.016232   0.000196  -0.000095   0.000012  -0.000078
    24  H    0.003580  -0.041357   0.001605  -0.000491   0.000208  -0.000092
    25  H    0.025034  -0.077467  -0.003590   0.001594  -0.000408   0.000423
              19         20         21         22         23         24
     1  C   -0.044539   0.007883  -0.001391   0.000838   0.004412   0.048231
     2  C   -0.013124   0.002302  -0.000384   0.000420  -0.002415   0.007572
     3  C    0.052405  -0.005254   0.000441  -0.000313   0.000578   0.007063
     4  C   -0.093618   0.009042   0.000113  -0.002003   0.005834  -0.005883
     5  C   -0.060563   0.486986  -0.074792   0.016623   0.011569  -0.004522
     6  C    0.054694  -0.116227   0.395602  -0.018421   0.006963   0.006397
     7  C   -0.005697   0.008088  -0.023957   0.378781  -0.061769   0.003966
     8  C   -0.048598   0.060844  -0.034533  -0.017181   0.333059   0.034220
     9  C    0.074661  -0.033403  -0.000903   0.000212   0.038649   0.319985
    10  C    0.430550   0.007336   0.024342  -0.013232  -0.002013   0.000073
    11  C    0.065425  -0.012226  -0.004449   0.001718  -0.010402  -0.005465
    12  C   -0.060733  -0.015406   0.005614  -0.008607   0.004999  -0.044957
    13  C    0.081091  -0.017869  -0.015654   0.020325  -0.020681   0.003580
    14  C   -0.055537  -0.040788   0.076695  -0.024399   0.016232  -0.041357
    15  H    0.000469  -0.000150   0.000018  -0.000115   0.000196   0.001605
    16  H   -0.000722   0.000025  -0.000006   0.000006  -0.000095  -0.000491
    17  H    0.001610  -0.000160   0.000011  -0.000005   0.000012   0.000208
    18  H   -0.004597   0.000997  -0.000123   0.000001  -0.000078  -0.000092
    19  H    0.453003  -0.007018   0.001645  -0.000584   0.000265   0.000674
    20  H   -0.007018   0.472789  -0.012834   0.002268  -0.000104  -0.000054
    21  H    0.001645  -0.012834   0.426336  -0.007884   0.001621   0.000332
    22  H   -0.000584   0.002268  -0.007884   0.418628  -0.008089  -0.000317
    23  H    0.000265  -0.000104   0.001621  -0.008089   0.436982   0.001010
    24  H    0.000674  -0.000054   0.000332  -0.000317   0.001010   0.482738
    25  H    0.000428   0.000570  -0.000558   0.001424  -0.001377  -0.064095
              25
     1  C    0.040984
     2  C    0.023228
     3  C   -0.006548
     4  C   -0.020629
     5  C   -0.022076
     6  C   -0.009698
     7  C    0.024843
     8  C    0.041728
     9  C    0.396805
    10  C    0.003461
    11  C    0.008867
    12  C   -0.084264
    13  C    0.025034
    14  C   -0.077467
    15  H   -0.003590
    16  H    0.001594
    17  H   -0.000408
    18  H    0.000423
    19  H    0.000428
    20  H    0.000570
    21  H   -0.000558
    22  H    0.001424
    23  H   -0.001377
    24  H   -0.064095
    25  H    0.476844
 Mulliken charges:
               1
     1  C    0.084023
     2  C   -0.371115
     3  C   -0.453279
     4  C    0.112177
     5  C    0.029627
     6  C   -0.434132
     7  C   -0.392115
     8  C    0.066562
     9  C   -0.377365
    10  C    0.091783
    11  C   -0.670158
    12  C    0.738933
    13  C   -0.684221
    14  C    0.666688
    15  H    0.226171
    16  H    0.252318
    17  H    0.248249
    18  H    0.241785
    19  H    0.178410
    20  H    0.202363
    21  H    0.244698
    22  H    0.259906
    23  H    0.244642
    24  H    0.249576
    25  H    0.244475
 Sum of Mulliken charges =   1.00000
 Mulliken charges with hydrogens summed into heavy atoms:
               1
     1  C    0.310193
     2  C   -0.118797
     3  C   -0.205030
     4  C    0.353962
     5  C    0.231991
     6  C   -0.189434
     7  C   -0.132209
     8  C    0.311203
     9  C    0.116687
    10  C    0.270192
    11  C   -0.670158
    12  C    0.738933
    13  C   -0.684221
    14  C    0.666688
 Electronic spatial extent (au):  <R**2>=           2847.9811
 Charge=              1.0000 electrons
 Dipole moment (field-independent basis, Debye):
    X=             -0.0512    Y=              0.2157    Z=             -0.0118  Tot=              0.2220
 Quadrupole moment (field-independent basis, Debye-Ang):
   XX=            -30.4080   YY=            -57.1243   ZZ=            -83.8138
   XY=              0.3517   XZ=             -0.0935   YZ=              0.7214
 Traceless Quadrupole moment (field-independent basis, Debye-Ang):
   XX=             26.7073   YY=             -0.0089   ZZ=            -26.6984
   XY=              0.3517   XZ=             -0.0935   YZ=              0.7214
 Octapole moment (field-independent basis, Debye-Ang**2):
  XXX=             -1.0672  YYY=              5.2750  ZZZ=              0.1320  XYY=             -0.0544
  XXY=             -3.7826  XXZ=              0.1946  XZZ=              0.0236  YZZ=             -3.0806
  YYZ=              0.5814  XYZ=             -0.1432
 Hexadecapole moment (field-independent basis, Debye-Ang**3):
 XXXX=          -2106.4320 YYYY=           -606.3383 ZZZZ=            -99.0510 XXXY=             -3.4149
 XXXZ=             -3.1231 YYYX=              6.5080 YYYZ=              3.3791 ZZZX=             -0.2374
 ZZZY=              0.2936 XXYY=           -509.6793 XXZZ=           -587.6653 YYZZ=           -143.8020
 XXYZ=             14.7117 YYXZ=              0.1573 ZZXY=             -1.8789
 N-N= 7.835190152106D+02 E-N=-2.803524869405D+03  KE= 5.377444628264D+02
 Unable to Open any file for archive entry.
 1\1\GINC-GADI-CPU-CLX-0572\SP\RM062X TD-FC\6-311++G(d,p)\C14H11(1+)\TS
 1578\27-Jul-2022\0\\#n M062X/6-311++G(d,p) TD(NStates=1) EmpiricalDisp
 ersion=GD3 SP\\SP_-4\\1,1\C,0,2.4927,1.3211,-0.068\C,0,3.7015,0.6627,-
 0.02\C,0,3.6839,-0.7021,-0.016\C,0,2.4632,-1.4029,0.072\C,0,-2.4632,-1
 .3549,0.088\C,0,-3.6839,-0.7261,0.016\C,0,-3.7015,0.6627,-0.004\C,0,-2
 .4927,1.3851,-0.068\C,0,0.,1.4541,-0.132\C,0,0.,-1.3915,0.108\C,0,1.26
 21,0.6787,-0.021\C,0,1.2375,-0.7251,0.051\C,0,-1.2621,0.7107,-0.043\C,
 0,-1.2375,-0.7011,0.053\H,0,2.4881,2.3913,-0.072\H,0,4.6368,1.1664,0.0
 41\H,0,4.6093,-1.2887,-0.058\H,0,2.4675,-2.5444,0.076\H,0,0.,-2.4766,0
 .112\H,0,-2.4675,-2.4004,0.092\H,0,-4.6093,-1.2407,-0.054\H,0,-4.6368,
 1.2384,0.055\H,0,-2.4881,2.5033,-0.072\H,0,0.008,2.1105,-0.9796\H,0,-0
 .008,2.1105,0.7396\\Version=ES64L-G16RevC.01\State=1-A\HF=-539.7483353
 \RMSD=7.567e-09\PG=C01 [X(C14H11)]\\@
 The archive entry for this job was punched.


 TO SEE A WORLD IN A GRAIN OF SAND
 AND A HEAVEN IN A WILD FLOWER
 HOLD INFINITY IN THE PALM OF YOUR HAND
 AND ETERNITY IN AN HOUR

                       -- WILLIAM BLAKE
 Job cpu time:       0 days  1 hours 13 minutes  3.3 seconds.
 Elapsed time:       0 days  0 hours  2 minutes 17.5 seconds.
 File lengths (MBytes):  RWF=    460 Int=      0 D2E=      0 Chk=     15 Scr=      1
 Normal termination of Gaussian 16 at Wed Jul 27 09:43:20 2022.
