 Entering Gaussian System, Link 0=g16
 Initial command:
 /apps/gaussian/g16c01/g16/l1.exe "/jobfs/52803152.gadi-pbs/Gau-2817164.inp" -scrdir="/jobfs/52803152.gadi-pbs/"
 Entering Link 1 = /apps/gaussian/g16c01/g16/l1.exe PID=   2817165.
  
 Copyright (c) 1988-2019, Gaussian, Inc.  All Rights Reserved.
  
 This is part of the Gaussian(R) 16 program.  It is based on
 the Gaussian(R) 09 system (copyright 2009, Gaussian, Inc.),
 the Gaussian(R) 03 system (copyright 2003, Gaussian, Inc.),
 the Gaussian(R) 98 system (copyright 1998, Gaussian, Inc.),
 the Gaussian(R) 94 system (copyright 1995, Gaussian, Inc.),
 the Gaussian 92(TM) system (copyright 1992, Gaussian, Inc.),
 the Gaussian 90(TM) system (copyright 1990, Gaussian, Inc.),
 the Gaussian 88(TM) system (copyright 1988, Gaussian, Inc.),
 the Gaussian 86(TM) system (copyright 1986, Carnegie Mellon
 University), and the Gaussian 82(TM) system (copyright 1983,
 Carnegie Mellon University). Gaussian is a federally registered
 trademark of Gaussian, Inc.
  
 This software contains proprietary and confidential information,
 including trade secrets, belonging to Gaussian, Inc.
  
 This software is provided under written license and may be
 used, copied, transmitted, or stored only in accord with that
 written license.
  
 The following legend is applicable only to US Government
 contracts under FAR:
  
                    RESTRICTED RIGHTS LEGEND
  
 Use, reproduction and disclosure by the US Government is
 subject to restrictions as set forth in subparagraphs (a)
 and (c) of the Commercial Computer Software - Restricted
 Rights clause in FAR 52.227-19.
  
 Gaussian, Inc.
 340 Quinnipiac St., Bldg. 40, Wallingford CT 06492
  
  
 ---------------------------------------------------------------
 Warning -- This program may not be used in any manner that
 competes with the business of Gaussian, Inc. or will provide
 assistance to any competitor of Gaussian, Inc.  The licensee
 of this program is prohibited from giving any competitor of
 Gaussian, Inc. access to this program.  By using this program,
 the user acknowledges that Gaussian, Inc. is engaged in the
 business of creating and licensing software in the field of
 computational chemistry and represents and warrants to the
 licensee that it is not a competitor of Gaussian, Inc. and that
 it will not use this program in any manner prohibited above.
 ---------------------------------------------------------------
  

 Cite this work as:
 Gaussian 16, Revision C.01,
 M. J. Frisch, G. W. Trucks, H. B. Schlegel, G. E. Scuseria, 
 M. A. Robb, J. R. Cheeseman, G. Scalmani, V. Barone, 
 G. A. Petersson, H. Nakatsuji, X. Li, M. Caricato, A. V. Marenich, 
 J. Bloino, B. G. Janesko, R. Gomperts, B. Mennucci, H. P. Hratchian, 
 J. V. Ortiz, A. F. Izmaylov, J. L. Sonnenberg, D. Williams-Young, 
 F. Ding, F. Lipparini, F. Egidi, J. Goings, B. Peng, A. Petrone, 
 T. Henderson, D. Ranasinghe, V. G. Zakrzewski, J. Gao, N. Rega, 
 G. Zheng, W. Liang, M. Hada, M. Ehara, K. Toyota, R. Fukuda, 
 J. Hasegawa, M. Ishida, T. Nakajima, Y. Honda, O. Kitao, H. Nakai, 
 T. Vreven, K. Throssell, J. A. Montgomery, Jr., J. E. Peralta, 
 F. Ogliaro, M. J. Bearpark, J. J. Heyd, E. N. Brothers, K. N. Kudin, 
 V. N. Staroverov, T. A. Keith, R. Kobayashi, J. Normand, 
 K. Raghavachari, A. P. Rendell, J. C. Burant, S. S. Iyengar, 
 J. Tomasi, M. Cossi, J. M. Millam, M. Klene, C. Adamo, R. Cammi, 
 J. W. Ochterski, R. L. Martin, K. Morokuma, O. Farkas, 
 J. B. Foresman, and D. J. Fox, Gaussian, Inc., Wallingford CT, 2019.
 
 ******************************************
 Gaussian 16:  ES64L-G16RevC.01  3-Jul-2019
                27-Jul-2022 
 ******************************************
 %NProcShared=32
 Will use up to   32 processors via shared memory.
 %mem = 128GB
 ---------------------------------------------------------------
 #n M062X/6-311++G(d,p) TD(NStates=1) EmpiricalDispersion=GD3 SP
 ---------------------------------------------------------------
 1/38=1,172=1/1;
 2/12=2,17=6,18=5,40=1/2;
 3/5=4,6=6,7=1111,11=9,25=1,30=1,74=-55,124=31/1,2,3,8;
 4//1;
 5/5=2,38=5/2;
 8/6=1,10=2,108=1/1;
 9/41=1,42=1,70=2/14;
 6/7=2,8=2,9=2,10=2/1;
 99/5=1,9=1/99;
 -----
 SP_-1
 -----
 Symbolic Z-matrix:
 Charge =  1 Multiplicity = 1
 C                     2.4927    1.2971   -0.017 
 C                     3.7015    0.6087   -0.035 
 C                     3.6839   -0.7381   -0.064 
 C                     2.4632   -1.3249   -0.012 
 C                    -2.4632   -1.3129    0.052 
 C                    -3.6839   -0.7441    0.064 
 C                    -3.7015    0.6087    0.029 
 C                    -2.4927    1.3131   -0.017 
 C                     0.        1.4301   -0.033 
 C                     0.       -1.3045    0.027 
 C                     1.2621    0.7177    0.036 
 C                     1.2375   -0.6891    0.009 
 C                    -1.2621    0.7257   -0.052 
 C                    -1.2375   -0.6831    0.017 
 H                     2.4881    2.4183   -0.018 
 H                     4.6368    1.1394   -0.016 
 H                     4.6093   -1.2737   -0.022 
 H                     2.4675   -2.4634   -0.011 
 H                     0.       -2.4016    0.028 
 H                    -2.4675   -2.4274    0.053 
 H                    -4.6093   -1.2617   -0.006 
 H                    -4.6368    1.1574    0.04 
 H                    -2.4881    2.4463   -0.018 
 H                     0.002     1.9785   -0.8896 
 H                    -0.002     1.9785    0.8296 
 
                          Input orientation:                          
 ---------------------------------------------------------------------
 Center     Atomic      Atomic             Coordinates (Angstroms)
 Number     Number       Type             X           Y           Z
 ---------------------------------------------------------------------
      1          6           0        2.492700    1.297100   -0.017000
      2          6           0        3.701500    0.608700   -0.035000
      3          6           0        3.683900   -0.738100   -0.064000
      4          6           0        2.463200   -1.324900   -0.012000
      5          6           0       -2.463200   -1.312900    0.052000
      6          6           0       -3.683900   -0.744100    0.064000
      7          6           0       -3.701500    0.608700    0.029000
      8          6           0       -2.492700    1.313100   -0.017000
      9          6           0        0.000000    1.430100   -0.033000
     10          6           0        0.000000   -1.304500    0.027000
     11          6           0        1.262100    0.717700    0.036000
     12          6           0        1.237500   -0.689100    0.009000
     13          6           0       -1.262100    0.725700   -0.052000
     14          6           0       -1.237500   -0.683100    0.017000
     15          1           0        2.488100    2.418300   -0.018000
     16          1           0        4.636800    1.139400   -0.016000
     17          1           0        4.609300   -1.273700   -0.022000
     18          1           0        2.467500   -2.463400   -0.011000
     19          1           0        0.000000   -2.401600    0.028000
     20          1           0       -2.467500   -2.427400    0.053000
     21          1           0       -4.609300   -1.261700   -0.006000
     22          1           0       -4.636800    1.157400    0.040000
     23          1           0       -2.488100    2.446300   -0.018000
     24          1           0        0.002000    1.978500   -0.889600
     25          1           0       -0.002000    1.978500    0.829600
 ---------------------------------------------------------------------
                    Distance matrix (angstroms):
                    1          2          3          4          5
     1  C    0.000000
     2  C    1.391192   0.000000
     3  C    2.358645   1.347227   0.000000
     4  C    2.622171   2.296241   1.355414   0.000000
     5  C    5.601590   6.457836   6.175005   4.926830   0.000000
     6  C    6.505647   7.508928   7.368914   6.174945   1.346769
     7  C    6.232505   7.403277   7.507773   6.460961   2.286146
     8  C    4.985426   6.234149   6.508457   5.614269   2.627072
     9  C    2.496297   3.791544   4.274713   3.695649   3.687632
    10  C    3.603306   4.167167   3.728298   2.463593   2.463341
    11  C    1.361209   2.442866   2.827449   2.370055   4.242812
    12  C    2.349722   2.785232   2.447979   1.380950   3.753153
    13  C    3.798190   4.965008   5.158078   4.252578   2.368406
    14  C    4.223356   5.105406   4.922374   3.756052   1.378482
    15  H    1.121210   2.178826   3.375635   3.743288   6.200171
    16  H    2.149892   1.075542   2.106022   3.285929   7.511884
    17  H    3.330020   2.089904   1.070045   2.146734   7.072996
    18  H    3.760589   3.310760   2.111658   1.138509   5.063538
    19  H    4.460489   4.771475   4.043120   2.688538   2.693176
    20  H    6.203256   6.876206   6.380215   5.052874   1.114509
    21  H    7.548906   8.518723   8.309915   7.072785   2.147494
    22  H    7.131096   8.356671   8.534506   7.521603   3.290450
    23  H    5.111656   6.456641   6.945222   6.223934   3.759934
    24  H    2.725678   4.036458   4.649507   4.211904   4.218665
    25  H    2.721133   4.042252   4.665222   4.206894   4.182760
                    6          7          8          9         10
     6  C    0.000000
     7  C    1.353367   0.000000
     8  C    2.378569   1.399819   0.000000
     9  C    4.278747   3.792050   2.495496   0.000000
    10  C    3.726464   4.166706   3.614875   2.735258   0.000000
    11  C    5.157573   4.964802   3.802083   1.450921   2.383751
    12  C    4.922015   5.106702   4.233660   2.454420   1.382189
    13  C    2.835292   2.443547   1.364053   1.445488   2.391830
    14  C    2.447612   2.782119   2.358283   2.449392   1.384790
    15  H    6.935494   6.448877   5.101944   2.677201   4.477936
    16  H    8.531590   8.355293   7.131616   4.645935   5.241604
    17  H    8.310538   8.521469   7.558437   5.343810   4.609663
    18  H    6.387593   6.891731   6.234226   4.609597   2.726362
    19  H    4.039768   4.771060   4.473765   3.832186   1.097100
    20  H    2.076836   3.277382   3.741240   4.579985   2.711114
    21  H    1.062626   2.079356   3.333123   5.337805   4.609617
    22  H    2.127039   1.084426   2.150501   4.645386   5.249860
    23  H    3.408125   2.202572   1.133210   2.687662   4.501241
    24  H    4.680573   4.054145   2.725384   1.017109   3.408555
    25  H    4.642745   4.025371   2.713499   1.022167   3.379683
                   11         12         13         14         15
    11  C    0.000000
    12  C    1.407274   0.000000
    13  C    2.525746   2.872870   0.000000
    14  C    2.865415   2.475020   1.410703   0.000000
    15  H    2.097149   3.349726   4.114614   4.847680   0.000000
    16  H    3.401343   3.859958   5.913499   6.150609   2.500500
    17  H    3.895226   3.422244   6.202567   5.876683   4.257977
    18  H    3.402146   2.159037   4.907337   4.110630   4.881748
    19  H    3.364966   2.112918   3.373322   2.117727   5.424407
    20  H    4.878715   4.092756   3.377285   2.134661   6.931365
    21  H    6.196219   5.874791   3.893022   3.421161   7.994725
    22  H    5.915266   6.157753   3.403444   3.865645   7.235844
    23  H    4.129767   4.869451   2.112983   3.370218   4.976279
    24  H    2.008533   3.074090   1.966985   3.072849   2.670918
    25  H    1.953808   3.053823   1.983577   3.044814   2.666917
                   16         17         18         19         20
    16  H    0.000000
    17  H    2.413264   0.000000
    18  H    4.205479   2.450064   0.000000
    19  H    5.834426   4.745556   2.468582   0.000000
    20  H    7.949711   7.170617   4.935546   2.467762   0.000000
    21  H    9.552787   9.218622   7.178106   4.748281   2.439189
    22  H    9.273787   9.560568   7.973950   5.845215   4.190086
    23  H    7.243769   8.013208   6.975900   5.449302   4.874261
    24  H    4.790474   5.705852   5.155687   4.475184   5.137984
    25  H    4.789321   5.706673   5.151263   4.452847   5.108204
                   21         22         23         24         25
    21  H    0.000000
    22  H    2.419694   0.000000
    23  H    4.271873   2.506300   0.000000
    24  H    5.704711   4.801752   2.679388   0.000000
    25  H    5.694237   4.772740   2.667950   1.719205   0.000000
 Stoichiometry    C14H11(1+)
 Framework group  C1[X(C14H11)]
 Deg. of freedom    69
 Full point group                 C1      NOp   1
 Largest Abelian subgroup         C1      NOp   1
 Largest concise Abelian subgroup C1      NOp   1
                         Standard orientation:                         
 ---------------------------------------------------------------------
 Center     Atomic      Atomic             Coordinates (Angstroms)
 Number     Number       Type             X           Y           Z
 ---------------------------------------------------------------------
      1          6           0        2.490989   -1.292819   -0.019526
      2          6           0        3.700836   -0.606227   -0.002900
      3          6           0        3.685317    0.740130    0.042960
      4          6           0        2.465036    1.329076    0.008267
      5          6           0       -2.461735    1.324110   -0.015455
      6          6           0       -3.683269    0.757049   -0.024499
      7          6           0       -3.702433   -0.596058   -0.006152
      8          6           0       -2.494261   -1.302505    0.021180
      9          6           0       -0.001676   -1.422851    0.015273
     10          6           0        0.001573    1.312281   -0.010772
     11          6           0        1.260790   -0.711247   -0.055230
     12          6           0        1.238336    0.695139   -0.010567
     13          6           0       -1.262614   -0.717144    0.053371
     14          6           0       -1.236652    0.692372    0.001666
     15          1           0        2.484863   -2.413938   -0.032407
     16          1           0        4.635222   -1.137833   -0.036160
     17          1           0        4.611074    1.275039    0.000021
     18          1           0        2.470885    2.467494    0.021365
     19          1           0        0.003066    2.409308    0.001848
     20          1           0       -2.464518    2.438541   -0.002584
     21          1           0       -4.607356    1.274911    0.059512
     22          1           0       -4.638541   -1.143394   -0.016289
     23          1           0       -2.491204   -2.435635    0.008074
     24          1           0        0.006588   -1.981854    0.864954
     25          1           0       -0.011490   -1.960488   -0.854023
 ---------------------------------------------------------------------
 Rotational constants (GHZ):           2.3108594           0.4445361           0.3737085
 Standard basis: 6-311++G(d,p) (5D, 7F)
 There are   399 symmetry adapted cartesian basis functions of A   symmetry.
 There are   385 symmetry adapted basis functions of A   symmetry.
   385 basis functions,   603 primitive gaussians,   399 cartesian basis functions
    47 alpha electrons       47 beta electrons
       nuclear repulsion energy       792.4834368473 Hartrees.
 NAtoms=   25 NActive=   25 NUniq=   25 SFac= 1.00D+00 NAtFMM=   60 NAOKFM=F Big=F
 Integral buffers will be    131072 words long.
 Regular integral format.
 Two-electron integral symmetry is turned on.
 Nuclear repulsion after empirical dispersion term =      792.4824775019 Hartrees.
 One-electron integrals computed using PRISM.
 NBasis=   385 RedAO= T EigKep=  1.18D-06  NBF=   385
 NBsUse=   379 1.00D-06 EigRej=  9.07D-07 NBFU=   379
 ExpMin= 3.60D-02 ExpMax= 4.56D+03 ExpMxC= 6.82D+02 IAcc=3 IRadAn=         5 AccDes= 0.00D+00
 Harris functional with IExCor= 1009 and IRadAn=       5 diagonalized for initial guess.
 HarFok:  IExCor= 1009 AccDes= 0.00D+00 IRadAn=         5 IDoV= 1 UseB2=F ITyADJ=14
 ICtDFT=  3500011 ScaDFX=  1.000000  1.000000  1.000000  1.000000
 FoFCou: FMM=F IPFlag=           0 FMFlag=      100000 FMFlg1=           0
         NFxFlg=           0 DoJE=T BraDBF=F KetDBF=T FulRan=T
         wScrn=  0.000000 ICntrl=       500 IOpCl=  0 I1Cent=   200000004 NGrid=           0
         NMat0=    1 NMatS0=      1 NMatT0=    0 NMatD0=    1 NMtDS0=    0 NMtDT0=    0
 Petite list used in FoFCou.
 Requested convergence on RMS density matrix=1.00D-08 within 128 cycles.
 Requested convergence on MAX density matrix=1.00D-06.
 Requested convergence on             energy=1.00D-06.
 No special actions if energy rises.
 SCF Done:  E(RM062X) =  -539.716406734     A.U. after   14 cycles
            NFock= 14  Conv=0.58D-08     -V/T= 2.0020
 DoSCS=F DFT=T ScalE2(SS,OS)=  1.000000  1.000000
 ExpMin= 3.60D-02 ExpMax= 4.56D+03 ExpMxC= 6.82D+02 IAcc=3 IRadAn=         5 AccDes= 0.00D+00
 HarFok:  IExCor=  205 AccDes= 0.00D+00 IRadAn=         5 IDoV=-2 UseB2=F ITyADJ=14
 ICtDFT= 12500011 ScaDFX=  1.000000  1.000000  1.000000  1.000000
 Range of M.O.s used for correlation:    15   379
 NBasis=   385 NAE=    47 NBE=    47 NFC=    14 NFV=     0
 NROrb=    365 NOA=    33 NOB=    33 NVA=   332 NVB=   332

 **** Warning!!: The largest alpha MO coefficient is  0.15165769D+03

 Orbital symmetries:
       Occupied  (A) (A) (A) (A) (A) (A) (A) (A) (A) (A) (A) (A)
                 (A) (A) (A) (A) (A) (A) (A) (A) (A) (A) (A) (A)
                 (A) (A) (A) (A) (A) (A) (A) (A) (A) (A) (A) (A)
                 (A) (A) (A) (A) (A) (A) (A) (A) (A) (A) (A)
       Virtual   (A) (A) (A) (A) (A) (A) (A) (A) (A) (A) (A) (A)
                 (A) (A) (A) (A) (A) (A) (A) (A) (A) (A) (A) (A)
                 (A) (A) (A) (A) (A) (A) (A) (A) (A) (A) (A) (A)
                 (A) (A) (A) (A) (A) (A) (A) (A) (A) (A) (A) (A)
                 (A) (A) (A) (A) (A) (A) (A) (A) (A) (A) (A) (A)
                 (A) (A) (A) (A) (A) (A) (A) (A) (A) (A) (A) (A)
                 (A) (A) (A) (A) (A) (A) (A) (A) (A) (A) (A) (A)
                 (A) (A) (A) (A) (A) (A) (A) (A) (A) (A) (A) (A)
                 (A) (A) (A) (A) (A) (A) (A) (A) (A) (A) (A) (A)
                 (A) (A) (A) (A) (A) (A) (A) (A) (A) (A) (A) (A)
                 (A) (A) (A) (A) (A) (A) (A) (A) (A) (A) (A) (A)
                 (A) (A) (A) (A) (A) (A) (A) (A) (A) (A) (A) (A)
                 (A) (A) (A) (A) (A) (A) (A) (A) (A) (A) (A) (A)
                 (A) (A) (A) (A) (A) (A) (A) (A) (A) (A) (A) (A)
                 (A) (A) (A) (A) (A) (A) (A) (A) (A) (A) (A) (A)
                 (A) (A) (A) (A) (A) (A) (A) (A) (A) (A) (A) (A)
                 (A) (A) (A) (A) (A) (A) (A) (A) (A) (A) (A) (A)
                 (A) (A) (A) (A) (A) (A) (A) (A) (A) (A) (A) (A)
                 (A) (A) (A) (A) (A) (A) (A) (A) (A) (A) (A) (A)
                 (A) (A) (A) (A) (A) (A) (A) (A) (A) (A) (A) (A)
                 (A) (A) (A) (A) (A) (A) (A) (A) (A) (A) (A) (A)
                 (A) (A) (A) (A) (A) (A) (A) (A) (A) (A) (A) (A)
                 (A) (A) (A) (A) (A) (A) (A) (A) (A) (A) (A) (A)
                 (A) (A) (A) (A) (A) (A) (A) (A) (A) (A) (A) (A)
                 (A) (A) (A) (A) (A) (A) (A) (A) (A) (A) (A) (A)
                 (A) (A) (A) (A) (A) (A) (A) (A) (A) (A) (A) (A)
                 (A) (A) (A) (A) (A) (A) (A) (A) (A) (A) (A) (A)
                 (A) (A) (A) (A) (A) (A) (A) (A)
     4 initial guesses have been made.
 Convergence on wavefunction:    0.001000000000000
 Iteration     1 Dimension     4 NMult     0 NNew      4
 CISAX will form     4 AO SS matrices at one time.
 Iteration     2 Dimension     6 NMult     4 NNew      2
 Iteration     3 Dimension     8 NMult     6 NNew      2
 Iteration     4 Dimension    10 NMult     8 NNew      2
 Iteration     5 Dimension    12 NMult    10 NNew      2
 Iteration     6 Dimension    14 NMult    12 NNew      2
 ***********************************************************************
 Excited states from <AA,BB:AA,BB> singles matrix:
 ***********************************************************************
 
 Ground to excited state transition densities written to RWF  633
 Ground to excited state transition electric dipole moments (Au):
       state          X           Y           Z        Dip. S.      Osc.
         1        -0.0118     -0.5973     -0.0006      0.3569      0.0273
 Ground to excited state transition velocity dipole moments (Au):
       state          X           Y           Z        Dip. S.      Osc.
         1         0.0014      0.0765      0.0001      0.0059      0.0340
 Ground to excited state transition magnetic dipole moments (Au):
       state          X           Y           Z
         1        -0.0090     -0.0201     -0.0016
 Ground to excited state transition velocity quadrupole moments (Au):
       state          XX          YY          ZZ          XY          XZ          YZ
         1         0.3226      0.0482     -0.0074      0.0073      0.0072     -0.0008
 <0|del|b> * <b|rxdel|0> + <0|del|b> * <b|delr+rdel|0>
 Rotatory Strengths (R) in cgs (10**-40 erg-esu-cm/Gauss)
       state          XX          YY          ZZ    R(velocity)    E-M Angle
         1        -6.4174     -0.0460     -3.0618     -3.1751      156.44
 1/2[<0|r|b>*<b|rxdel|0> + (<0|rxdel|b>*<b|r|0>)*]
 Rotatory Strengths (R) in cgs (10**-40 erg-esu-cm/Gauss)
       state          XX          YY          ZZ     R(length)
         1        -0.0757     -8.4718     -0.0007     -2.8494
  1/2[<0|del|b>*<b|r|0> + (<0|r|b>*<b|del|0>)*] (Au)
       state          X           Y           Z        Dip. S.   Osc.(frdel)
         1        -0.0000     -0.0457     -0.0000      0.0457      0.0305

 Excitation energies and oscillator strengths:
 
 Excited State   1:      Singlet-A      3.1274 eV  396.44 nm  f=0.0273  <S**2>=0.000
      47 -> 48         0.70358
 This state for optimization and/or second-order correction.
 Total Energy, E(TD-HF/TD-DFT) =  -539.601476774    
 Copying the excited state density for this state as the 1-particle RhoCI density.
 SavETr:  write IOETrn=   770 NScale= 10 NData=  16 NLR=1 NState=    1 LETran=      28.

 **********************************************************************

            Population analysis using the SCF Density.

 **********************************************************************

 Orbital symmetries:
       Occupied  (A) (A) (A) (A) (A) (A) (A) (A) (A) (A) (A) (A)
                 (A) (A) (A) (A) (A) (A) (A) (A) (A) (A) (A) (A)
                 (A) (A) (A) (A) (A) (A) (A) (A) (A) (A) (A) (A)
                 (A) (A) (A) (A) (A) (A) (A) (A) (A) (A) (A)
       Virtual   (A) (A) (A) (A) (A) (A) (A) (A) (A) (A) (A) (A)
                 (A) (A) (A) (A) (A) (A) (A) (A) (A) (A) (A) (A)
                 (A) (A) (A) (A) (A) (A) (A) (A) (A) (A) (A) (A)
                 (A) (A) (A) (A) (A) (A) (A) (A) (A) (A) (A) (A)
                 (A) (A) (A) (A) (A) (A) (A) (A) (A) (A) (A) (A)
                 (A) (A) (A) (A) (A) (A) (A) (A) (A) (A) (A) (A)
                 (A) (A) (A) (A) (A) (A) (A) (A) (A) (A) (A) (A)
                 (A) (A) (A) (A) (A) (A) (A) (A) (A) (A) (A) (A)
                 (A) (A) (A) (A) (A) (A) (A) (A) (A) (A) (A) (A)
                 (A) (A) (A) (A) (A) (A) (A) (A) (A) (A) (A) (A)
                 (A) (A) (A) (A) (A) (A) (A) (A) (A) (A) (A) (A)
                 (A) (A) (A) (A) (A) (A) (A) (A) (A) (A) (A) (A)
                 (A) (A) (A) (A) (A) (A) (A) (A) (A) (A) (A) (A)
                 (A) (A) (A) (A) (A) (A) (A) (A) (A) (A) (A) (A)
                 (A) (A) (A) (A) (A) (A) (A) (A) (A) (A) (A) (A)
                 (A) (A) (A) (A) (A) (A) (A) (A) (A) (A) (A) (A)
                 (A) (A) (A) (A) (A) (A) (A) (A) (A) (A) (A) (A)
                 (A) (A) (A) (A) (A) (A) (A) (A) (A) (A) (A) (A)
                 (A) (A) (A) (A) (A) (A) (A) (A) (A) (A) (A) (A)
                 (A) (A) (A) (A) (A) (A) (A) (A) (A) (A) (A) (A)
                 (A) (A) (A) (A) (A) (A) (A) (A) (A) (A) (A) (A)
                 (A) (A) (A) (A) (A) (A) (A) (A) (A) (A) (A) (A)
                 (A) (A) (A) (A) (A) (A) (A) (A) (A) (A) (A) (A)
                 (A) (A) (A) (A) (A) (A) (A) (A) (A) (A) (A) (A)
                 (A) (A) (A) (A) (A) (A) (A) (A) (A) (A) (A) (A)
                 (A) (A) (A) (A) (A) (A) (A) (A) (A) (A) (A) (A)
                 (A) (A) (A) (A) (A) (A) (A) (A) (A) (A) (A) (A)
                 (A) (A) (A) (A) (A) (A) (A) (A)
 The electronic state is 1-A.
 Alpha  occ. eigenvalues --  -10.76618 -10.72383 -10.72315 -10.71732 -10.71692
 Alpha  occ. eigenvalues --  -10.71411 -10.71116 -10.71088 -10.70862 -10.69843
 Alpha  occ. eigenvalues --  -10.69604 -10.68980 -10.68915 -10.68868  -1.18064
 Alpha  occ. eigenvalues --   -1.14176  -1.08826  -1.07011  -1.02356  -1.01195
 Alpha  occ. eigenvalues --   -0.96540  -0.92733  -0.86998  -0.85920  -0.83698
 Alpha  occ. eigenvalues --   -0.79418  -0.77351  -0.74241  -0.71975  -0.71433
 Alpha  occ. eigenvalues --   -0.69377  -0.68455  -0.66820  -0.66333  -0.63035
 Alpha  occ. eigenvalues --   -0.62249  -0.61838  -0.61634  -0.60798  -0.59923
 Alpha  occ. eigenvalues --   -0.56945  -0.55289  -0.53259  -0.52615  -0.47859
 Alpha  occ. eigenvalues --   -0.46179  -0.45549
 Alpha virt. eigenvalues --   -0.25851  -0.14382  -0.13404  -0.12006  -0.11177
 Alpha virt. eigenvalues --   -0.09884  -0.09370  -0.08232  -0.08010  -0.07435
 Alpha virt. eigenvalues --   -0.07174  -0.06851  -0.05639  -0.05505  -0.05166
 Alpha virt. eigenvalues --   -0.04052  -0.03990  -0.03135  -0.02961  -0.02025
 Alpha virt. eigenvalues --   -0.01737  -0.00864   0.00341   0.00442   0.00792
 Alpha virt. eigenvalues --    0.01304   0.01390   0.02071   0.02253   0.02405
 Alpha virt. eigenvalues --    0.02654   0.02907   0.03087   0.03207   0.03352
 Alpha virt. eigenvalues --    0.04250   0.04542   0.04592   0.05312   0.05368
 Alpha virt. eigenvalues --    0.06161   0.06348   0.06500   0.06962   0.07542
 Alpha virt. eigenvalues --    0.07690   0.08271   0.08583   0.08911   0.09215
 Alpha virt. eigenvalues --    0.09388   0.09719   0.09975   0.10181   0.11473
 Alpha virt. eigenvalues --    0.11665   0.11917   0.12442   0.12474   0.12808
 Alpha virt. eigenvalues --    0.13546   0.13869   0.14368   0.14803   0.15849
 Alpha virt. eigenvalues --    0.16237   0.16611   0.17936   0.18330   0.18652
 Alpha virt. eigenvalues --    0.18913   0.19307   0.19811   0.20102   0.20328
 Alpha virt. eigenvalues --    0.21214   0.22013   0.23155   0.23229   0.23880
 Alpha virt. eigenvalues --    0.24228   0.25152   0.25386   0.27558   0.28433
 Alpha virt. eigenvalues --    0.29294   0.29570   0.32151   0.32609   0.37833
 Alpha virt. eigenvalues --    0.38325   0.38994   0.39326   0.40461   0.41317
 Alpha virt. eigenvalues --    0.41704   0.42508   0.43448   0.44167   0.44689
 Alpha virt. eigenvalues --    0.45240   0.46041   0.47160   0.47613   0.47668
 Alpha virt. eigenvalues --    0.48783   0.49325   0.49602   0.50494   0.50837
 Alpha virt. eigenvalues --    0.51343   0.51975   0.52291   0.52867   0.53645
 Alpha virt. eigenvalues --    0.54051   0.55766   0.55911   0.56249   0.58381
 Alpha virt. eigenvalues --    0.59785   0.60408   0.61725   0.62402   0.63072
 Alpha virt. eigenvalues --    0.63473   0.63915   0.64672   0.66080   0.67448
 Alpha virt. eigenvalues --    0.68604   0.70538   0.71443   0.72159   0.73367
 Alpha virt. eigenvalues --    0.74628   0.75934   0.76210   0.76524   0.76761
 Alpha virt. eigenvalues --    0.77169   0.78090   0.78399   0.79033   0.80994
 Alpha virt. eigenvalues --    0.81852   0.82187   0.82732   0.83744   0.85111
 Alpha virt. eigenvalues --    0.85426   0.87142   0.87957   0.88412   0.89885
 Alpha virt. eigenvalues --    0.91935   0.93203   0.94761   0.96257   0.97615
 Alpha virt. eigenvalues --    0.97949   0.99898   1.00233   1.03113   1.03335
 Alpha virt. eigenvalues --    1.04529   1.05836   1.06949   1.08015   1.11565
 Alpha virt. eigenvalues --    1.22456   1.23551   1.25219   1.29452   1.30163
 Alpha virt. eigenvalues --    1.31730   1.32839   1.33337   1.35308   1.35529
 Alpha virt. eigenvalues --    1.38250   1.42807   1.43022   1.44075   1.44806
 Alpha virt. eigenvalues --    1.45525   1.47623   1.48209   1.48531   1.48928
 Alpha virt. eigenvalues --    1.49589   1.51340   1.52113   1.55898   1.56913
 Alpha virt. eigenvalues --    1.57007   1.58146   1.58704   1.59689   1.61506
 Alpha virt. eigenvalues --    1.62589   1.62952   1.63133   1.66383   1.67317
 Alpha virt. eigenvalues --    1.67996   1.71003   1.73076   1.73430   1.76873
 Alpha virt. eigenvalues --    1.78235   1.79437   1.80360   1.83100   1.83774
 Alpha virt. eigenvalues --    1.84329   1.85153   1.85479   1.85612   1.85999
 Alpha virt. eigenvalues --    1.86266   1.86898   1.88365   1.89998   1.92967
 Alpha virt. eigenvalues --    1.93524   1.95206   1.96667   1.99026   2.01848
 Alpha virt. eigenvalues --    2.03109   2.05251   2.07754   2.11519   2.12959
 Alpha virt. eigenvalues --    2.15120   2.16942   2.17344   2.24574   2.25938
 Alpha virt. eigenvalues --    2.26023   2.31107   2.31925   2.33191   2.36521
 Alpha virt. eigenvalues --    2.37981   2.39040   2.41247   2.43072   2.44719
 Alpha virt. eigenvalues --    2.48163   2.51687   2.52719   2.56662   2.56893
 Alpha virt. eigenvalues --    2.58850   2.59447   2.59676   2.60567   2.61320
 Alpha virt. eigenvalues --    2.61498   2.62584   2.62669   2.64001   2.64623
 Alpha virt. eigenvalues --    2.65869   2.66619   2.67293   2.67703   2.68581
 Alpha virt. eigenvalues --    2.71602   2.73079   2.75322   2.76922   2.77613
 Alpha virt. eigenvalues --    2.79887   2.81175   2.81944   2.82607   2.85133
 Alpha virt. eigenvalues --    2.89386   2.92877   2.94688   2.96076   3.02073
 Alpha virt. eigenvalues --    3.02923   3.09378   3.10864   3.18317   3.19246
 Alpha virt. eigenvalues --    3.27868   3.29823   3.32222   3.33332   3.34996
 Alpha virt. eigenvalues --    3.36935   3.40538   3.46128   3.48067   3.49812
 Alpha virt. eigenvalues --    3.50175   3.56982   3.58215   3.66791   3.67193
 Alpha virt. eigenvalues --    3.89692   3.91952   3.94188   3.96723   3.98716
 Alpha virt. eigenvalues --    4.01096   4.02746   4.02890   4.11714   4.39201
 Alpha virt. eigenvalues --    4.69699   4.72096   4.73656  23.42005  23.59735
 Alpha virt. eigenvalues --   23.84666  23.87664  23.88578  23.99047  24.02003
 Alpha virt. eigenvalues --   24.06130  24.06592  24.09240  24.09489  24.12767
 Alpha virt. eigenvalues --   24.22873  24.23874
          Condensed to atoms (all electrons):
               1          2          3          4          5          6
     1  C    9.972432   0.454741  -0.984218   2.660426   0.142222  -0.091706
     2  C    0.454741   6.978390   0.467740  -0.718431  -0.087257  -0.016599
     3  C   -0.984218   0.467740   6.957757   0.075024  -0.109077   0.021528
     4  C    2.660426  -0.718431   0.075024  12.851957  -0.044093  -0.163795
     5  C    0.142222  -0.087257  -0.109077  -0.044093  10.391080  -0.171480
     6  C   -0.091706  -0.016599   0.021528  -0.163795  -0.171480   7.092870
     7  C   -0.021059   0.014435  -0.012546  -0.078086  -0.636728   0.563590
     8  C    0.694495  -0.022978  -0.096301   0.111429   2.819440  -0.947045
     9  C   -1.691246  -0.431654   0.578789  -0.546097  -1.876329   0.433460
    10  C   -1.782588   0.063185  -0.407385  -3.432499  -2.232791  -0.504154
    11  C   -0.774338  -0.747539   1.192123  -0.712339  -1.062746  -0.084381
    12  C   -1.830890   0.456999  -1.248505  -1.086939  -0.543105  -0.183197
    13  C   -0.184329  -0.110634  -0.174310  -1.996567  -0.784546   1.422418
    14  C   -0.996494  -0.237791  -0.157399  -1.372572  -0.266567  -1.277920
    15  H    0.336292  -0.056053  -0.016402   0.025737   0.005479   0.001187
    16  H   -0.022141   0.391415  -0.013868   0.023362  -0.001255  -0.000265
    17  H   -0.032111  -0.029439   0.407026  -0.088683  -0.001355   0.000340
    18  H    0.061488  -0.010597  -0.093274   0.459758   0.019093  -0.003438
    19  H   -0.075021  -0.004983   0.052787  -0.124469  -0.072873   0.063164
    20  H    0.010001   0.000996  -0.003084   0.017837   0.459047  -0.098652
    21  H   -0.001020  -0.000163   0.000316  -0.001323  -0.088001   0.403586
    22  H    0.000293   0.000249  -0.000250  -0.002243   0.023468  -0.010950
    23  H    0.010758  -0.001751   0.001030   0.008077   0.017214  -0.017268
    24  H    0.084787   0.022335  -0.001553  -0.021880  -0.002698   0.003661
    25  H    0.076391   0.031333  -0.002409  -0.013241  -0.014536  -0.006894
               7          8          9         10         11         12
     1  C   -0.021059   0.694495  -1.691246  -1.782588  -0.774338  -1.830890
     2  C    0.014435  -0.022978  -0.431654   0.063185  -0.747539   0.456999
     3  C   -0.012546  -0.096301   0.578789  -0.407385   1.192123  -1.248505
     4  C   -0.078086   0.111429  -0.546097  -3.432499  -0.712339  -1.086939
     5  C   -0.636728   2.819440  -1.876329  -2.232791  -1.062746  -0.543105
     6  C    0.563590  -0.947045   0.433460  -0.504154  -0.084381  -0.183197
     7  C    6.643152   0.387591  -0.093809   0.002788  -0.144066  -0.233607
     8  C    0.387591  10.216616  -2.148121  -1.900232  -0.061455  -0.894436
     9  C   -0.093809  -2.148121  11.172299   0.704773   2.218363  -2.777626
    10  C    0.002788  -1.900232   0.704773  11.329835  -0.993588   3.165910
    11  C   -0.144066  -0.061455   2.218363  -0.993588  12.871430  -1.470376
    12  C   -0.233607  -0.894436  -2.777626   3.165910  -1.470376  14.781113
    13  C   -0.615814  -0.941703   2.023841  -1.163689  -0.249796  -3.581798
    14  C    0.325094  -1.654942  -2.064698   2.552808  -3.293975   0.789365
    15  H   -0.001088   0.012189   0.041477  -0.005933  -0.052816   0.032360
    16  H    0.000169  -0.000072   0.004287  -0.015856   0.010987  -0.028363
    17  H   -0.000081  -0.000827   0.006056   0.021139   0.003417   0.065088
    18  H    0.000313   0.008963  -0.041846   0.047814  -0.038411  -0.049240
    19  H   -0.002900  -0.077007   0.120645   0.432002   0.047838  -0.063368
    20  H   -0.015495   0.067150  -0.048716   0.058853  -0.009678  -0.010548
    21  H   -0.012503  -0.042304   0.004589   0.027613  -0.001787   0.006389
    22  H    0.376563  -0.010953  -0.000595  -0.019178   0.002520  -0.010409
    23  H   -0.041890   0.324350   0.034088  -0.000174  -0.008651   0.008850
    24  H    0.021981   0.078032   0.347457  -0.016976  -0.011344  -0.072816
    25  H    0.025220   0.071624   0.374799  -0.015443  -0.020840  -0.067697
              13         14         15         16         17         18
     1  C   -0.184329  -0.996494   0.336292  -0.022141  -0.032111   0.061488
     2  C   -0.110634  -0.237791  -0.056053   0.391415  -0.029439  -0.010597
     3  C   -0.174310  -0.157399  -0.016402  -0.013868   0.407026  -0.093274
     4  C   -1.996567  -1.372572   0.025737   0.023362  -0.088683   0.459758
     5  C   -0.784546  -0.266567   0.005479  -0.001255  -0.001355   0.019093
     6  C    1.422418  -1.277920   0.001187  -0.000265   0.000340  -0.003438
     7  C   -0.615814   0.325094  -0.001088   0.000169  -0.000081   0.000313
     8  C   -0.941703  -1.654942   0.012189  -0.000072  -0.000827   0.008963
     9  C    2.023841  -2.064698   0.041477   0.004287   0.006056  -0.041846
    10  C   -1.163689   2.552808  -0.005933  -0.015856   0.021139   0.047814
    11  C   -0.249796  -3.293975  -0.052816   0.010987   0.003417  -0.038411
    12  C   -3.581798   0.789365   0.032360  -0.028363   0.065088  -0.049240
    13  C   13.735098  -0.600145  -0.006426  -0.001056  -0.000161  -0.019122
    14  C   -0.600145  13.822409   0.003963  -0.007553   0.003978  -0.020903
    15  H   -0.006426   0.003963   0.440681  -0.007978   0.001062   0.000467
    16  H   -0.001056  -0.007553  -0.007978   0.418186  -0.007689   0.001711
    17  H   -0.000161   0.003978   0.001062  -0.007689   0.432467  -0.008897
    18  H   -0.019122  -0.020903   0.000467   0.001711  -0.008897   0.444710
    19  H    0.087116  -0.015553   0.000031  -0.000631   0.001794  -0.004203
    20  H   -0.037633  -0.062255  -0.000120   0.000003  -0.000119   0.000963
    21  H   -0.010980   0.070388   0.000010  -0.000004   0.000010  -0.000113
    22  H    0.018734  -0.029379  -0.000089   0.000002  -0.000003  -0.000009
    23  H   -0.056343   0.045207   0.000503  -0.000074   0.000010  -0.000087
    24  H   -0.023981  -0.075604   0.001567   0.000284  -0.000028  -0.000105
    25  H   -0.035079  -0.069902  -0.000686   0.000678  -0.000257   0.000880
              19         20         21         22         23         24
     1  C   -0.075021   0.010001  -0.001020   0.000293   0.010758   0.084787
     2  C   -0.004983   0.000996  -0.000163   0.000249  -0.001751   0.022335
     3  C    0.052787  -0.003084   0.000316  -0.000250   0.001030  -0.001553
     4  C   -0.124469   0.017837  -0.001323  -0.002243   0.008077  -0.021880
     5  C   -0.072873   0.459047  -0.088001   0.023468   0.017214  -0.002698
     6  C    0.063164  -0.098652   0.403586  -0.010950  -0.017268   0.003661
     7  C   -0.002900  -0.015495  -0.012503   0.376563  -0.041890   0.021981
     8  C   -0.077007   0.067150  -0.042304  -0.010953   0.324350   0.078032
     9  C    0.120645  -0.048716   0.004589  -0.000595   0.034088   0.347457
    10  C    0.432002   0.058853   0.027613  -0.019178  -0.000174  -0.016976
    11  C    0.047838  -0.009678  -0.001787   0.002520  -0.008651  -0.011344
    12  C   -0.063368  -0.010548   0.006389  -0.010409   0.008850  -0.072816
    13  C    0.087116  -0.037633  -0.010980   0.018734  -0.056343  -0.023981
    14  C   -0.015553  -0.062255   0.070388  -0.029379   0.045207  -0.075604
    15  H    0.000031  -0.000120   0.000010  -0.000089   0.000503   0.001567
    16  H   -0.000631   0.000003  -0.000004   0.000002  -0.000074   0.000284
    17  H    0.001794  -0.000119   0.000010  -0.000003   0.000010  -0.000028
    18  H   -0.004203   0.000963  -0.000113  -0.000009  -0.000087  -0.000105
    19  H    0.459519  -0.003777   0.001692  -0.000522  -0.000082   0.000234
    20  H   -0.003777   0.447680  -0.008316   0.001369   0.000489   0.000763
    21  H    0.001692  -0.008316   0.431608  -0.007126   0.000951  -0.000041
    22  H   -0.000522   0.001369  -0.007126   0.415815  -0.006792   0.000343
    23  H   -0.000082   0.000489   0.000951  -0.006792   0.433923  -0.000806
    24  H    0.000234   0.000763  -0.000041   0.000343  -0.000806   0.483353
    25  H   -0.000080   0.000291  -0.000272   0.000729   0.001306  -0.041362
              25
     1  C    0.076391
     2  C    0.031333
     3  C   -0.002409
     4  C   -0.013241
     5  C   -0.014536
     6  C   -0.006894
     7  C    0.025220
     8  C    0.071624
     9  C    0.374799
    10  C   -0.015443
    11  C   -0.020840
    12  C   -0.067697
    13  C   -0.035079
    14  C   -0.069902
    15  H   -0.000686
    16  H    0.000678
    17  H   -0.000257
    18  H    0.000880
    19  H   -0.000080
    20  H    0.000291
    21  H   -0.000272
    22  H    0.000729
    23  H    0.001306
    24  H   -0.041362
    25  H    0.479295
 Mulliken charges:
               1
     1  C   -0.017166
     2  C   -0.405946
     3  C   -0.433539
     4  C    0.169651
     5  C    0.118394
     6  C   -0.428060
     7  C   -0.451227
     8  C    0.006498
     9  C   -0.344185
    10  C    0.083766
    11  C   -0.608551
    12  C    0.846843
    13  C   -0.693095
    14  C    0.590441
    15  H    0.244584
    16  H    0.255719
    17  H    0.227260
    18  H    0.244085
    19  H    0.178645
    20  H    0.232952
    21  H    0.226800
    22  H    0.258414
    23  H    0.247164
    24  H    0.224398
    25  H    0.226153
 Sum of Mulliken charges =   1.00000
 Mulliken charges with hydrogens summed into heavy atoms:
               1
     1  C    0.227418
     2  C   -0.150227
     3  C   -0.206279
     4  C    0.413736
     5  C    0.351346
     6  C   -0.201260
     7  C   -0.192813
     8  C    0.253662
     9  C    0.106366
    10  C    0.262411
    11  C   -0.608551
    12  C    0.846843
    13  C   -0.693095
    14  C    0.590441
 Electronic spatial extent (au):  <R**2>=           2818.7071
 Charge=              1.0000 electrons
 Dipole moment (field-independent basis, Debye):
    X=             -0.0140    Y=              0.3261    Z=             -0.0024  Tot=              0.3264
 Quadrupole moment (field-independent basis, Debye-Ang):
   XX=            -28.0137   YY=            -59.9180   ZZ=            -82.8957
   XY=              0.0809   XZ=             -0.4663   YZ=              0.1823
 Traceless Quadrupole moment (field-independent basis, Debye-Ang):
   XX=             28.9288   YY=             -2.9756   ZZ=            -25.9532
   XY=              0.0809   XZ=             -0.4663   YZ=              0.1823
 Octapole moment (field-independent basis, Debye-Ang**2):
  XXX=             -0.1253  YYY=              5.4479  ZZZ=              0.0499  XYY=             -0.0234
  XXY=              0.5027  XXZ=              0.0968  XZZ=              0.0007  YZZ=             -3.0131
  YYZ=              0.1482  XYZ=             -0.4182
 Hexadecapole moment (field-independent basis, Debye-Ang**3):
 XXXX=          -2043.8798 YYYY=           -595.5544 ZZZZ=            -96.1870 XXXY=             -0.5877
 XXXZ=            -11.6384 YYYX=              1.4768 YYYZ=              0.8908 ZZZX=             -0.4470
 ZZZY=              0.0408 XXYY=           -511.2250 XXZZ=           -581.8283 YYZZ=           -137.5057
 XXYZ=              3.6106 YYXZ=             -1.0531 ZZXY=             -0.4936
 N-N= 7.924824775019D+02 E-N=-2.821993253300D+03  KE= 5.386614506305D+02
 Unable to Open any file for archive entry.
 1\1\GINC-GADI-CPU-CLX-0572\SP\RM062X TD-FC\6-311++G(d,p)\C14H11(1+)\TS
 1578\27-Jul-2022\0\\#n M062X/6-311++G(d,p) TD(NStates=1) EmpiricalDisp
 ersion=GD3 SP\\SP_-1\\1,1\C,0,2.4927,1.2971,-0.017\C,0,3.7015,0.6087,-
 0.035\C,0,3.6839,-0.7381,-0.064\C,0,2.4632,-1.3249,-0.012\C,0,-2.4632,
 -1.3129,0.052\C,0,-3.6839,-0.7441,0.064\C,0,-3.7015,0.6087,0.029\C,0,-
 2.4927,1.3131,-0.017\C,0,0.,1.4301,-0.033\C,0,0.,-1.3045,0.027\C,0,1.2
 621,0.7177,0.036\C,0,1.2375,-0.6891,0.009\C,0,-1.2621,0.7257,-0.052\C,
 0,-1.2375,-0.6831,0.017\H,0,2.4881,2.4183,-0.018\H,0,4.6368,1.1394,-0.
 016\H,0,4.6093,-1.2737,-0.022\H,0,2.4675,-2.4634,-0.011\H,0,0.,-2.4016
 ,0.028\H,0,-2.4675,-2.4274,0.053\H,0,-4.6093,-1.2617,-0.006\H,0,-4.636
 8,1.1574,0.04\H,0,-2.4881,2.4463,-0.018\H,0,0.002,1.9785,-0.8896\H,0,-
 0.002,1.9785,0.8296\\Version=ES64L-G16RevC.01\State=1-A\HF=-539.716406
 7\RMSD=5.815e-09\PG=C01 [X(C14H11)]\\@
 The archive entry for this job was punched.


 THE ... SCIENTISTS WERE WRONG ... THE MOST PERSISTENT PRINCIPLES 
 OF THE UNIVERSE WERE ACCIDENT AND ERROR.

                          -- FRANK HERBERT IN DUNE
 Job cpu time:       0 days  1 hours 13 minutes 10.7 seconds.
 Elapsed time:       0 days  0 hours  2 minutes 17.9 seconds.
 File lengths (MBytes):  RWF=    460 Int=      0 D2E=      0 Chk=     15 Scr=      1
 Normal termination of Gaussian 16 at Wed Jul 27 10:52:43 2022.
