 Entering Gaussian System, Link 0=g16
 Initial command:
 /apps/gaussian/g16c01/g16/l1.exe "/jobfs/52803152.gadi-pbs/Gau-2812394.inp" -scrdir="/jobfs/52803152.gadi-pbs/"
 Entering Link 1 = /apps/gaussian/g16c01/g16/l1.exe PID=   2812395.
  
 Copyright (c) 1988-2019, Gaussian, Inc.  All Rights Reserved.
  
 This is part of the Gaussian(R) 16 program.  It is based on
 the Gaussian(R) 09 system (copyright 2009, Gaussian, Inc.),
 the Gaussian(R) 03 system (copyright 2003, Gaussian, Inc.),
 the Gaussian(R) 98 system (copyright 1998, Gaussian, Inc.),
 the Gaussian(R) 94 system (copyright 1995, Gaussian, Inc.),
 the Gaussian 92(TM) system (copyright 1992, Gaussian, Inc.),
 the Gaussian 90(TM) system (copyright 1990, Gaussian, Inc.),
 the Gaussian 88(TM) system (copyright 1988, Gaussian, Inc.),
 the Gaussian 86(TM) system (copyright 1986, Carnegie Mellon
 University), and the Gaussian 82(TM) system (copyright 1983,
 Carnegie Mellon University). Gaussian is a federally registered
 trademark of Gaussian, Inc.
  
 This software contains proprietary and confidential information,
 including trade secrets, belonging to Gaussian, Inc.
  
 This software is provided under written license and may be
 used, copied, transmitted, or stored only in accord with that
 written license.
  
 The following legend is applicable only to US Government
 contracts under FAR:
  
                    RESTRICTED RIGHTS LEGEND
  
 Use, reproduction and disclosure by the US Government is
 subject to restrictions as set forth in subparagraphs (a)
 and (c) of the Commercial Computer Software - Restricted
 Rights clause in FAR 52.227-19.
  
 Gaussian, Inc.
 340 Quinnipiac St., Bldg. 40, Wallingford CT 06492
  
  
 ---------------------------------------------------------------
 Warning -- This program may not be used in any manner that
 competes with the business of Gaussian, Inc. or will provide
 assistance to any competitor of Gaussian, Inc.  The licensee
 of this program is prohibited from giving any competitor of
 Gaussian, Inc. access to this program.  By using this program,
 the user acknowledges that Gaussian, Inc. is engaged in the
 business of creating and licensing software in the field of
 computational chemistry and represents and warrants to the
 licensee that it is not a competitor of Gaussian, Inc. and that
 it will not use this program in any manner prohibited above.
 ---------------------------------------------------------------
  

 Cite this work as:
 Gaussian 16, Revision C.01,
 M. J. Frisch, G. W. Trucks, H. B. Schlegel, G. E. Scuseria, 
 M. A. Robb, J. R. Cheeseman, G. Scalmani, V. Barone, 
 G. A. Petersson, H. Nakatsuji, X. Li, M. Caricato, A. V. Marenich, 
 J. Bloino, B. G. Janesko, R. Gomperts, B. Mennucci, H. P. Hratchian, 
 J. V. Ortiz, A. F. Izmaylov, J. L. Sonnenberg, D. Williams-Young, 
 F. Ding, F. Lipparini, F. Egidi, J. Goings, B. Peng, A. Petrone, 
 T. Henderson, D. Ranasinghe, V. G. Zakrzewski, J. Gao, N. Rega, 
 G. Zheng, W. Liang, M. Hada, M. Ehara, K. Toyota, R. Fukuda, 
 J. Hasegawa, M. Ishida, T. Nakajima, Y. Honda, O. Kitao, H. Nakai, 
 T. Vreven, K. Throssell, J. A. Montgomery, Jr., J. E. Peralta, 
 F. Ogliaro, M. J. Bearpark, J. J. Heyd, E. N. Brothers, K. N. Kudin, 
 V. N. Staroverov, T. A. Keith, R. Kobayashi, J. Normand, 
 K. Raghavachari, A. P. Rendell, J. C. Burant, S. S. Iyengar, 
 J. Tomasi, M. Cossi, J. M. Millam, M. Klene, C. Adamo, R. Cammi, 
 J. W. Ochterski, R. L. Martin, K. Morokuma, O. Farkas, 
 J. B. Foresman, and D. J. Fox, Gaussian, Inc., Wallingford CT, 2019.
 
 ******************************************
 Gaussian 16:  ES64L-G16RevC.01  3-Jul-2019
                27-Jul-2022 
 ******************************************
 %NProcShared=32
 Will use up to   32 processors via shared memory.
 %mem = 128GB
 ---------------------------------------------------------------
 #n M062X/6-311++G(d,p) TD(NStates=1) EmpiricalDispersion=GD3 SP
 ---------------------------------------------------------------
 1/38=1,172=1/1;
 2/12=2,17=6,18=5,40=1/2;
 3/5=4,6=6,7=1111,11=9,25=1,30=1,74=-55,124=31/1,2,3,8;
 4//1;
 5/5=2,38=5/2;
 8/6=1,10=2,108=1/1;
 9/41=1,42=1,70=2/14;
 6/7=2,8=2,9=2,10=2/1;
 99/5=1,9=1/99;
 -----
 SP_-1
 -----
 Symbolic Z-matrix:
 Charge =  1 Multiplicity = 1
 C                     2.4927    1.3771   -0.017 
 C                     3.7015    0.6987    0.005 
 C                     3.6839   -0.6931    0.016 
 C                     2.4632   -1.4249    0.028 
 C                    -2.4632   -1.4129    0.012 
 C                    -3.6839   -0.6991   -0.016 
 C                    -3.7015    0.6987   -0.011 
 C                    -2.4927    1.3931   -0.017 
 C                     0.        1.4701   -0.033 
 C                     0.       -1.4495    0.027 
 C                     1.2621    0.6727   -0.019 
 C                     1.2375   -0.7341    0.014 
 C                    -1.2621    0.6807    0.003 
 C                    -1.2375   -0.7281    0.012 
 H                     2.4881    2.4433   -0.018 
 H                     4.6368    1.2294    0.019 
 H                     4.6093   -1.2687   -0.012 
 H                     2.4675   -2.5084    0.029 
 H                     0.       -2.5266    0.028 
 H                    -2.4675   -2.4724    0.013 
 H                    -4.6093   -1.2567   -0.016 
 H                    -4.6368    1.2474    0.005 
 H                    -2.4881    2.4713   -0.018 
 H                     0.002     2.1985   -0.8896 
 H                    -0.002     2.1985    0.8296 
 
                          Input orientation:                          
 ---------------------------------------------------------------------
 Center     Atomic      Atomic             Coordinates (Angstroms)
 Number     Number       Type             X           Y           Z
 ---------------------------------------------------------------------
      1          6           0        2.492700    1.377100   -0.017000
      2          6           0        3.701500    0.698700    0.005000
      3          6           0        3.683900   -0.693100    0.016000
      4          6           0        2.463200   -1.424900    0.028000
      5          6           0       -2.463200   -1.412900    0.012000
      6          6           0       -3.683900   -0.699100   -0.016000
      7          6           0       -3.701500    0.698700   -0.011000
      8          6           0       -2.492700    1.393100   -0.017000
      9          6           0        0.000000    1.470100   -0.033000
     10          6           0        0.000000   -1.449500    0.027000
     11          6           0        1.262100    0.672700   -0.019000
     12          6           0        1.237500   -0.734100    0.014000
     13          6           0       -1.262100    0.680700    0.003000
     14          6           0       -1.237500   -0.728100    0.012000
     15          1           0        2.488100    2.443300   -0.018000
     16          1           0        4.636800    1.229400    0.019000
     17          1           0        4.609300   -1.268700   -0.012000
     18          1           0        2.467500   -2.508400    0.029000
     19          1           0        0.000000   -2.526600    0.028000
     20          1           0       -2.467500   -2.472400    0.013000
     21          1           0       -4.609300   -1.256700   -0.016000
     22          1           0       -4.636800    1.247400    0.005000
     23          1           0       -2.488100    2.471300   -0.018000
     24          1           0        0.002000    2.198500   -0.889600
     25          1           0       -0.002000    2.198500    0.829600
 ---------------------------------------------------------------------
                    Distance matrix (angstroms):
                    1          2          3          4          5
     1  C    0.000000
     2  C    1.386329   0.000000
     3  C    2.388676   1.391955   0.000000
     4  C    2.802517   2.458372   1.423300   0.000000
     5  C    5.687344   6.516320   6.189101   4.926441   0.000000
     6  C    6.516210   7.516543   7.367872   6.189956   1.414356
     7  C    6.231242   7.403017   7.515449   6.520332   2.448014
     8  C    4.985426   6.233040   6.519487   5.701236   2.806305
     9  C    2.494486   3.781217   4.272348   3.801592   3.792238
    10  C    3.768973   4.279760   3.760769   2.463323   2.463518
    11  C    1.417942   2.439657   2.780602   2.417597   4.269490
    12  C    2.456350   2.850315   2.446744   1.407033   3.762440
    13  C    3.818887   4.963633   5.133265   4.279257   2.413687
    14  C    4.283352   5.140966   4.921526   3.765762   1.404027
    15  H    1.066210   2.125205   3.356799   3.868554   6.275870
    16  H    2.149483   1.075465   2.145701   3.430733   7.575737
    17  H    3.388256   2.166807   1.090167   2.152149   7.074011
    18  H    3.885854   3.436397   2.185203   1.083509   5.050961
    19  H    4.631895   4.909602   4.114971   2.698351   2.703320
    20  H    6.278784   6.936317   6.403565   5.040762   1.059509
    21  H    7.574649   8.537765   8.312390   7.074637   2.151959
    22  H    7.130714   8.356334   8.543987   7.586285   3.435372
    23  H    5.099573   6.438462   6.936005   6.300624   3.884396
    24  H    2.764003   4.090967   4.768422   4.475324   4.464561
    25  H    2.759521   4.079862   4.754908   4.455199   4.446143
                    6          7          8          9         10
     6  C    0.000000
     7  C    1.397920   0.000000
     8  C    2.407542   1.394068   0.000000
     9  C    4.275142   3.781090   2.493940   0.000000
    10  C    3.759796   4.279873   3.780987   2.920216   0.000000
    11  C    5.132715   4.963675   3.823284   1.492963   2.469564
    12  C    4.921616   5.142690   4.294221   2.528263   1.429466
    13  C    2.787351   2.439507   1.422072   1.489075   2.476131
    14  C    2.446732   2.847382   2.464925   2.522997   1.432498
    15  H    6.925913   6.430772   5.090313   2.671701   4.620234
    16  H    8.541334   8.355225   7.131470   4.643334   5.355043
    17  H    8.312739   8.540495   7.584432   5.361633   4.613009
    18  H    6.412122   6.952960   6.310896   4.681972   2.685113
    19  H    4.112519   4.909703   4.645388   3.997165   1.077100
    20  H    2.150596   3.402823   3.865699   4.651234   2.671156
    21  H    1.080409   2.155856   3.391377   5.355499   4.613531
    22  H    2.167331   1.084488   2.149157   4.642300   5.364109
    23  H    3.388418   2.148139   1.078210   2.682027   4.643850
    24  H    4.769185   4.091118   2.762902   1.124426   3.761391
    25  H    4.761041   4.079499   2.751179   1.129004   3.735248
                   11         12         13         14         15
    11  C    0.000000
    12  C    1.407402   0.000000
    13  C    2.524309   2.872243   0.000000
    14  C    2.865519   2.475008   1.409044   0.000000
    15  H    2.153625   3.414805   4.143815   4.892727   0.000000
    16  H    3.420520   3.925633   5.924386   6.191870   2.468164
    17  H    3.869474   3.414016   6.186576   5.871788   4.275333
    18  H    3.402160   2.158996   4.907235   4.110570   4.951966
    19  H    3.439568   2.178224   3.446780   2.183178   5.558117
    20  H    4.878790   4.092519   3.375667   2.134358   6.980189
    21  H    6.180286   5.870186   3.867509   3.413098   8.003942
    22  H    5.926878   6.199502   3.421952   3.931652   7.224604
    23  H    4.159202   4.914846   2.170199   3.435267   4.976279
    24  H    2.161912   3.308035   2.167579   3.303669   2.645809
    25  H    2.155490   3.286595   2.138887   3.280231   2.641770
                   16         17         18         19         20
    16  H    0.000000
    17  H    2.498444   0.000000
    18  H    4.321702   2.475044   0.000000
    19  H    5.967205   4.778029   2.467567   0.000000
    20  H    8.010895   7.178483   4.935157   2.468141   0.000000
    21  H    9.574564   9.218609   7.186785   4.781237   2.462940
    22  H    9.273628   9.582349   8.036024   5.978588   4.306140
    23  H    7.232419   8.022513   7.025496   5.583168   4.943840
    24  H    4.821419   5.832570   5.392349   4.813373   5.360077
    25  H    4.807774   5.830425   5.375342   4.792613   5.344421
                   21         22         23         24         25
    21  H    0.000000
    22  H    2.504339   0.000000
    23  H    4.289228   2.472928   0.000000
    24  H    5.828008   4.819063   2.652302   0.000000
    25  H    5.820710   4.802700   2.640746   1.719205   0.000000
 Stoichiometry    C14H11(1+)
 Framework group  C1[X(C14H11)]
 Deg. of freedom    69
 Full point group                 C1      NOp   1
 Largest Abelian subgroup         C1      NOp   1
 Largest concise Abelian subgroup C1      NOp   1
                         Standard orientation:                         
 ---------------------------------------------------------------------
 Center     Atomic      Atomic             Coordinates (Angstroms)
 Number     Number       Type             X           Y           Z
 ---------------------------------------------------------------------
      1          6           0        2.490687   -1.371885    0.005740
      2          6           0        3.700506   -0.695042   -0.005750
      3          6           0        3.684932    0.696815   -0.000254
      4          6           0        2.465315    1.430492   -0.006036
      5          6           0       -2.461120    1.425517   -0.000169
      6          6           0       -3.682901    0.713223    0.016876
      7          6           0       -3.702504   -0.684392   -0.004761
      8          6           0       -2.494720   -1.380584   -0.004558
      9          6           0       -0.002171   -1.461418    0.015580
     10          6           0        0.002156    1.458685   -0.009739
     11          6           0        1.261102   -0.665757    0.013611
     12          6           0        1.238595    0.741370   -0.002727
     13          6           0       -1.263057   -0.669799   -0.013600
     14          6           0       -1.236410    0.738971   -0.005817
     15          1           0        2.484550   -2.438013   -0.005933
     16          1           0        4.635067   -1.226907   -0.024155
     17          1           0        4.611101    1.270686    0.036457
     18          1           0        2.471177    2.513920    0.005841
     19          1           0        0.003709    2.535720    0.002054
     20          1           0       -2.463892    2.484959    0.011406
     21          1           0       -4.607496    1.272138    0.021622
     22          1           0       -4.638559   -1.231493   -0.029174
     23          1           0       -2.491675   -2.458725   -0.016355
     24          1           0       -0.002972   -2.199940    0.863471
     25          1           0       -0.003456   -2.179520   -0.855612
 ---------------------------------------------------------------------
 Rotational constants (GHZ):           2.0937419           0.4446088           0.3675365
 Standard basis: 6-311++G(d,p) (5D, 7F)
 There are   399 symmetry adapted cartesian basis functions of A   symmetry.
 There are   385 symmetry adapted basis functions of A   symmetry.
   385 basis functions,   603 primitive gaussians,   399 cartesian basis functions
    47 alpha electrons       47 beta electrons
       nuclear repulsion energy       778.3192029442 Hartrees.
 NAtoms=   25 NActive=   25 NUniq=   25 SFac= 1.00D+00 NAtFMM=   60 NAOKFM=F Big=F
 Integral buffers will be    131072 words long.
 Regular integral format.
 Two-electron integral symmetry is turned on.
 Nuclear repulsion after empirical dispersion term =      778.3182189632 Hartrees.
 One-electron integrals computed using PRISM.
 NBasis=   385 RedAO= T EigKep=  1.21D-06  NBF=   385
 NBsUse=   379 1.00D-06 EigRej=  9.36D-07 NBFU=   379
 ExpMin= 3.60D-02 ExpMax= 4.56D+03 ExpMxC= 6.82D+02 IAcc=3 IRadAn=         5 AccDes= 0.00D+00
 Harris functional with IExCor= 1009 and IRadAn=       5 diagonalized for initial guess.
 HarFok:  IExCor= 1009 AccDes= 0.00D+00 IRadAn=         5 IDoV= 1 UseB2=F ITyADJ=14
 ICtDFT=  3500011 ScaDFX=  1.000000  1.000000  1.000000  1.000000
 FoFCou: FMM=F IPFlag=           0 FMFlag=      100000 FMFlg1=           0
         NFxFlg=           0 DoJE=T BraDBF=F KetDBF=T FulRan=T
         wScrn=  0.000000 ICntrl=       500 IOpCl=  0 I1Cent=   200000004 NGrid=           0
         NMat0=    1 NMatS0=      1 NMatT0=    0 NMatD0=    1 NMtDS0=    0 NMtDT0=    0
 Petite list used in FoFCou.
 Requested convergence on RMS density matrix=1.00D-08 within 128 cycles.
 Requested convergence on MAX density matrix=1.00D-06.
 Requested convergence on             energy=1.00D-06.
 No special actions if energy rises.
 SCF Done:  E(RM062X) =  -539.753831560     A.U. after   15 cycles
            NFock= 15  Conv=0.66D-08     -V/T= 2.0047
 DoSCS=F DFT=T ScalE2(SS,OS)=  1.000000  1.000000
 ExpMin= 3.60D-02 ExpMax= 4.56D+03 ExpMxC= 6.82D+02 IAcc=3 IRadAn=         5 AccDes= 0.00D+00
 HarFok:  IExCor=  205 AccDes= 0.00D+00 IRadAn=         5 IDoV=-2 UseB2=F ITyADJ=14
 ICtDFT= 12500011 ScaDFX=  1.000000  1.000000  1.000000  1.000000
 Range of M.O.s used for correlation:    15   379
 NBasis=   385 NAE=    47 NBE=    47 NFC=    14 NFV=     0
 NROrb=    365 NOA=    33 NOB=    33 NVA=   332 NVB=   332

 **** Warning!!: The largest alpha MO coefficient is  0.15076465D+03

 Orbital symmetries:
       Occupied  (A) (A) (A) (A) (A) (A) (A) (A) (A) (A) (A) (A)
                 (A) (A) (A) (A) (A) (A) (A) (A) (A) (A) (A) (A)
                 (A) (A) (A) (A) (A) (A) (A) (A) (A) (A) (A) (A)
                 (A) (A) (A) (A) (A) (A) (A) (A) (A) (A) (A)
       Virtual   (A) (A) (A) (A) (A) (A) (A) (A) (A) (A) (A) (A)
                 (A) (A) (A) (A) (A) (A) (A) (A) (A) (A) (A) (A)
                 (A) (A) (A) (A) (A) (A) (A) (A) (A) (A) (A) (A)
                 (A) (A) (A) (A) (A) (A) (A) (A) (A) (A) (A) (A)
                 (A) (A) (A) (A) (A) (A) (A) (A) (A) (A) (A) (A)
                 (A) (A) (A) (A) (A) (A) (A) (A) (A) (A) (A) (A)
                 (A) (A) (A) (A) (A) (A) (A) (A) (A) (A) (A) (A)
                 (A) (A) (A) (A) (A) (A) (A) (A) (A) (A) (A) (A)
                 (A) (A) (A) (A) (A) (A) (A) (A) (A) (A) (A) (A)
                 (A) (A) (A) (A) (A) (A) (A) (A) (A) (A) (A) (A)
                 (A) (A) (A) (A) (A) (A) (A) (A) (A) (A) (A) (A)
                 (A) (A) (A) (A) (A) (A) (A) (A) (A) (A) (A) (A)
                 (A) (A) (A) (A) (A) (A) (A) (A) (A) (A) (A) (A)
                 (A) (A) (A) (A) (A) (A) (A) (A) (A) (A) (A) (A)
                 (A) (A) (A) (A) (A) (A) (A) (A) (A) (A) (A) (A)
                 (A) (A) (A) (A) (A) (A) (A) (A) (A) (A) (A) (A)
                 (A) (A) (A) (A) (A) (A) (A) (A) (A) (A) (A) (A)
                 (A) (A) (A) (A) (A) (A) (A) (A) (A) (A) (A) (A)
                 (A) (A) (A) (A) (A) (A) (A) (A) (A) (A) (A) (A)
                 (A) (A) (A) (A) (A) (A) (A) (A) (A) (A) (A) (A)
                 (A) (A) (A) (A) (A) (A) (A) (A) (A) (A) (A) (A)
                 (A) (A) (A) (A) (A) (A) (A) (A) (A) (A) (A) (A)
                 (A) (A) (A) (A) (A) (A) (A) (A) (A) (A) (A) (A)
                 (A) (A) (A) (A) (A) (A) (A) (A) (A) (A) (A) (A)
                 (A) (A) (A) (A) (A) (A) (A) (A) (A) (A) (A) (A)
                 (A) (A) (A) (A) (A) (A) (A) (A) (A) (A) (A) (A)
                 (A) (A) (A) (A) (A) (A) (A) (A) (A) (A) (A) (A)
                 (A) (A) (A) (A) (A) (A) (A) (A)
     4 initial guesses have been made.
 Convergence on wavefunction:    0.001000000000000
 Iteration     1 Dimension     4 NMult     0 NNew      4
 CISAX will form     4 AO SS matrices at one time.
 Iteration     2 Dimension     6 NMult     4 NNew      2
 Iteration     3 Dimension     8 NMult     6 NNew      2
 Iteration     4 Dimension    10 NMult     8 NNew      2
 Iteration     5 Dimension    12 NMult    10 NNew      2
 Iteration     6 Dimension    14 NMult    12 NNew      2
 ***********************************************************************
 Excited states from <AA,BB:AA,BB> singles matrix:
 ***********************************************************************
 
 Ground to excited state transition densities written to RWF  633
 Ground to excited state transition electric dipole moments (Au):
       state          X           Y           Z        Dip. S.      Osc.
         1        -0.0069     -0.6543      0.0002      0.4282      0.0287
 Ground to excited state transition velocity dipole moments (Au):
       state          X           Y           Z        Dip. S.      Osc.
         1         0.0010      0.0731     -0.0001      0.0053      0.0354
 Ground to excited state transition magnetic dipole moments (Au):
       state          X           Y           Z
         1        -0.0042      0.0027      0.0077
 Ground to excited state transition velocity quadrupole moments (Au):
       state          XX          YY          ZZ          XY          XZ          YZ
         1         0.2911      0.0300     -0.0106      0.0088     -0.0017     -0.0004
 <0|del|b> * <b|rxdel|0> + <0|del|b> * <b|delr+rdel|0>
 Rotatory Strengths (R) in cgs (10**-40 erg-esu-cm/Gauss)
       state          XX          YY          ZZ    R(velocity)    E-M Angle
         1         1.1177     -0.0154      0.2398      0.4474       73.52
 1/2[<0|r|b>*<b|rxdel|0> + (<0|rxdel|b>*<b|r|0>)*]
 Rotatory Strengths (R) in cgs (10**-40 erg-esu-cm/Gauss)
       state          XX          YY          ZZ     R(length)
         1        -0.0204      1.2357     -0.0011      0.4047
  1/2[<0|del|b>*<b|r|0> + (<0|r|b>*<b|del|0>)*] (Au)
       state          X           Y           Z        Dip. S.   Osc.(frdel)
         1        -0.0000     -0.0478     -0.0000      0.0478      0.0319

 Excitation energies and oscillator strengths:
 
 Excited State   1:      Singlet-A      2.7342 eV  453.46 nm  f=0.0287  <S**2>=0.000
      47 -> 48         0.70441
 This state for optimization and/or second-order correction.
 Total Energy, E(TD-HF/TD-DFT) =  -539.653351999    
 Copying the excited state density for this state as the 1-particle RhoCI density.
 SavETr:  write IOETrn=   770 NScale= 10 NData=  16 NLR=1 NState=    1 LETran=      28.

 **********************************************************************

            Population analysis using the SCF Density.

 **********************************************************************

 Orbital symmetries:
       Occupied  (A) (A) (A) (A) (A) (A) (A) (A) (A) (A) (A) (A)
                 (A) (A) (A) (A) (A) (A) (A) (A) (A) (A) (A) (A)
                 (A) (A) (A) (A) (A) (A) (A) (A) (A) (A) (A) (A)
                 (A) (A) (A) (A) (A) (A) (A) (A) (A) (A) (A)
       Virtual   (A) (A) (A) (A) (A) (A) (A) (A) (A) (A) (A) (A)
                 (A) (A) (A) (A) (A) (A) (A) (A) (A) (A) (A) (A)
                 (A) (A) (A) (A) (A) (A) (A) (A) (A) (A) (A) (A)
                 (A) (A) (A) (A) (A) (A) (A) (A) (A) (A) (A) (A)
                 (A) (A) (A) (A) (A) (A) (A) (A) (A) (A) (A) (A)
                 (A) (A) (A) (A) (A) (A) (A) (A) (A) (A) (A) (A)
                 (A) (A) (A) (A) (A) (A) (A) (A) (A) (A) (A) (A)
                 (A) (A) (A) (A) (A) (A) (A) (A) (A) (A) (A) (A)
                 (A) (A) (A) (A) (A) (A) (A) (A) (A) (A) (A) (A)
                 (A) (A) (A) (A) (A) (A) (A) (A) (A) (A) (A) (A)
                 (A) (A) (A) (A) (A) (A) (A) (A) (A) (A) (A) (A)
                 (A) (A) (A) (A) (A) (A) (A) (A) (A) (A) (A) (A)
                 (A) (A) (A) (A) (A) (A) (A) (A) (A) (A) (A) (A)
                 (A) (A) (A) (A) (A) (A) (A) (A) (A) (A) (A) (A)
                 (A) (A) (A) (A) (A) (A) (A) (A) (A) (A) (A) (A)
                 (A) (A) (A) (A) (A) (A) (A) (A) (A) (A) (A) (A)
                 (A) (A) (A) (A) (A) (A) (A) (A) (A) (A) (A) (A)
                 (A) (A) (A) (A) (A) (A) (A) (A) (A) (A) (A) (A)
                 (A) (A) (A) (A) (A) (A) (A) (A) (A) (A) (A) (A)
                 (A) (A) (A) (A) (A) (A) (A) (A) (A) (A) (A) (A)
                 (A) (A) (A) (A) (A) (A) (A) (A) (A) (A) (A) (A)
                 (A) (A) (A) (A) (A) (A) (A) (A) (A) (A) (A) (A)
                 (A) (A) (A) (A) (A) (A) (A) (A) (A) (A) (A) (A)
                 (A) (A) (A) (A) (A) (A) (A) (A) (A) (A) (A) (A)
                 (A) (A) (A) (A) (A) (A) (A) (A) (A) (A) (A) (A)
                 (A) (A) (A) (A) (A) (A) (A) (A) (A) (A) (A) (A)
                 (A) (A) (A) (A) (A) (A) (A) (A) (A) (A) (A) (A)
                 (A) (A) (A) (A) (A) (A) (A) (A)
 The electronic state is 1-A.
 Alpha  occ. eigenvalues --  -10.77937 -10.73520 -10.73455 -10.72652 -10.72631
 Alpha  occ. eigenvalues --  -10.71604 -10.71519 -10.71251 -10.71137 -10.70919
 Alpha  occ. eigenvalues --  -10.70171 -10.69931 -10.69891 -10.69815  -1.16051
 Alpha  occ. eigenvalues --   -1.12061  -1.06633  -1.05287  -1.01276  -0.99716
 Alpha  occ. eigenvalues --   -0.95612  -0.90631  -0.86525  -0.85614  -0.83916
 Alpha  occ. eigenvalues --   -0.78170  -0.75640  -0.74459  -0.69577  -0.69312
 Alpha  occ. eigenvalues --   -0.68400  -0.68240  -0.67280  -0.64873  -0.64712
 Alpha  occ. eigenvalues --   -0.62349  -0.61923  -0.59484  -0.59373  -0.58774
 Alpha  occ. eigenvalues --   -0.57234  -0.55782  -0.54304  -0.52226  -0.46476
 Alpha  occ. eigenvalues --   -0.45865  -0.44217
 Alpha virt. eigenvalues --   -0.26170  -0.14984  -0.14066  -0.13006  -0.11184
 Alpha virt. eigenvalues --   -0.10146  -0.09203  -0.08047  -0.07928  -0.07489
 Alpha virt. eigenvalues --   -0.07218  -0.07191  -0.05651  -0.05608  -0.05388
 Alpha virt. eigenvalues --   -0.03766  -0.03613  -0.03338  -0.03174  -0.02184
 Alpha virt. eigenvalues --   -0.01326  -0.00962   0.00151   0.00626   0.00645
 Alpha virt. eigenvalues --    0.00982   0.01499   0.01788   0.02061   0.02228
 Alpha virt. eigenvalues --    0.02433   0.02607   0.02705   0.03215   0.03394
 Alpha virt. eigenvalues --    0.04228   0.04493   0.04698   0.04805   0.05332
 Alpha virt. eigenvalues --    0.05949   0.06220   0.06650   0.07044   0.07182
 Alpha virt. eigenvalues --    0.07881   0.08029   0.08358   0.08513   0.08915
 Alpha virt. eigenvalues --    0.09424   0.09533   0.10092   0.10781   0.10956
 Alpha virt. eigenvalues --    0.11123   0.12021   0.12246   0.12759   0.12922
 Alpha virt. eigenvalues --    0.13357   0.13567   0.13918   0.14244   0.15567
 Alpha virt. eigenvalues --    0.16122   0.16295   0.17245   0.17454   0.17723
 Alpha virt. eigenvalues --    0.17899   0.18750   0.19111   0.19579   0.19745
 Alpha virt. eigenvalues --    0.21355   0.21584   0.22199   0.22776   0.23628
 Alpha virt. eigenvalues --    0.23679   0.24272   0.24971   0.26751   0.27265
 Alpha virt. eigenvalues --    0.28574   0.29092   0.29397   0.30930   0.35168
 Alpha virt. eigenvalues --    0.35841   0.37785   0.39100   0.41122   0.41398
 Alpha virt. eigenvalues --    0.41604   0.42029   0.43103   0.43452   0.44217
 Alpha virt. eigenvalues --    0.44515   0.44593   0.45455   0.45954   0.47390
 Alpha virt. eigenvalues --    0.48657   0.48774   0.49107   0.50471   0.51004
 Alpha virt. eigenvalues --    0.51242   0.51578   0.52286   0.52936   0.53594
 Alpha virt. eigenvalues --    0.54039   0.54716   0.55620   0.55704   0.56918
 Alpha virt. eigenvalues --    0.58194   0.58483   0.61361   0.62033   0.62090
 Alpha virt. eigenvalues --    0.63212   0.63415   0.64685   0.64737   0.66585
 Alpha virt. eigenvalues --    0.69706   0.70393   0.70601   0.72110   0.72660
 Alpha virt. eigenvalues --    0.75501   0.75864   0.76061   0.76604   0.76709
 Alpha virt. eigenvalues --    0.77555   0.77708   0.78236   0.80033   0.80239
 Alpha virt. eigenvalues --    0.80802   0.81465   0.82247   0.82765   0.84828
 Alpha virt. eigenvalues --    0.87002   0.87738   0.88453   0.88909   0.90141
 Alpha virt. eigenvalues --    0.90496   0.91453   0.93504   0.94583   0.96053
 Alpha virt. eigenvalues --    0.96366   0.99782   1.01034   1.01753   1.02361
 Alpha virt. eigenvalues --    1.02882   1.03729   1.04490   1.05082   1.08928
 Alpha virt. eigenvalues --    1.18451   1.22853   1.23036   1.24278   1.26957
 Alpha virt. eigenvalues --    1.29402   1.31942   1.34341   1.35748   1.36012
 Alpha virt. eigenvalues --    1.39224   1.39277   1.40373   1.42541   1.42614
 Alpha virt. eigenvalues --    1.43113   1.44445   1.44523   1.45829   1.46296
 Alpha virt. eigenvalues --    1.47416   1.48133   1.50542   1.52917   1.55474
 Alpha virt. eigenvalues --    1.55848   1.55897   1.56222   1.57072   1.61097
 Alpha virt. eigenvalues --    1.63609   1.63805   1.64364   1.65663   1.67005
 Alpha virt. eigenvalues --    1.68474   1.68891   1.69366   1.74140   1.75516
 Alpha virt. eigenvalues --    1.76548   1.77745   1.78988   1.79409   1.79935
 Alpha virt. eigenvalues --    1.82338   1.82648   1.82984   1.83551   1.83957
 Alpha virt. eigenvalues --    1.84099   1.85736   1.85967   1.87786   1.90825
 Alpha virt. eigenvalues --    1.91911   1.93904   1.94821   1.97011   1.98279
 Alpha virt. eigenvalues --    1.98458   2.01224   2.04827   2.05917   2.10269
 Alpha virt. eigenvalues --    2.11203   2.13831   2.14617   2.17988   2.19657
 Alpha virt. eigenvalues --    2.21296   2.26628   2.29434   2.33090   2.34351
 Alpha virt. eigenvalues --    2.35536   2.38678   2.39513   2.40782   2.42281
 Alpha virt. eigenvalues --    2.44396   2.44815   2.49439   2.51504   2.52651
 Alpha virt. eigenvalues --    2.54923   2.57477   2.57534   2.58194   2.59429
 Alpha virt. eigenvalues --    2.59813   2.61188   2.62332   2.63010   2.63391
 Alpha virt. eigenvalues --    2.64136   2.64703   2.64921   2.65155   2.66949
 Alpha virt. eigenvalues --    2.68486   2.69633   2.70978   2.73177   2.74314
 Alpha virt. eigenvalues --    2.76058   2.77186   2.79470   2.82524   2.83307
 Alpha virt. eigenvalues --    2.83776   2.85639   2.91404   2.96111   2.98853
 Alpha virt. eigenvalues --    2.99360   3.03460   3.08974   3.10872   3.11120
 Alpha virt. eigenvalues --    3.19032   3.21477   3.25115   3.26932   3.29099
 Alpha virt. eigenvalues --    3.30930   3.31572   3.42424   3.44829   3.46243
 Alpha virt. eigenvalues --    3.47823   3.48062   3.54867   3.57164   3.66400
 Alpha virt. eigenvalues --    3.67372   3.92933   3.94133   3.95660   3.96862
 Alpha virt. eigenvalues --    4.05370   4.07768   4.08979   4.12643   4.33264
 Alpha virt. eigenvalues --    4.58510   4.68394   4.70268  23.46050  23.60648
 Alpha virt. eigenvalues --   23.81060  23.82201  23.85900  23.88302  23.88432
 Alpha virt. eigenvalues --   23.90159  23.95655  23.97097  23.97887  23.98540
 Alpha virt. eigenvalues --   24.07657  24.09421
          Condensed to atoms (all electrons):
               1          2          3          4          5          6
     1  C    8.075320   0.484538  -0.518196   1.510226   0.034013  -0.082763
     2  C    0.484538   7.093247   0.311226  -1.019249  -0.020281  -0.015342
     3  C   -0.518196   0.311226   6.545247   0.853991  -0.120513   0.015528
     4  C    1.510226  -1.019249   0.853991  10.351779  -0.338432  -0.112864
     5  C    0.034013  -0.020281  -0.120513  -0.338432  10.503973   0.917062
     6  C   -0.082763  -0.015342   0.015528  -0.112864   0.917062   6.561076
     7  C   -0.038685   0.004507  -0.014585  -0.027586  -1.024566   0.298597
     8  C    0.332901  -0.032172  -0.085127   0.012897   1.482038  -0.504695
     9  C   -1.282803  -0.670143   0.226315  -0.340237  -0.109264   0.275477
    10  C   -0.996172   0.212240  -0.344425  -2.288502  -2.524922  -0.402549
    11  C    0.376928  -1.086484   1.048195   0.003910  -1.376962  -0.169915
    12  C   -1.498036   1.260979  -1.385412  -1.278987  -0.402934  -0.206771
    13  C    0.158469  -0.234414  -0.145816  -1.336281   0.076994   0.984385
    14  C   -1.018752  -0.153621  -0.253804  -0.336163  -1.424738  -1.426876
    15  H    0.368104  -0.115728   0.001037   0.025948   0.005247   0.001307
    16  H   -0.024551   0.383683  -0.019422   0.010550  -0.001416  -0.000351
    17  H   -0.016300  -0.022178   0.371537  -0.060479   0.000480   0.000422
    18  H    0.041322   0.009310  -0.084128   0.435062   0.006645  -0.004977
    19  H   -0.039856  -0.009209   0.048701  -0.059769  -0.056045   0.047010
    20  H    0.007237   0.002130  -0.005263   0.006528   0.448232  -0.092028
    21  H   -0.001158  -0.000392   0.000393   0.000394  -0.063431   0.376114
    22  H    0.000788   0.000397  -0.000345  -0.001474   0.011785  -0.018754
    23  H    0.005313  -0.002795   0.000995   0.005761   0.024393   0.002418
    24  H    0.022353   0.011367   0.002141  -0.008380  -0.008358  -0.001027
    25  H    0.024784   0.012312  -0.004527  -0.011890  -0.011716  -0.002536
               7          8          9         10         11         12
     1  C   -0.038685   0.332901  -1.282803  -0.996172   0.376928  -1.498036
     2  C    0.004507  -0.032172  -0.670143   0.212240  -1.086484   1.260979
     3  C   -0.014585  -0.085127   0.226315  -0.344425   1.048195  -1.385412
     4  C   -0.027586   0.012897  -0.340237  -2.288502   0.003910  -1.278987
     5  C   -1.024566   1.482038  -0.109264  -2.524922  -1.376962  -0.402934
     6  C    0.298597  -0.504695   0.275477  -0.402549  -0.169915  -0.206771
     7  C    7.034468   0.495386  -0.732665   0.243570  -0.230584  -0.159927
     8  C    0.495386   8.139010  -1.281690  -0.978414   0.181650  -1.027538
     9  C   -0.732665  -1.281690   9.195620   0.267882   1.595959  -1.489334
    10  C    0.243570  -0.978414   0.267882   8.841869  -0.446177   2.142660
    11  C   -0.230584   0.181650   1.595959  -0.446177  14.226772  -4.223858
    12  C   -0.159927  -1.027538  -1.489334   2.142660  -4.223858  15.441752
    13  C   -1.033105   0.382812   1.569362  -0.516744   1.568506  -4.889593
    14  C    1.308318  -1.577711  -1.762046   2.219838  -4.972085   3.280905
    15  H   -0.002821   0.004856   0.089275  -0.009591  -0.010619  -0.032378
    16  H    0.000383   0.000819   0.004221  -0.008394   0.030740  -0.033948
    17  H   -0.000413  -0.001237  -0.005327   0.017883  -0.025420   0.083347
    18  H    0.001899   0.007094  -0.024355   0.022307  -0.014760  -0.040166
    19  H   -0.007603  -0.040018   0.067135   0.417173   0.070275  -0.064543
    20  H    0.009308   0.044079  -0.025384   0.019488  -0.010110  -0.010011
    21  H   -0.025114  -0.016510  -0.004313   0.018066  -0.005881   0.004832
    22  H    0.379824  -0.024471   0.004660  -0.008572   0.002794  -0.008885
    23  H   -0.107694   0.358850   0.089459  -0.009059   0.002075   0.007074
    24  H    0.007120   0.020186   0.350001   0.006646   0.012200  -0.039597
    25  H    0.016215   0.028487   0.363392   0.006381   0.012496  -0.062968
              13         14         15         16         17         18
     1  C    0.158469  -1.018752   0.368104  -0.024551  -0.016300   0.041322
     2  C   -0.234414  -0.153621  -0.115728   0.383683  -0.022178   0.009310
     3  C   -0.145816  -0.253804   0.001037  -0.019422   0.371537  -0.084128
     4  C   -1.336281  -0.336163   0.025948   0.010550  -0.060479   0.435062
     5  C    0.076994  -1.424738   0.005247  -0.001416   0.000480   0.006645
     6  C    0.984385  -1.426876   0.001307  -0.000351   0.000422  -0.004977
     7  C   -1.033105   1.308318  -0.002821   0.000383  -0.000413   0.001899
     8  C    0.382812  -1.577711   0.004856   0.000819  -0.001237   0.007094
     9  C    1.569362  -1.762046   0.089275   0.004221  -0.005327  -0.024355
    10  C   -0.516744   2.219838  -0.009591  -0.008394   0.017883   0.022307
    11  C    1.568506  -4.972085  -0.010619   0.030740  -0.025420  -0.014760
    12  C   -4.889593   3.280905  -0.032378  -0.033948   0.083347  -0.040166
    13  C   14.386038  -4.471792   0.003607   0.003595  -0.006191  -0.010166
    14  C   -4.471792  16.094659   0.006150  -0.008730   0.004472  -0.007265
    15  H    0.003607   0.006150   0.442011  -0.009975   0.001543   0.000140
    16  H    0.003595  -0.008730  -0.009975   0.421665  -0.006958   0.002004
    17  H   -0.006191   0.004472   0.001543  -0.006958   0.423624  -0.010294
    18  H   -0.010166  -0.007265   0.000140   0.002004  -0.010294   0.452420
    19  H    0.070814  -0.069140   0.000442  -0.000552   0.001410  -0.006432
    20  H   -0.017370  -0.033850  -0.000137   0.000022  -0.000157   0.001422
    21  H   -0.024167   0.082538   0.000017  -0.000007   0.000011  -0.000147
    22  H    0.031839  -0.034103  -0.000141   0.000009  -0.000007   0.000017
    23  H   -0.018216  -0.026725   0.000756  -0.000133   0.000011  -0.000097
    24  H    0.007082  -0.048105  -0.001154   0.000330   0.000035   0.000080
    25  H    0.022295  -0.056006  -0.001207   0.000939  -0.000278   0.000177
              19         20         21         22         23         24
     1  C   -0.039856   0.007237  -0.001158   0.000788   0.005313   0.022353
     2  C   -0.009209   0.002130  -0.000392   0.000397  -0.002795   0.011367
     3  C    0.048701  -0.005263   0.000393  -0.000345   0.000995   0.002141
     4  C   -0.059769   0.006528   0.000394  -0.001474   0.005761  -0.008380
     5  C   -0.056045   0.448232  -0.063431   0.011785   0.024393  -0.008358
     6  C    0.047010  -0.092028   0.376114  -0.018754   0.002418  -0.001027
     7  C   -0.007603   0.009308  -0.025114   0.379824  -0.107694   0.007120
     8  C   -0.040018   0.044079  -0.016510  -0.024471   0.358850   0.020186
     9  C    0.067135  -0.025384  -0.004313   0.004660   0.089459   0.350001
    10  C    0.417173   0.019488   0.018066  -0.008572  -0.009059   0.006646
    11  C    0.070275  -0.010110  -0.005881   0.002794   0.002075   0.012200
    12  C   -0.064543  -0.010011   0.004832  -0.008885   0.007074  -0.039597
    13  C    0.070814  -0.017370  -0.024167   0.031839  -0.018216   0.007082
    14  C   -0.069140  -0.033850   0.082538  -0.034103  -0.026725  -0.048105
    15  H    0.000442  -0.000137   0.000017  -0.000141   0.000756  -0.001154
    16  H   -0.000552   0.000022  -0.000007   0.000009  -0.000133   0.000330
    17  H    0.001410  -0.000157   0.000011  -0.000007   0.000011   0.000035
    18  H   -0.006432   0.001422  -0.000147   0.000017  -0.000097   0.000080
    19  H    0.438161  -0.006583   0.001314  -0.000506   0.000341   0.000637
    20  H   -0.006583   0.459378  -0.011345   0.002085   0.000121   0.000029
    21  H    0.001314  -0.011345   0.424058  -0.006916   0.001563  -0.000087
    22  H   -0.000506   0.002085  -0.006916   0.420578  -0.009819   0.000383
    23  H    0.000341   0.000121   0.001563  -0.009819   0.440434   0.000050
    24  H    0.000637   0.000029  -0.000087   0.000383   0.000050   0.494413
    25  H    0.000436   0.000297  -0.000192   0.000904  -0.002205  -0.085074
              25
     1  C    0.024784
     2  C    0.012312
     3  C   -0.004527
     4  C   -0.011890
     5  C   -0.011716
     6  C   -0.002536
     7  C    0.016215
     8  C    0.028487
     9  C    0.363392
    10  C    0.006381
    11  C    0.012496
    12  C   -0.062968
    13  C    0.022295
    14  C   -0.056006
    15  H   -0.001207
    16  H    0.000939
    17  H   -0.000278
    18  H    0.000177
    19  H    0.000436
    20  H    0.000297
    21  H   -0.000192
    22  H    0.000904
    23  H   -0.002205
    24  H   -0.085074
    25  H    0.494355
 Mulliken charges:
               1
     1  C    0.074974
     2  C   -0.403928
     3  C   -0.443742
     4  C    0.003246
     5  C   -0.027282
     6  C   -0.437946
     7  C   -0.394249
     8  C    0.078517
     9  C   -0.371193
    10  C    0.097517
    11  C   -0.559645
    12  C    0.633338
    13  C   -0.561943
    14  C    0.684633
    15  H    0.233310
    16  H    0.255478
    17  H    0.250464
    18  H    0.222887
    19  H    0.196408
    20  H    0.211881
    21  H    0.250360
    22  H    0.257931
    23  H    0.237128
    24  H    0.256727
    25  H    0.255129
 Sum of Mulliken charges =   1.00000
 Mulliken charges with hydrogens summed into heavy atoms:
               1
     1  C    0.308284
     2  C   -0.148450
     3  C   -0.193278
     4  C    0.226134
     5  C    0.184599
     6  C   -0.187586
     7  C   -0.136318
     8  C    0.315646
     9  C    0.140663
    10  C    0.293925
    11  C   -0.559645
    12  C    0.633338
    13  C   -0.561943
    14  C    0.684633
 Electronic spatial extent (au):  <R**2>=           2865.9780
 Charge=              1.0000 electrons
 Dipole moment (field-independent basis, Debye):
    X=             -0.0102    Y=              0.1554    Z=             -0.0035  Tot=              0.1558
 Quadrupole moment (field-independent basis, Debye-Ang):
   XX=            -31.8744   YY=            -55.3567   ZZ=            -84.4661
   XY=              0.0902   XZ=              0.1329   YZ=              0.1804
 Traceless Quadrupole moment (field-independent basis, Debye-Ang):
   XX=             25.3580   YY=              1.8757   ZZ=            -27.2337
   XY=              0.0902   XZ=              0.1329   YZ=              0.1804
 Octapole moment (field-independent basis, Debye-Ang**2):
  XXX=             -0.3315  YYY=              5.1026  ZZZ=              0.0224  XYY=             -0.0054
  XXY=             -6.4819  XXZ=              0.0196  XZZ=              0.0107  YZZ=             -3.0795
  YYZ=              0.1425  XYZ=              0.0876
 Hexadecapole moment (field-independent basis, Debye-Ang**3):
 XXXX=          -2142.4321 YYYY=           -613.0744 ZZZZ=           -100.3380 XXXY=             -1.0717
 XXXZ=              3.0796 YYYX=              1.7084 YYYZ=              0.8180 ZZZX=              0.1548
 ZZZY=              0.0942 XXYY=           -507.3249 XXZZ=           -592.9505 YYZZ=           -148.0150
 XXYZ=              3.7460 YYXZ=              0.3466 ZZXY=             -0.4591
 N-N= 7.783182189632D+02 E-N=-2.792783205239D+03  KE= 5.372302589662D+02
 Unable to Open any file for archive entry.
 1\1\GINC-GADI-CPU-CLX-0572\SP\RM062X TD-FC\6-311++G(d,p)\C14H11(1+)\TS
 1578\27-Jul-2022\0\\#n M062X/6-311++G(d,p) TD(NStates=1) EmpiricalDisp
 ersion=GD3 SP\\SP_-1\\1,1\C,0,2.4927,1.3771,-0.017\C,0,3.7015,0.6987,0
 .005\C,0,3.6839,-0.6931,0.016\C,0,2.4632,-1.4249,0.028\C,0,-2.4632,-1.
 4129,0.012\C,0,-3.6839,-0.6991,-0.016\C,0,-3.7015,0.6987,-0.011\C,0,-2
 .4927,1.3931,-0.017\C,0,0.,1.4701,-0.033\C,0,0.,-1.4495,0.027\C,0,1.26
 21,0.6727,-0.019\C,0,1.2375,-0.7341,0.014\C,0,-1.2621,0.6807,0.003\C,0
 ,-1.2375,-0.7281,0.012\H,0,2.4881,2.4433,-0.018\H,0,4.6368,1.2294,0.01
 9\H,0,4.6093,-1.2687,-0.012\H,0,2.4675,-2.5084,0.029\H,0,0.,-2.5266,0.
 028\H,0,-2.4675,-2.4724,0.013\H,0,-4.6093,-1.2567,-0.016\H,0,-4.6368,1
 .2474,0.005\H,0,-2.4881,2.4713,-0.018\H,0,0.002,2.1985,-0.8896\H,0,-0.
 002,2.1985,0.8296\\Version=ES64L-G16RevC.01\State=1-A\HF=-539.7538316\
 RMSD=6.644e-09\PG=C01 [X(C14H11)]\\@
 The archive entry for this job was punched.


 ALL THINGS ARE POSSIBLE EXCEPT SKIING THROUGH A REVOLVING DOOR.
 Job cpu time:       0 days  1 hours 12 minutes 20.7 seconds.
 Elapsed time:       0 days  0 hours  2 minutes 16.4 seconds.
 File lengths (MBytes):  RWF=    460 Int=      0 D2E=      0 Chk=     15 Scr=      1
 Normal termination of Gaussian 16 at Wed Jul 27 10:41:11 2022.
