 Entering Gaussian System, Link 0=g16
 Initial command:
 /apps/gaussian/g16c01/g16/l1.exe "/jobfs/52803152.gadi-pbs/Gau-2796268.inp" -scrdir="/jobfs/52803152.gadi-pbs/"
 Entering Link 1 = /apps/gaussian/g16c01/g16/l1.exe PID=   2796269.
  
 Copyright (c) 1988-2019, Gaussian, Inc.  All Rights Reserved.
  
 This is part of the Gaussian(R) 16 program.  It is based on
 the Gaussian(R) 09 system (copyright 2009, Gaussian, Inc.),
 the Gaussian(R) 03 system (copyright 2003, Gaussian, Inc.),
 the Gaussian(R) 98 system (copyright 1998, Gaussian, Inc.),
 the Gaussian(R) 94 system (copyright 1995, Gaussian, Inc.),
 the Gaussian 92(TM) system (copyright 1992, Gaussian, Inc.),
 the Gaussian 90(TM) system (copyright 1990, Gaussian, Inc.),
 the Gaussian 88(TM) system (copyright 1988, Gaussian, Inc.),
 the Gaussian 86(TM) system (copyright 1986, Carnegie Mellon
 University), and the Gaussian 82(TM) system (copyright 1983,
 Carnegie Mellon University). Gaussian is a federally registered
 trademark of Gaussian, Inc.
  
 This software contains proprietary and confidential information,
 including trade secrets, belonging to Gaussian, Inc.
  
 This software is provided under written license and may be
 used, copied, transmitted, or stored only in accord with that
 written license.
  
 The following legend is applicable only to US Government
 contracts under FAR:
  
                    RESTRICTED RIGHTS LEGEND
  
 Use, reproduction and disclosure by the US Government is
 subject to restrictions as set forth in subparagraphs (a)
 and (c) of the Commercial Computer Software - Restricted
 Rights clause in FAR 52.227-19.
  
 Gaussian, Inc.
 340 Quinnipiac St., Bldg. 40, Wallingford CT 06492
  
  
 ---------------------------------------------------------------
 Warning -- This program may not be used in any manner that
 competes with the business of Gaussian, Inc. or will provide
 assistance to any competitor of Gaussian, Inc.  The licensee
 of this program is prohibited from giving any competitor of
 Gaussian, Inc. access to this program.  By using this program,
 the user acknowledges that Gaussian, Inc. is engaged in the
 business of creating and licensing software in the field of
 computational chemistry and represents and warrants to the
 licensee that it is not a competitor of Gaussian, Inc. and that
 it will not use this program in any manner prohibited above.
 ---------------------------------------------------------------
  

 Cite this work as:
 Gaussian 16, Revision C.01,
 M. J. Frisch, G. W. Trucks, H. B. Schlegel, G. E. Scuseria, 
 M. A. Robb, J. R. Cheeseman, G. Scalmani, V. Barone, 
 G. A. Petersson, H. Nakatsuji, X. Li, M. Caricato, A. V. Marenich, 
 J. Bloino, B. G. Janesko, R. Gomperts, B. Mennucci, H. P. Hratchian, 
 J. V. Ortiz, A. F. Izmaylov, J. L. Sonnenberg, D. Williams-Young, 
 F. Ding, F. Lipparini, F. Egidi, J. Goings, B. Peng, A. Petrone, 
 T. Henderson, D. Ranasinghe, V. G. Zakrzewski, J. Gao, N. Rega, 
 G. Zheng, W. Liang, M. Hada, M. Ehara, K. Toyota, R. Fukuda, 
 J. Hasegawa, M. Ishida, T. Nakajima, Y. Honda, O. Kitao, H. Nakai, 
 T. Vreven, K. Throssell, J. A. Montgomery, Jr., J. E. Peralta, 
 F. Ogliaro, M. J. Bearpark, J. J. Heyd, E. N. Brothers, K. N. Kudin, 
 V. N. Staroverov, T. A. Keith, R. Kobayashi, J. Normand, 
 K. Raghavachari, A. P. Rendell, J. C. Burant, S. S. Iyengar, 
 J. Tomasi, M. Cossi, J. M. Millam, M. Klene, C. Adamo, R. Cammi, 
 J. W. Ochterski, R. L. Martin, K. Morokuma, O. Farkas, 
 J. B. Foresman, and D. J. Fox, Gaussian, Inc., Wallingford CT, 2019.
 
 ******************************************
 Gaussian 16:  ES64L-G16RevC.01  3-Jul-2019
                27-Jul-2022 
 ******************************************
 %NProcShared=32
 Will use up to   32 processors via shared memory.
 %mem = 128GB
 ---------------------------------------------------------------
 #n M062X/6-311++G(d,p) TD(NStates=1) EmpiricalDispersion=GD3 SP
 ---------------------------------------------------------------
 1/38=1,172=1/1;
 2/12=2,17=6,18=5,40=1/2;
 3/5=4,6=6,7=1111,11=9,25=1,30=1,74=-55,124=31/1,2,3,8;
 4//1;
 5/5=2,38=5/2;
 8/6=1,10=2,108=1/1;
 9/41=1,42=1,70=2/14;
 6/7=2,8=2,9=2,10=2/1;
 99/5=1,9=1/99;
 -----
 SP_-3
 -----
 Symbolic Z-matrix:
 Charge =  1 Multiplicity = 1
 C                     2.4927    1.3291   -0.051 
 C                     3.7015    0.6627   -0.017 
 C                     3.6839   -0.7051   -0.016 
 C                     2.4632   -1.3969    0.052 
 C                    -2.4632   -1.3609    0.068 
 C                    -3.6839   -0.7231    0.016 
 C                    -3.7015    0.6627   -0.001 
 C                    -2.4927    1.3771   -0.051 
 C                     0.        1.4541   -0.099 
 C                     0.       -1.3915    0.081 
 C                     1.2621    0.6827   -0.013 
 C                     1.2375   -0.7221    0.038 
 C                    -1.2621    0.7067   -0.035 
 C                    -1.2375   -0.7041    0.04 
 H                     2.4881    2.4053   -0.054 
 H                     4.6368    1.1754    0.029 
 H                     4.6093   -1.2827   -0.044 
 H                     2.4675   -2.5264    0.055 
 H                     0.       -2.4766    0.084 
 H                    -2.4675   -2.4184    0.071 
 H                    -4.6093   -1.2467   -0.04 
 H                    -4.6368    1.2294    0.043 
 H                    -2.4881    2.4893   -0.054 
 H                     0.006     2.1105   -0.9496 
 H                    -0.006     2.1105    0.7696 
 
                          Input orientation:                          
 ---------------------------------------------------------------------
 Center     Atomic      Atomic             Coordinates (Angstroms)
 Number     Number       Type             X           Y           Z
 ---------------------------------------------------------------------
      1          6           0        2.492700    1.329100   -0.051000
      2          6           0        3.701500    0.662700   -0.017000
      3          6           0        3.683900   -0.705100   -0.016000
      4          6           0        2.463200   -1.396900    0.052000
      5          6           0       -2.463200   -1.360900    0.068000
      6          6           0       -3.683900   -0.723100    0.016000
      7          6           0       -3.701500    0.662700   -0.001000
      8          6           0       -2.492700    1.377100   -0.051000
      9          6           0        0.000000    1.454100   -0.099000
     10          6           0        0.000000   -1.391500    0.081000
     11          6           0        1.262100    0.682700   -0.013000
     12          6           0        1.237500   -0.722100    0.038000
     13          6           0       -1.262100    0.706700   -0.035000
     14          6           0       -1.237500   -0.704100    0.040000
     15          1           0        2.488100    2.405300   -0.054000
     16          1           0        4.636800    1.175400    0.029000
     17          1           0        4.609300   -1.282700   -0.044000
     18          1           0        2.467500   -2.526400    0.055000
     19          1           0        0.000000   -2.476600    0.084000
     20          1           0       -2.467500   -2.418400    0.071000
     21          1           0       -4.609300   -1.246700   -0.040000
     22          1           0       -4.636800    1.229400    0.043000
     23          1           0       -2.488100    2.489300   -0.054000
     24          1           0        0.006000    2.110500   -0.949600
     25          1           0       -0.006000    2.110500    0.769600
 ---------------------------------------------------------------------
                    Distance matrix (angstroms):
                    1          2          3          4          5
     1  C    0.000000
     2  C    1.380740   0.000000
     3  C    2.357573   1.367914   0.000000
     4  C    2.728105   2.404184   1.404749   0.000000
     5  C    5.640142   6.488891   6.182554   4.926558   0.000000
     6  C    6.508948   7.514364   7.367891   6.184023   1.378260
     7  C    6.230145   7.403017   7.511008   6.499868   2.373416
     8  C    4.985631   6.235354   6.518218   5.680372   2.740744
     9  C    2.496294   3.786045   4.270849   3.770724   3.744258
    10  C    3.692241   4.234435   3.748556   2.463377   2.463424
    11  C    1.390559   2.439485   2.791257   2.402416   4.249791
    12  C    2.406423   2.827011   2.447055   1.399247   3.755549
    13  C    3.806069   4.963828   5.143584   4.279084   2.393370
    14  C    4.249303   5.124950   4.921719   3.765009   1.390867
    15  H    1.076214   2.123762   3.332562   3.803759   6.222099
    16  H    2.151090   1.067597   2.108631   3.367758   7.539518
    17  H    3.361777   2.146954   1.091225   2.151279   7.073819
    18  H    3.857039   3.420278   2.191302   1.129512   5.066593
    19  H    4.551388   4.854535   4.088928   2.689634   2.704144
    20  H    6.217895   6.896193   6.386132   5.035437   1.057513
    21  H    7.554685   8.527352   8.310901   7.074693   2.151848
    22  H    7.130817   8.357751   8.542823   7.570174   3.381540
    23  H    5.114141   6.453602   6.949764   6.295169   3.852213
    24  H    2.757126   4.077081   4.725057   4.398055   4.379849
    25  H    2.743624   4.057144   4.707455   4.348994   4.310533
                    6          7          8          9         10
     6  C    0.000000
     7  C    1.386016   0.000000
     8  C    2.415427   1.405014   0.000000
     9  C    4.280718   3.786426   2.494351   0.000000
    10  C    3.744610   4.234095   3.727750   2.851287   0.000000
    11  C    5.141987   4.963655   3.818659   1.481671   2.429823
    12  C    4.921449   5.129611   4.281233   2.507194   1.407605
    13  C    2.812836   2.440034   1.401452   1.468196   2.451284
    14  C    2.446591   2.817999   2.432119   2.491697   1.416194
    15  H    6.919926   6.430444   5.085821   2.664104   4.541427
    16  H    8.534549   8.354101   7.132801   4.646931   5.300150
    17  H    8.312275   8.535562   7.583732   5.360853   4.612278
    18  H    6.410393   6.944786   6.312855   4.685793   2.716106
    19  H    4.080503   4.854228   4.591599   3.934958   1.085104
    20  H    2.087270   3.319807   3.797544   4.594966   2.672673
    21  H    1.064734   2.114576   3.371119   5.342607   4.613161
    22  H    2.172787   1.094473   2.151236   4.644413   5.326394
    23  H    3.428462   2.193540   1.112214   2.695238   4.611884
    24  H    4.751530   4.091641   2.754788   1.074438   3.650504
    25  H    4.703632   4.043101   2.719363   1.088744   3.569063
                   11         12         13         14         15
    11  C    0.000000
    12  C    1.405941   0.000000
    13  C    2.524410   2.880069   0.000000
    14  C    2.859025   2.475066   1.413006   0.000000
    15  H    2.114736   3.369435   4.116990   4.853586   0.000000
    16  H    3.410736   3.893049   5.917837   6.167661   2.477187
    17  H    3.881689   3.419069   6.199285   5.875960   4.254519
    18  H    3.428693   2.183732   4.936694   4.128926   4.932947
    19  H    3.403451   2.147508   3.426435   2.162198   5.481116
    20  H    4.851164   4.074991   3.351190   2.110139   6.916768
    21  H    6.180344   5.870806   3.875506   3.416116   7.981879
    22  H    5.924444   6.189974   3.415831   3.910712   7.221935
    23  H    4.162870   4.919517   2.163585   3.430837   4.976909
    24  H    2.119816   3.242772   2.101244   3.232271   2.655151
    25  H    2.063772   3.178860   2.048371   3.157670   2.643059
                   16         17         18         19         20
    16  H    0.000000
    17  H    2.459337   0.000000
    18  H    4.290671   2.478689   0.000000
    19  H    5.902545   4.763132   2.468173   0.000000
    20  H    7.961673   7.168273   4.936208   2.468221   0.000000
    21  H    9.558331   9.218671   7.192201   4.772177   2.443872
    22  H    9.273768   9.581679   8.035998   5.935995   4.244183
    23  H    7.245510   8.037485   7.051744   5.556064   4.909335
    24  H    4.824560   5.790016   5.345002   4.702111   5.260301
    25  H    4.793589   5.785909   5.303744   4.638057   5.201727
                   21         22         23         24         25
    21  H    0.000000
    22  H    2.477643   0.000000
    23  H    4.296205   2.492723   0.000000
    24  H    5.779200   4.828787   2.676962   0.000000
    25  H    5.754704   4.769549   2.642466   1.719242   0.000000
 Stoichiometry    C14H11(1+)
 Framework group  C1[X(C14H11)]
 Deg. of freedom    69
 Full point group                 C1      NOp   1
 Largest Abelian subgroup         C1      NOp   1
 Largest concise Abelian subgroup C1      NOp   1
                         Standard orientation:                         
 ---------------------------------------------------------------------
 Center     Atomic      Atomic             Coordinates (Angstroms)
 Number     Number       Type             X           Y           Z
 ---------------------------------------------------------------------
      1          6           0        2.487189   -1.332016   -0.002555
      2          6           0        3.698726   -0.669848   -0.015005
      3          6           0        3.686910    0.697150    0.033635
      4          6           0        2.469011    1.396025   -0.006570
      5          6           0       -2.457519    1.381091   -0.013114
      6          6           0       -3.680798    0.746901    0.018387
      7          6           0       -3.704225   -0.638519   -0.014839
      8          6           0       -2.498359   -1.359277    0.006584
      9          6           0       -0.005915   -1.448320    0.046320
     10          6           0        0.005757    1.401912   -0.030371
     11          6           0        1.259260   -0.679557   -0.014404
     12          6           0        1.240499    0.726258   -0.014375
     13          6           0       -1.264969   -0.693855    0.012219
     14          6           0       -1.234554    0.718623   -0.011625
     15          1           0        2.478043   -2.407588   -0.038573
     16          1           0        4.631753   -1.184422   -0.081607
     17          1           0        4.614800    1.269505    0.080542
     18          1           0        2.478083    2.524863    0.031382
     19          1           0        0.010341    2.486397    0.005979
     20          1           0       -2.457352    2.438013    0.022245
     21          1           0       -4.603859    1.271964    0.095356
     22          1           0       -4.642001   -1.199360   -0.077320
     23          1           0       -2.498457   -2.470863   -0.030760
     24          1           0       -0.000964   -2.135160    0.872543
     25          1           0       -0.016454   -2.072752   -0.845496
 ---------------------------------------------------------------------
 Rotational constants (GHZ):           2.1745584           0.4445724           0.3699697
 Standard basis: 6-311++G(d,p) (5D, 7F)
 There are   399 symmetry adapted cartesian basis functions of A   symmetry.
 There are   385 symmetry adapted basis functions of A   symmetry.
   385 basis functions,   603 primitive gaussians,   399 cartesian basis functions
    47 alpha electrons       47 beta electrons
       nuclear repulsion energy       783.7439218607 Hartrees.
 NAtoms=   25 NActive=   25 NUniq=   25 SFac= 1.00D+00 NAtFMM=   60 NAOKFM=F Big=F
 Integral buffers will be    131072 words long.
 Regular integral format.
 Two-electron integral symmetry is turned on.
 Nuclear repulsion after empirical dispersion term =      783.7429466626 Hartrees.
 One-electron integrals computed using PRISM.
 NBasis=   385 RedAO= T EigKep=  1.37D-06  NBF=   385
 NBsUse=   379 1.00D-06 EigRej=  7.92D-07 NBFU=   379
 ExpMin= 3.60D-02 ExpMax= 4.56D+03 ExpMxC= 6.82D+02 IAcc=3 IRadAn=         5 AccDes= 0.00D+00
 Harris functional with IExCor= 1009 and IRadAn=       5 diagonalized for initial guess.
 HarFok:  IExCor= 1009 AccDes= 0.00D+00 IRadAn=         5 IDoV= 1 UseB2=F ITyADJ=14
 ICtDFT=  3500011 ScaDFX=  1.000000  1.000000  1.000000  1.000000
 FoFCou: FMM=F IPFlag=           0 FMFlag=      100000 FMFlg1=           0
         NFxFlg=           0 DoJE=T BraDBF=F KetDBF=T FulRan=T
         wScrn=  0.000000 ICntrl=       500 IOpCl=  0 I1Cent=   200000004 NGrid=           0
         NMat0=    1 NMatS0=      1 NMatT0=    0 NMatD0=    1 NMtDS0=    0 NMtDT0=    0
 Petite list used in FoFCou.
 Requested convergence on RMS density matrix=1.00D-08 within 128 cycles.
 Requested convergence on MAX density matrix=1.00D-06.
 Requested convergence on             energy=1.00D-06.
 No special actions if energy rises.
 SCF Done:  E(RM062X) =  -539.753208915     A.U. after   15 cycles
            NFock= 15  Conv=0.62D-08     -V/T= 2.0037
 DoSCS=F DFT=T ScalE2(SS,OS)=  1.000000  1.000000
 ExpMin= 3.60D-02 ExpMax= 4.56D+03 ExpMxC= 6.82D+02 IAcc=3 IRadAn=         5 AccDes= 0.00D+00
 HarFok:  IExCor=  205 AccDes= 0.00D+00 IRadAn=         5 IDoV=-2 UseB2=F ITyADJ=14
 ICtDFT= 12500011 ScaDFX=  1.000000  1.000000  1.000000  1.000000
 Range of M.O.s used for correlation:    15   379
 NBasis=   385 NAE=    47 NBE=    47 NFC=    14 NFV=     0
 NROrb=    365 NOA=    33 NOB=    33 NVA=   332 NVB=   332

 **** Warning!!: The largest alpha MO coefficient is  0.13563365D+03

 Orbital symmetries:
       Occupied  (A) (A) (A) (A) (A) (A) (A) (A) (A) (A) (A) (A)
                 (A) (A) (A) (A) (A) (A) (A) (A) (A) (A) (A) (A)
                 (A) (A) (A) (A) (A) (A) (A) (A) (A) (A) (A) (A)
                 (A) (A) (A) (A) (A) (A) (A) (A) (A) (A) (A)
       Virtual   (A) (A) (A) (A) (A) (A) (A) (A) (A) (A) (A) (A)
                 (A) (A) (A) (A) (A) (A) (A) (A) (A) (A) (A) (A)
                 (A) (A) (A) (A) (A) (A) (A) (A) (A) (A) (A) (A)
                 (A) (A) (A) (A) (A) (A) (A) (A) (A) (A) (A) (A)
                 (A) (A) (A) (A) (A) (A) (A) (A) (A) (A) (A) (A)
                 (A) (A) (A) (A) (A) (A) (A) (A) (A) (A) (A) (A)
                 (A) (A) (A) (A) (A) (A) (A) (A) (A) (A) (A) (A)
                 (A) (A) (A) (A) (A) (A) (A) (A) (A) (A) (A) (A)
                 (A) (A) (A) (A) (A) (A) (A) (A) (A) (A) (A) (A)
                 (A) (A) (A) (A) (A) (A) (A) (A) (A) (A) (A) (A)
                 (A) (A) (A) (A) (A) (A) (A) (A) (A) (A) (A) (A)
                 (A) (A) (A) (A) (A) (A) (A) (A) (A) (A) (A) (A)
                 (A) (A) (A) (A) (A) (A) (A) (A) (A) (A) (A) (A)
                 (A) (A) (A) (A) (A) (A) (A) (A) (A) (A) (A) (A)
                 (A) (A) (A) (A) (A) (A) (A) (A) (A) (A) (A) (A)
                 (A) (A) (A) (A) (A) (A) (A) (A) (A) (A) (A) (A)
                 (A) (A) (A) (A) (A) (A) (A) (A) (A) (A) (A) (A)
                 (A) (A) (A) (A) (A) (A) (A) (A) (A) (A) (A) (A)
                 (A) (A) (A) (A) (A) (A) (A) (A) (A) (A) (A) (A)
                 (A) (A) (A) (A) (A) (A) (A) (A) (A) (A) (A) (A)
                 (A) (A) (A) (A) (A) (A) (A) (A) (A) (A) (A) (A)
                 (A) (A) (A) (A) (A) (A) (A) (A) (A) (A) (A) (A)
                 (A) (A) (A) (A) (A) (A) (A) (A) (A) (A) (A) (A)
                 (A) (A) (A) (A) (A) (A) (A) (A) (A) (A) (A) (A)
                 (A) (A) (A) (A) (A) (A) (A) (A) (A) (A) (A) (A)
                 (A) (A) (A) (A) (A) (A) (A) (A) (A) (A) (A) (A)
                 (A) (A) (A) (A) (A) (A) (A) (A) (A) (A) (A) (A)
                 (A) (A) (A) (A) (A) (A) (A) (A)
     4 initial guesses have been made.
 Convergence on wavefunction:    0.001000000000000
 Iteration     1 Dimension     4 NMult     0 NNew      4
 CISAX will form     4 AO SS matrices at one time.
 Iteration     2 Dimension     6 NMult     4 NNew      2
 Iteration     3 Dimension     8 NMult     6 NNew      2
 Iteration     4 Dimension    10 NMult     8 NNew      2
 Iteration     5 Dimension    12 NMult    10 NNew      2
 Iteration     6 Dimension    14 NMult    12 NNew      2
 ***********************************************************************
 Excited states from <AA,BB:AA,BB> singles matrix:
 ***********************************************************************
 
 Ground to excited state transition densities written to RWF  633
 Ground to excited state transition electric dipole moments (Au):
       state          X           Y           Z        Dip. S.      Osc.
         1        -0.0287     -0.6332     -0.0000      0.4018      0.0285
 Ground to excited state transition velocity dipole moments (Au):
       state          X           Y           Z        Dip. S.      Osc.
         1         0.0036      0.0750     -0.0000      0.0056      0.0353
 Ground to excited state transition magnetic dipole moments (Au):
       state          X           Y           Z
         1        -0.0161     -0.0048      0.0119
 Ground to excited state transition velocity quadrupole moments (Au):
       state          XX          YY          ZZ          XY          XZ          YZ
         1         0.2978      0.0397     -0.0088      0.0252      0.0017     -0.0013
 <0|del|b> * <b|rxdel|0> + <0|del|b> * <b|delr+rdel|0>
 Rotatory Strengths (R) in cgs (10**-40 erg-esu-cm/Gauss)
       state          XX          YY          ZZ    R(velocity)    E-M Angle
         1        -1.6142     -0.2056     -0.9494     -0.9231      105.67
 1/2[<0|r|b>*<b|rxdel|0> + (<0|rxdel|b>*<b|r|0>)*]
 Rotatory Strengths (R) in cgs (10**-40 erg-esu-cm/Gauss)
       state          XX          YY          ZZ     R(length)
         1        -0.3270     -2.1408      0.0001     -0.8226
  1/2[<0|del|b>*<b|r|0> + (<0|r|b>*<b|del|0>)*] (Au)
       state          X           Y           Z        Dip. S.   Osc.(frdel)
         1        -0.0001     -0.0475      0.0000      0.0476      0.0317

 Excitation energies and oscillator strengths:
 
 Excited State   1:      Singlet-A      2.8949 eV  428.29 nm  f=0.0285  <S**2>=0.000
      47 -> 48         0.70405
 This state for optimization and/or second-order correction.
 Total Energy, E(TD-HF/TD-DFT) =  -539.646824645    
 Copying the excited state density for this state as the 1-particle RhoCI density.
 SavETr:  write IOETrn=   770 NScale= 10 NData=  16 NLR=1 NState=    1 LETran=      28.

 **********************************************************************

            Population analysis using the SCF Density.

 **********************************************************************

 Orbital symmetries:
       Occupied  (A) (A) (A) (A) (A) (A) (A) (A) (A) (A) (A) (A)
                 (A) (A) (A) (A) (A) (A) (A) (A) (A) (A) (A) (A)
                 (A) (A) (A) (A) (A) (A) (A) (A) (A) (A) (A) (A)
                 (A) (A) (A) (A) (A) (A) (A) (A) (A) (A) (A)
       Virtual   (A) (A) (A) (A) (A) (A) (A) (A) (A) (A) (A) (A)
                 (A) (A) (A) (A) (A) (A) (A) (A) (A) (A) (A) (A)
                 (A) (A) (A) (A) (A) (A) (A) (A) (A) (A) (A) (A)
                 (A) (A) (A) (A) (A) (A) (A) (A) (A) (A) (A) (A)
                 (A) (A) (A) (A) (A) (A) (A) (A) (A) (A) (A) (A)
                 (A) (A) (A) (A) (A) (A) (A) (A) (A) (A) (A) (A)
                 (A) (A) (A) (A) (A) (A) (A) (A) (A) (A) (A) (A)
                 (A) (A) (A) (A) (A) (A) (A) (A) (A) (A) (A) (A)
                 (A) (A) (A) (A) (A) (A) (A) (A) (A) (A) (A) (A)
                 (A) (A) (A) (A) (A) (A) (A) (A) (A) (A) (A) (A)
                 (A) (A) (A) (A) (A) (A) (A) (A) (A) (A) (A) (A)
                 (A) (A) (A) (A) (A) (A) (A) (A) (A) (A) (A) (A)
                 (A) (A) (A) (A) (A) (A) (A) (A) (A) (A) (A) (A)
                 (A) (A) (A) (A) (A) (A) (A) (A) (A) (A) (A) (A)
                 (A) (A) (A) (A) (A) (A) (A) (A) (A) (A) (A) (A)
                 (A) (A) (A) (A) (A) (A) (A) (A) (A) (A) (A) (A)
                 (A) (A) (A) (A) (A) (A) (A) (A) (A) (A) (A) (A)
                 (A) (A) (A) (A) (A) (A) (A) (A) (A) (A) (A) (A)
                 (A) (A) (A) (A) (A) (A) (A) (A) (A) (A) (A) (A)
                 (A) (A) (A) (A) (A) (A) (A) (A) (A) (A) (A) (A)
                 (A) (A) (A) (A) (A) (A) (A) (A) (A) (A) (A) (A)
                 (A) (A) (A) (A) (A) (A) (A) (A) (A) (A) (A) (A)
                 (A) (A) (A) (A) (A) (A) (A) (A) (A) (A) (A) (A)
                 (A) (A) (A) (A) (A) (A) (A) (A) (A) (A) (A) (A)
                 (A) (A) (A) (A) (A) (A) (A) (A) (A) (A) (A) (A)
                 (A) (A) (A) (A) (A) (A) (A) (A) (A) (A) (A) (A)
                 (A) (A) (A) (A) (A) (A) (A) (A) (A) (A) (A) (A)
                 (A) (A) (A) (A) (A) (A) (A) (A)
 The electronic state is 1-A.
 Alpha  occ. eigenvalues --  -10.77392 -10.73144 -10.72936 -10.72312 -10.72221
 Alpha  occ. eigenvalues --  -10.71842 -10.71354 -10.70819 -10.70653 -10.70495
 Alpha  occ. eigenvalues --  -10.70268 -10.69548 -10.69544 -10.69354  -1.16787
 Alpha  occ. eigenvalues --   -1.12855  -1.07308  -1.06110  -1.01344  -1.00603
 Alpha  occ. eigenvalues --   -0.95922  -0.91476  -0.86320  -0.86102  -0.83744
 Alpha  occ. eigenvalues --   -0.78612  -0.76358  -0.74364  -0.69990  -0.69208
 Alpha  occ. eigenvalues --   -0.68962  -0.68241  -0.68098  -0.64616  -0.63889
 Alpha  occ. eigenvalues --   -0.63564  -0.61808  -0.60529  -0.59988  -0.59205
 Alpha  occ. eigenvalues --   -0.56533  -0.55262  -0.54615  -0.52582  -0.46852
 Alpha  occ. eigenvalues --   -0.46094  -0.44735
 Alpha virt. eigenvalues --   -0.26016  -0.14369  -0.14189  -0.12579  -0.11182
 Alpha virt. eigenvalues --   -0.10038  -0.09258  -0.08096  -0.07927  -0.07468
 Alpha virt. eigenvalues --   -0.07189  -0.07104  -0.05643  -0.05573  -0.05295
 Alpha virt. eigenvalues --   -0.03897  -0.03834  -0.03244  -0.03025  -0.02118
 Alpha virt. eigenvalues --   -0.01501  -0.00966   0.00268   0.00533   0.00739
 Alpha virt. eigenvalues --    0.01119   0.01511   0.02025   0.02241   0.02332
 Alpha virt. eigenvalues --    0.02527   0.02652   0.02916   0.03326   0.03411
 Alpha virt. eigenvalues --    0.04236   0.04501   0.04711   0.05164   0.05399
 Alpha virt. eigenvalues --    0.05915   0.06321   0.06530   0.06958   0.07248
 Alpha virt. eigenvalues --    0.07926   0.08193   0.08342   0.08584   0.08899
 Alpha virt. eigenvalues --    0.09573   0.09680   0.09967   0.10579   0.11145
 Alpha virt. eigenvalues --    0.11253   0.12252   0.12282   0.12828   0.13126
 Alpha virt. eigenvalues --    0.13216   0.13585   0.14096   0.14490   0.15902
 Alpha virt. eigenvalues --    0.16159   0.16741   0.17224   0.17576   0.17767
 Alpha virt. eigenvalues --    0.18256   0.19114   0.19319   0.19492   0.19897
 Alpha virt. eigenvalues --    0.21501   0.21766   0.22645   0.23348   0.23434
 Alpha virt. eigenvalues --    0.23575   0.24652   0.24864   0.26986   0.27812
 Alpha virt. eigenvalues --    0.28764   0.28964   0.30192   0.31649   0.36248
 Alpha virt. eigenvalues --    0.36801   0.38336   0.39239   0.40753   0.41439
 Alpha virt. eigenvalues --    0.41874   0.42650   0.42938   0.43695   0.44210
 Alpha virt. eigenvalues --    0.44816   0.45296   0.45752   0.46427   0.48343
 Alpha virt. eigenvalues --    0.48605   0.48818   0.49045   0.50332   0.50619
 Alpha virt. eigenvalues --    0.51402   0.51584   0.52251   0.52587   0.54041
 Alpha virt. eigenvalues --    0.54153   0.54766   0.55750   0.56071   0.58248
 Alpha virt. eigenvalues --    0.58379   0.59109   0.61398   0.62147   0.62548
 Alpha virt. eigenvalues --    0.62954   0.63672   0.64016   0.65408   0.66789
 Alpha virt. eigenvalues --    0.70245   0.70848   0.71010   0.72043   0.72542
 Alpha virt. eigenvalues --    0.75181   0.75591   0.75886   0.76223   0.76524
 Alpha virt. eigenvalues --    0.76785   0.77374   0.78136   0.80003   0.80484
 Alpha virt. eigenvalues --    0.81157   0.81853   0.82427   0.83127   0.84550
 Alpha virt. eigenvalues --    0.86726   0.87186   0.88022   0.89102   0.90316
 Alpha virt. eigenvalues --    0.91200   0.92363   0.93415   0.95072   0.96417
 Alpha virt. eigenvalues --    0.97258   1.00045   1.00923   1.01537   1.02669
 Alpha virt. eigenvalues --    1.03117   1.05192   1.05819   1.07248   1.09683
 Alpha virt. eigenvalues --    1.19768   1.22500   1.23796   1.25987   1.29343
 Alpha virt. eigenvalues --    1.30668   1.32570   1.33963   1.35417   1.36027
 Alpha virt. eigenvalues --    1.39270   1.40766   1.41429   1.43501   1.43714
 Alpha virt. eigenvalues --    1.44115   1.45434   1.45975   1.46986   1.47706
 Alpha virt. eigenvalues --    1.48155   1.48619   1.52944   1.54099   1.55465
 Alpha virt. eigenvalues --    1.56028   1.56310   1.57075   1.58475   1.61523
 Alpha virt. eigenvalues --    1.62606   1.63438   1.63910   1.66466   1.67992
 Alpha virt. eigenvalues --    1.68431   1.69555   1.69973   1.74272   1.76321
 Alpha virt. eigenvalues --    1.77145   1.78033   1.79681   1.81307   1.81887
 Alpha virt. eigenvalues --    1.82761   1.83489   1.84108   1.84373   1.84742
 Alpha virt. eigenvalues --    1.85323   1.86020   1.86573   1.88544   1.91680
 Alpha virt. eigenvalues --    1.91797   1.94150   1.95467   1.98103   1.98536
 Alpha virt. eigenvalues --    2.01161   2.03112   2.03999   2.08506   2.12628
 Alpha virt. eigenvalues --    2.12866   2.13716   2.15895   2.20527   2.21971
 Alpha virt. eigenvalues --    2.23872   2.29022   2.30745   2.33411   2.35914
 Alpha virt. eigenvalues --    2.37358   2.38034   2.39852   2.42129   2.46535
 Alpha virt. eigenvalues --    2.47638   2.47856   2.48268   2.51878   2.54351
 Alpha virt. eigenvalues --    2.55307   2.56851   2.58055   2.58733   2.59817
 Alpha virt. eigenvalues --    2.60116   2.61065   2.61899   2.63325   2.63792
 Alpha virt. eigenvalues --    2.63999   2.64870   2.65558   2.66268   2.67994
 Alpha virt. eigenvalues --    2.68126   2.71303   2.73392   2.74374   2.75366
 Alpha virt. eigenvalues --    2.76854   2.80055   2.80320   2.82458   2.83626
 Alpha virt. eigenvalues --    2.86516   2.87450   2.92786   2.97028   3.00146
 Alpha virt. eigenvalues --    3.00829   3.06272   3.10948   3.13003   3.14526
 Alpha virt. eigenvalues --    3.22111   3.24923   3.27558   3.29535   3.31688
 Alpha virt. eigenvalues --    3.33162   3.35096   3.43541   3.46724   3.47038
 Alpha virt. eigenvalues --    3.48559   3.52012   3.57486   3.66794   3.67406
 Alpha virt. eigenvalues --    3.74701   3.91963   3.92147   3.96173   3.97798
 Alpha virt. eigenvalues --    4.02777   4.05663   4.06721   4.12363   4.37108
 Alpha virt. eigenvalues --    4.63523   4.69839   4.71562  23.44551  23.60285
 Alpha virt. eigenvalues --   23.82886  23.86956  23.87806  23.91013  23.91892
 Alpha virt. eigenvalues --   23.95524  23.98859  24.00899  24.01134  24.03499
 Alpha virt. eigenvalues --   24.13492  24.14877
          Condensed to atoms (all electrons):
               1          2          3          4          5          6
     1  C    8.747485   0.412882  -0.624443   2.082174  -0.041354  -0.097721
     2  C    0.412882   7.154719   0.303017  -0.875736  -0.052989  -0.018729
     3  C   -0.624443   0.303017   6.606502   0.468206  -0.110641   0.019781
     4  C    2.082174  -0.875736   0.468206  11.494962  -0.138167  -0.127106
     5  C   -0.041354  -0.052989  -0.110641  -0.138167  10.382286   0.488325
     6  C   -0.097721  -0.018729   0.019781  -0.127106   0.488325   6.790633
     7  C   -0.012028   0.007750  -0.011837  -0.045255  -0.774941   0.347686
     8  C    0.440237  -0.002984  -0.099747  -0.061883   2.174835  -0.581279
     9  C   -1.199872  -0.737534   0.355718  -0.147918  -0.814332   0.284070
    10  C   -1.353836   0.114556  -0.219603  -2.607314  -2.330702  -0.378304
    11  C    0.269897  -0.950877   1.069529  -0.496242  -1.536020  -0.161356
    12  C   -2.207599   1.033368  -1.278010  -1.662521  -0.070607  -0.133857
    13  C    0.183912  -0.091379  -0.141281  -1.810656  -0.939965   1.002597
    14  C   -1.104860  -0.213581  -0.213782  -0.473538  -0.632313  -1.319343
    15  H    0.361570  -0.095745  -0.000971   0.022897   0.005947   0.001496
    16  H   -0.025919   0.400210  -0.020722   0.012688  -0.001533  -0.000358
    17  H   -0.018869  -0.030606   0.381993  -0.059075   0.000118   0.000471
    18  H    0.045977   0.007267  -0.080196   0.435626   0.010705  -0.004390
    19  H   -0.048067  -0.011388   0.052939  -0.095249  -0.064309   0.055373
    20  H    0.007925   0.002235  -0.005109   0.009124   0.479949  -0.106570
    21  H   -0.001375  -0.000384   0.000415   0.000079  -0.074462   0.389728
    22  H    0.000779   0.000408  -0.000311  -0.001984   0.017108  -0.017108
    23  H    0.005138  -0.002440   0.000676   0.006103   0.016002   0.003105
    24  H    0.045747   0.008414   0.005180  -0.008383  -0.007320   0.005356
    25  H    0.043422   0.024256  -0.005662  -0.019646  -0.019441  -0.008791
               7          8          9         10         11         12
     1  C   -0.012028   0.440237  -1.199872  -1.353836   0.269897  -2.207599
     2  C    0.007750  -0.002984  -0.737534   0.114556  -0.950877   1.033368
     3  C   -0.011837  -0.099747   0.355718  -0.219603   1.069529  -1.278010
     4  C   -0.045255  -0.061883  -0.147918  -2.607314  -0.496242  -1.662521
     5  C   -0.774941   2.174835  -0.814332  -2.330702  -1.536020  -0.070607
     6  C    0.347686  -0.581279   0.284070  -0.378304  -0.161356  -0.133857
     7  C    6.782299   0.358157  -0.407660   0.132737  -0.201753  -0.228211
     8  C    0.358157   8.941074  -1.345571  -1.465851   0.181733  -0.976181
     9  C   -0.407660  -1.345571   9.214987   0.560864   1.438361  -2.000311
    10  C    0.132737  -1.465851   0.560864   9.230514  -0.418248   2.379916
    11  C   -0.201753   0.181733   1.438361  -0.418248  13.935234  -3.165503
    12  C   -0.228211  -0.976181  -2.000311   2.379916  -3.165503  15.435840
    13  C   -0.693880   0.014603   1.476017  -0.261344   0.929840  -4.056795
    14  C    0.837281  -2.040953  -1.178382   2.053259  -4.255286   2.403470
    15  H   -0.002685   0.004665   0.056127  -0.005611  -0.022130   0.013661
    16  H    0.000307   0.000640   0.001997  -0.010197   0.015149  -0.026355
    17  H   -0.000292  -0.001299  -0.001326   0.015779  -0.010095   0.068398
    18  H    0.000901   0.006790  -0.024910   0.016602  -0.005277  -0.054994
    19  H   -0.005694  -0.051078   0.079272   0.428664   0.069505  -0.063622
    20  H    0.003605   0.059821  -0.033101   0.011640  -0.012374  -0.014751
    21  H   -0.018508  -0.034434  -0.002144   0.024426  -0.004981   0.005891
    22  H    0.376553  -0.015403   0.001170  -0.013002   0.002239  -0.009101
    23  H   -0.070040   0.341368   0.050625  -0.004293  -0.007000   0.006252
    24  H    0.007818   0.036784   0.330379   0.001550  -0.002396  -0.053575
    25  H    0.022757   0.042179   0.386136   0.002706   0.013263  -0.078169
              13         14         15         16         17         18
     1  C    0.183912  -1.104860   0.361570  -0.025919  -0.018869   0.045977
     2  C   -0.091379  -0.213581  -0.095745   0.400210  -0.030606   0.007267
     3  C   -0.141281  -0.213782  -0.000971  -0.020722   0.381993  -0.080196
     4  C   -1.810656  -0.473538   0.022897   0.012688  -0.059075   0.435626
     5  C   -0.939965  -0.632313   0.005947  -0.001533   0.000118   0.010705
     6  C    1.002597  -1.319343   0.001496  -0.000358   0.000471  -0.004390
     7  C   -0.693880   0.837281  -0.002685   0.000307  -0.000292   0.000901
     8  C    0.014603  -2.040953   0.004665   0.000640  -0.001299   0.006790
     9  C    1.476017  -1.178382   0.056127   0.001997  -0.001326  -0.024910
    10  C   -0.261344   2.053259  -0.005611  -0.010197   0.015779   0.016602
    11  C    0.929840  -4.255286  -0.022130   0.015149  -0.010095  -0.005277
    12  C   -4.056795   2.403470   0.013661  -0.026355   0.068398  -0.054994
    13  C   13.501778  -2.458432  -0.015011   0.002333  -0.004696  -0.012875
    14  C   -2.458432  14.109564   0.005958  -0.008053   0.002838  -0.015458
    15  H   -0.015011   0.005958   0.449389  -0.010016   0.001789  -0.000002
    16  H    0.002333  -0.008053  -0.010016   0.422256  -0.008010   0.002077
    17  H   -0.004696   0.002838   0.001789  -0.008010   0.423166  -0.008915
    18  H   -0.012875  -0.015458  -0.000002   0.002077  -0.008915   0.445956
    19  H    0.085924  -0.056246   0.000383  -0.000676   0.001607  -0.005207
    20  H   -0.016326  -0.045821  -0.000140   0.000021  -0.000157   0.001083
    21  H   -0.020596   0.083081   0.000017  -0.000006   0.000011  -0.000126
    22  H    0.022458  -0.028290  -0.000118   0.000006  -0.000006   0.000002
    23  H   -0.026871   0.008434   0.000313  -0.000100   0.000012  -0.000082
    24  H    0.007971  -0.047121   0.001158  -0.000257   0.000139  -0.000070
    25  H    0.018181  -0.078854  -0.002997   0.001402  -0.000367   0.000415
              19         20         21         22         23         24
     1  C   -0.048067   0.007925  -0.001375   0.000779   0.005138   0.045747
     2  C   -0.011388   0.002235  -0.000384   0.000408  -0.002440   0.008414
     3  C    0.052939  -0.005109   0.000415  -0.000311   0.000676   0.005180
     4  C   -0.095249   0.009124   0.000079  -0.001984   0.006103  -0.008383
     5  C   -0.064309   0.479949  -0.074462   0.017108   0.016002  -0.007320
     6  C    0.055373  -0.106570   0.389728  -0.017108   0.003105   0.005356
     7  C   -0.005694   0.003605  -0.018508   0.376553  -0.070040   0.007818
     8  C   -0.051078   0.059821  -0.034434  -0.015403   0.341368   0.036784
     9  C    0.079272  -0.033101  -0.002144   0.001170   0.050625   0.330379
    10  C    0.428664   0.011640   0.024426  -0.013002  -0.004293   0.001550
    11  C    0.069505  -0.012374  -0.004981   0.002239  -0.007000  -0.002396
    12  C   -0.063622  -0.014751   0.005891  -0.009101   0.006252  -0.053575
    13  C    0.085924  -0.016326  -0.020596   0.022458  -0.026871   0.007971
    14  C   -0.056246  -0.045821   0.083081  -0.028290   0.008434  -0.047121
    15  H    0.000383  -0.000140   0.000017  -0.000118   0.000313   0.001158
    16  H   -0.000676   0.000021  -0.000006   0.000006  -0.000100  -0.000257
    17  H    0.001607  -0.000157   0.000011  -0.000006   0.000012   0.000139
    18  H   -0.005207   0.001083  -0.000126   0.000002  -0.000082  -0.000070
    19  H    0.450874  -0.006553   0.001573  -0.000559   0.000215   0.000748
    20  H   -0.006553   0.465462  -0.011708   0.002086   0.000036   0.000003
    21  H    0.001573  -0.011708   0.425038  -0.007350   0.001508   0.000247
    22  H   -0.000559   0.002086  -0.007350   0.418150  -0.008024  -0.000164
    23  H    0.000215   0.000036   0.001508  -0.008024   0.436068   0.000597
    24  H    0.000748   0.000003   0.000247  -0.000164   0.000597   0.487805
    25  H    0.000421   0.000509  -0.000504   0.001319  -0.001286  -0.067607
              25
     1  C    0.043422
     2  C    0.024256
     3  C   -0.005662
     4  C   -0.019646
     5  C   -0.019441
     6  C   -0.008791
     7  C    0.022757
     8  C    0.042179
     9  C    0.386136
    10  C    0.002706
    11  C    0.013263
    12  C   -0.078169
    13  C    0.018181
    14  C   -0.078854
    15  H   -0.002997
    16  H    0.001402
    17  H   -0.000367
    18  H    0.000415
    19  H    0.000421
    20  H    0.000509
    21  H   -0.000504
    22  H    0.001319
    23  H   -0.001286
    24  H   -0.067607
    25  H    0.482273
 Mulliken charges:
               1
     1  C    0.088799
     2  C   -0.384707
     3  C   -0.451642
     4  C    0.098815
     5  C    0.033824
     6  C   -0.433708
     7  C   -0.405065
     8  C    0.073776
     9  C   -0.342663
    10  C    0.095092
    11  C   -0.675212
    12  C    0.733365
    13  C   -0.695505
    14  C    0.666428
    15  H    0.230056
    16  H    0.253116
    17  H    0.247392
    18  H    0.239103
    19  H    0.181150
    20  H    0.209110
    21  H    0.244567
    22  H    0.259142
    23  H    0.243685
    24  H    0.246996
    25  H    0.244087
 Sum of Mulliken charges =   1.00000
 Mulliken charges with hydrogens summed into heavy atoms:
               1
     1  C    0.318854
     2  C   -0.131590
     3  C   -0.204249
     4  C    0.337918
     5  C    0.242934
     6  C   -0.189141
     7  C   -0.145923
     8  C    0.317461
     9  C    0.148419
    10  C    0.276242
    11  C   -0.675212
    12  C    0.733365
    13  C   -0.695505
    14  C    0.666428
 Electronic spatial extent (au):  <R**2>=           2847.2351
 Charge=              1.0000 electrons
 Dipole moment (field-independent basis, Debye):
    X=             -0.0378    Y=              0.2181    Z=             -0.0093  Tot=              0.2215
 Quadrupole moment (field-independent basis, Debye-Ang):
   XX=            -30.3823   YY=            -57.1436   ZZ=            -83.8176
   XY=              0.2638   XZ=             -0.1046   YZ=              0.5422
 Traceless Quadrupole moment (field-independent basis, Debye-Ang):
   XX=             26.7323   YY=             -0.0291   ZZ=            -26.7031
   XY=              0.2638   XZ=             -0.1046   YZ=              0.5422
 Octapole moment (field-independent basis, Debye-Ang**2):
  XXX=             -0.7865  YYY=              5.2862  ZZZ=              0.0983  XYY=             -0.0414
  XXY=             -3.7995  XXZ=              0.1422  XZZ=              0.0178  YZZ=             -3.0828
  YYZ=              0.4348  XYZ=             -0.1314
 Hexadecapole moment (field-independent basis, Debye-Ang**3):
 XXXX=          -2104.7815 YYYY=           -606.0031 ZZZZ=            -98.7805 XXXY=             -2.5669
 XXXZ=             -3.0946 YYYX=              4.8789 YYYZ=              2.5406 ZZZX=             -0.1903
 ZZZY=              0.2181 XXYY=           -509.1005 XXZZ=           -588.0389 YYZZ=           -143.6746
 XXYZ=             11.0583 YYXZ=             -0.0255 ZZXY=             -1.4149
 N-N= 7.837429466626D+02 E-N=-2.803990339864D+03  KE= 5.377623924651D+02
 Unable to Open any file for archive entry.
 1\1\GINC-GADI-CPU-CLX-0572\SP\RM062X TD-FC\6-311++G(d,p)\C14H11(1+)\TS
 1578\27-Jul-2022\0\\#n M062X/6-311++G(d,p) TD(NStates=1) EmpiricalDisp
 ersion=GD3 SP\\SP_-3\\1,1\C,0,2.4927,1.3291,-0.051\C,0,3.7015,0.6627,-
 0.017\C,0,3.6839,-0.7051,-0.016\C,0,2.4632,-1.3969,0.052\C,0,-2.4632,-
 1.3609,0.068\C,0,-3.6839,-0.7231,0.016\C,0,-3.7015,0.6627,-0.001\C,0,-
 2.4927,1.3771,-0.051\C,0,0.,1.4541,-0.099\C,0,0.,-1.3915,0.081\C,0,1.2
 621,0.6827,-0.013\C,0,1.2375,-0.7221,0.038\C,0,-1.2621,0.7067,-0.035\C
 ,0,-1.2375,-0.7041,0.04\H,0,2.4881,2.4053,-0.054\H,0,4.6368,1.1754,0.0
 29\H,0,4.6093,-1.2827,-0.044\H,0,2.4675,-2.5264,0.055\H,0,0.,-2.4766,0
 .084\H,0,-2.4675,-2.4184,0.071\H,0,-4.6093,-1.2467,-0.04\H,0,-4.6368,1
 .2294,0.043\H,0,-2.4881,2.4893,-0.054\H,0,0.006,2.1105,-0.9496\H,0,-0.
 006,2.1105,0.7696\\Version=ES64L-G16RevC.01\State=1-A\HF=-539.7532089\
 RMSD=6.177e-09\PG=C01 [X(C14H11)]\\@
 The archive entry for this job was punched.


 PENOTUS DIED A HUNDRED YEARS OLD WANTING BUT TWO...
 AND HE USED TO SAY BEFORE HE DIED, HAVING SPENT HIS
 WHOLE LIFE IN VAINLY SEARCHING AFTER THE PHILOSOPHER'S
 STONE, THAT IF HE HAD A MORTAL ENEMY HE DID NOT DARE
 TO ENCOUNTER OPENLY, HE WOULD ADVISE HIM ABOVE ALL
 THINGS TO GIVE HIMSELF UP TO THE STUDY AND PRACTICE
 OF ALCHEMY.  --  NICOLAS LEMERY, M.D.
 "A COURSE OF CHYMISTRY", WALTER KETTILBY, LONDON, 1686
 Job cpu time:       0 days  1 hours 12 minutes 52.1 seconds.
 Elapsed time:       0 days  0 hours  2 minutes 17.7 seconds.
 File lengths (MBytes):  RWF=    460 Int=      0 D2E=      0 Chk=     15 Scr=      1
 Normal termination of Gaussian 16 at Wed Jul 27 10:04:25 2022.
