 Entering Gaussian System, Link 0=g16
 Initial command:
 /apps/gaussian/g16c01/g16/l1.exe "/jobfs/51152907.gadi-pbs/Gau-210208.inp" -scrdir="/jobfs/51152907.gadi-pbs/"
 Entering Link 1 = /apps/gaussian/g16c01/g16/l1.exe PID=    210209.
  
 Copyright (c) 1988-2019, Gaussian, Inc.  All Rights Reserved.
  
 This is part of the Gaussian(R) 16 program.  It is based on
 the Gaussian(R) 09 system (copyright 2009, Gaussian, Inc.),
 the Gaussian(R) 03 system (copyright 2003, Gaussian, Inc.),
 the Gaussian(R) 98 system (copyright 1998, Gaussian, Inc.),
 the Gaussian(R) 94 system (copyright 1995, Gaussian, Inc.),
 the Gaussian 92(TM) system (copyright 1992, Gaussian, Inc.),
 the Gaussian 90(TM) system (copyright 1990, Gaussian, Inc.),
 the Gaussian 88(TM) system (copyright 1988, Gaussian, Inc.),
 the Gaussian 86(TM) system (copyright 1986, Carnegie Mellon
 University), and the Gaussian 82(TM) system (copyright 1983,
 Carnegie Mellon University). Gaussian is a federally registered
 trademark of Gaussian, Inc.
  
 This software contains proprietary and confidential information,
 including trade secrets, belonging to Gaussian, Inc.
  
 This software is provided under written license and may be
 used, copied, transmitted, or stored only in accord with that
 written license.
  
 The following legend is applicable only to US Government
 contracts under FAR:
  
                    RESTRICTED RIGHTS LEGEND
  
 Use, reproduction and disclosure by the US Government is
 subject to restrictions as set forth in subparagraphs (a)
 and (c) of the Commercial Computer Software - Restricted
 Rights clause in FAR 52.227-19.
  
 Gaussian, Inc.
 340 Quinnipiac St., Bldg. 40, Wallingford CT 06492
  
  
 ---------------------------------------------------------------
 Warning -- This program may not be used in any manner that
 competes with the business of Gaussian, Inc. or will provide
 assistance to any competitor of Gaussian, Inc.  The licensee
 of this program is prohibited from giving any competitor of
 Gaussian, Inc. access to this program.  By using this program,
 the user acknowledges that Gaussian, Inc. is engaged in the
 business of creating and licensing software in the field of
 computational chemistry and represents and warrants to the
 licensee that it is not a competitor of Gaussian, Inc. and that
 it will not use this program in any manner prohibited above.
 ---------------------------------------------------------------
  

 Cite this work as:
 Gaussian 16, Revision C.01,
 M. J. Frisch, G. W. Trucks, H. B. Schlegel, G. E. Scuseria, 
 M. A. Robb, J. R. Cheeseman, G. Scalmani, V. Barone, 
 G. A. Petersson, H. Nakatsuji, X. Li, M. Caricato, A. V. Marenich, 
 J. Bloino, B. G. Janesko, R. Gomperts, B. Mennucci, H. P. Hratchian, 
 J. V. Ortiz, A. F. Izmaylov, J. L. Sonnenberg, D. Williams-Young, 
 F. Ding, F. Lipparini, F. Egidi, J. Goings, B. Peng, A. Petrone, 
 T. Henderson, D. Ranasinghe, V. G. Zakrzewski, J. Gao, N. Rega, 
 G. Zheng, W. Liang, M. Hada, M. Ehara, K. Toyota, R. Fukuda, 
 J. Hasegawa, M. Ishida, T. Nakajima, Y. Honda, O. Kitao, H. Nakai, 
 T. Vreven, K. Throssell, J. A. Montgomery, Jr., J. E. Peralta, 
 F. Ogliaro, M. J. Bearpark, J. J. Heyd, E. N. Brothers, K. N. Kudin, 
 V. N. Staroverov, T. A. Keith, R. Kobayashi, J. Normand, 
 K. Raghavachari, A. P. Rendell, J. C. Burant, S. S. Iyengar, 
 J. Tomasi, M. Cossi, J. M. Millam, M. Klene, C. Adamo, R. Cammi, 
 J. W. Ochterski, R. L. Martin, K. Morokuma, O. Farkas, 
 J. B. Foresman, and D. J. Fox, Gaussian, Inc., Wallingford CT, 2019.
 
 ******************************************
 Gaussian 16:  ES64L-G16RevC.01  3-Jul-2019
                14-Jul-2022 
 ******************************************
 %NProcShared=8
 Will use up to    8 processors via shared memory.
 %mem = 32GB
 %Chk=check_sp_2
 -------------------------------------------
 #n M062X/6-311++G(d,p) SP pop=reg formcheck
 -------------------------------------------
 1/38=1,172=1/1;
 2/12=2,17=6,18=5,40=1/2;
 3/5=4,6=6,7=1111,11=2,25=1,30=1,74=-55/1,2,3;
 4//1;
 5/5=2,38=5/2;
 6/28=1/1;
 99/5=1,9=1/99;
 -----
 SP_-2
 -----
 Symbolic Z-matrix:
 Charge =  1 Multiplicity = 1
 C                     2.49478   1.37276   0. 
 C                     3.706     0.68062   0. 
 C                     3.69037  -0.7105    0. 
 C                     2.47332  -1.40427   0. 
 C                    -2.4645   -1.40087   0. 
 C                    -3.69459  -0.70366   0. 
 C                    -3.71388   0.68378   0. 
 C                    -2.5021    1.37284   0. 
 C                    -0.0017    1.46654   0. 
 C                     0.00642  -1.42451   0. 
 C                     1.26675   0.68989   0. 
 C                     1.24218  -0.72389   0. 
 C                    -1.26247   0.68483   0. 
 C                    -1.23896  -0.72301   0. 
 H                     2.49387   2.45803   0. 
 H                     4.64334   1.22145   0. 
 H                     4.61943  -1.26698   0. 
 H                     2.47576  -2.48877   0. 
 H                     0.00548  -2.50753   0. 
 H                    -2.47142  -2.48561   0. 
 H                    -4.62025  -1.26616   0. 
 H                    -4.65087   1.22437   0. 
 H                    -2.49617   2.45821   0. 
 H                    -0.00946   2.1567   -0.86371 
 H                    -0.00948   2.1567    0.86371 
 
                          Input orientation:                          
 ---------------------------------------------------------------------
 Center     Atomic      Atomic             Coordinates (Angstroms)
 Number     Number       Type             X           Y           Z
 ---------------------------------------------------------------------
      1          6           0        2.494776    1.372759    0.000000
      2          6           0        3.706000    0.680619    0.000000
      3          6           0        3.690366   -0.710495    0.000000
      4          6           0        2.473321   -1.404272    0.000000
      5          6           0       -2.464499   -1.400867    0.000000
      6          6           0       -3.694593   -0.703663    0.000000
      7          6           0       -3.713879    0.683779    0.000000
      8          6           0       -2.502101    1.372841    0.000000
      9          6           0       -0.001703    1.466536    0.000000
     10          6           0        0.006422   -1.424509    0.000000
     11          6           0        1.266754    0.689895    0.000000
     12          6           0        1.242181   -0.723891    0.000000
     13          6           0       -1.262466    0.684827    0.000000
     14          6           0       -1.238960   -0.723009    0.000000
     15          1           0        2.493871    2.458027    0.000000
     16          1           0        4.643344    1.221453    0.000000
     17          1           0        4.619429   -1.266980    0.000000
     18          1           0        2.475765   -2.488769    0.000000
     19          1           0        0.005478   -2.507529    0.000000
     20          1           0       -2.471415   -2.485609    0.000000
     21          1           0       -4.620250   -1.266159    0.000000
     22          1           0       -4.650874    1.224366    0.000000
     23          1           0       -2.496169    2.458212    0.000000
     24          1           0       -0.009458    2.156701   -0.863708
     25          1           0       -0.009479    2.156701    0.863708
 ---------------------------------------------------------------------
                    Distance matrix (angstroms):
                    1          2          3          4          5
     1  C    0.000000
     2  C    1.395034   0.000000
     3  C    2.401954   1.391202   0.000000
     4  C    2.777114   2.422038   1.400902   0.000000
     5  C    5.682201   6.512115   6.193462   4.937821   0.000000
     6  C    6.528386   7.528945   7.384962   6.207577   1.413939
     7  C    6.246767   7.419880   7.534377   6.530038   2.430370
     8  C    4.996877   6.246574   6.533524   5.697998   2.773962
     9  C    2.498240   3.790083   4.286122   3.790420   3.779863
    10  C    3.743878   4.256577   3.752501   2.466982   2.471034
    11  C    1.405113   2.439264   2.799105   2.416887   4.277093
    12  C    2.442322   2.836028   2.448222   1.406636   3.767993
    13  C    3.819701   4.968468   5.145626   4.280238   2.407281
    14  C    4.281708   5.140311   4.929342   3.774275   1.400513
    15  H    1.085269   2.151380   3.386907   3.862354   6.283032
    16  H    2.153889   1.082181   2.154203   3.406381   7.576146
    17  H    3.388565   2.151161   1.082974   2.150495   7.085193
    18  H    3.861575   3.399779   2.153489   1.084499   5.058630
    19  H    4.610124   4.884481   4.099723   2.703225   2.706564
    20  H    6.288884   6.941575   6.412377   5.061591   1.084765
    21  H    7.588642   8.550812   8.329172   7.094915   2.159956
    22  H    7.147191   8.374545   8.562709   7.593675   3.416443
    23  H    5.107616   6.451879   6.950822   6.294014   3.859209
    24  H    2.762562   4.090164   4.759780   4.426140   4.407891
    25  H    2.762581   4.090183   4.759796   4.426151   4.407879
                    6          7          8          9         10
     6  C    0.000000
     7  C    1.387576   0.000000
     8  C    2.394558   1.393991   0.000000
     9  C    4.283363   3.793805   2.502153   0.000000
    10  C    3.770561   4.276157   3.757374   2.891057   0.000000
    11  C    5.153345   4.980636   3.830233   1.487331   2.461532
    12  C    4.936815   5.152093   4.291379   2.518972   1.420552
    13  C    2.800562   2.451413   1.417766   1.483439   2.461580
    14  C    2.455709   2.846801   2.447062   2.514938   1.429363
    15  H    6.949343   6.456324   5.112472   2.685320   4.611019
    16  H    8.557293   8.374501   7.147049   4.651508   5.338742
    17  H    8.333084   8.558591   7.595054   5.369076   4.615696
    18  H    6.423388   6.955339   6.300094   4.667150   2.688922
    19  H    4.116364   4.900822   4.620089   3.974072   1.083020
    20  H    2.161364   3.404223   3.858572   4.660358   2.695479
    21  H    1.083163   2.150294   3.383914   5.366433   4.629381
    22  H    2.152155   1.081756   2.153897   4.655474   5.357886
    23  H    3.381372   2.152076   1.085387   2.684359   4.619360
    24  H    4.744248   4.078998   2.752035   1.105612   3.683926
    25  H    4.744232   4.078979   2.752016   1.105613   3.683926
                   11         12         13         14         15
    11  C    0.000000
    12  C    1.413999   0.000000
    13  C    2.529225   2.873628   0.000000
    14  C    2.876612   2.481141   1.408032   0.000000
    15  H    2.152234   3.419259   4.153830   4.904387   0.000000
    16  H    3.418175   3.918198   5.930140   6.195356   2.479789
    17  H    3.881983   3.420636   6.197277   5.883589   4.288785
    18  H    3.400825   2.153259   4.903680   4.113039   4.946829
    19  H    3.437199   2.170437   3.434941   2.175578   5.554174
    20  H    4.904868   4.110286   3.393114   2.150746   7.006683
    21  H    6.203463   5.887457   3.883434   3.424637   8.029961
    22  H    5.941715   6.206755   3.431095   3.928540   7.250469
    23  H    4.157708   4.909281   2.160305   3.420634   4.990040
    24  H    2.127494   3.257361   2.117175   3.248136   2.665229
    25  H    2.127506   3.257369   2.117163   3.248129   2.665249
                   16         17         18         19         20
    16  H    0.000000
    17  H    2.488548   0.000000
    18  H    4.296993   2.467400   0.000000
    19  H    5.951059   4.777814   2.470358   0.000000
    20  H    8.022600   7.194799   4.947181   2.476990   0.000000
    21  H    9.591788   9.239679   7.200569   4.789401   2.470738
    22  H    9.294219   9.599236   8.035941   5.967299   4.302785
    23  H    7.245842   8.031736   7.013754   5.560290   4.943883
    24  H    4.823821   5.821871   5.338793   4.743548   5.325248
    25  H    4.823841   5.821887   5.338803   4.743549   5.325238
                   21         22         23         24         25
    21  H    0.000000
    22  H    2.490714   0.000000
    23  H    4.287500   2.482968   0.000000
    24  H    5.807009   4.812274   2.649647   0.000000
    25  H    5.806993   4.812254   2.649628   1.727417   0.000000
 Stoichiometry    C14H11(1+)
 Framework group  C1[X(C14H11)]
 Deg. of freedom    69
 Full point group                 C1      NOp   1
 Largest Abelian subgroup         C1      NOp   1
 Largest concise Abelian subgroup C1      NOp   1
                         Standard orientation:                         
 ---------------------------------------------------------------------
 Center     Atomic      Atomic             Coordinates (Angstroms)
 Number     Number       Type             X           Y           Z
 ---------------------------------------------------------------------
      1          6           0        2.493298   -1.366981    0.000000
      2          6           0        3.705324   -0.676246    0.000000
      3          6           0        3.691303    0.714885    0.000000
      4          6           0        2.475064    1.410074    0.000000
      5          6           0       -2.462757    1.412394    0.000000
      6          6           0       -3.693659    0.716618    0.000000
      7          6           0       -3.714554   -0.670801    0.000000
      8          6           0       -2.503576   -1.361268    0.000000
      9          6           0       -0.003288   -1.457863    0.000000
     10          6           0        0.008190    1.433172    0.000000
     11          6           0        1.266068   -0.682693    0.000000
     12          6           0        1.243135    0.731120    0.000000
     13          6           0       -1.263143   -0.674692    0.000000
     14          6           0       -1.238005    0.733116    0.000000
     15          1           0        2.491134   -2.452247    0.000000
     16          1           0        4.642040   -1.218167    0.000000
     17          1           0        4.621011    1.270292    0.000000
     18          1           0        2.478765    2.494566    0.000000
     19          1           0        0.008502    2.516191    0.000000
     20          1           0       -2.468415    2.497144    0.000000
     21          1           0       -4.618663    1.280187    0.000000
     22          1           0       -4.652175   -1.210301    0.000000
     23          1           0       -2.498902   -2.446645    0.000000
     24          1           0       -0.011844   -2.148018    0.863708
     25          1           0       -0.011864   -2.148018   -0.863708
 ---------------------------------------------------------------------
 Rotational constants (GHZ):           2.1253812           0.4425721           0.3670975
 Standard basis: 6-311++G(d,p) (5D, 7F)
 There are   399 symmetry adapted cartesian basis functions of A   symmetry.
 There are   385 symmetry adapted basis functions of A   symmetry.
   385 basis functions,   603 primitive gaussians,   399 cartesian basis functions
    47 alpha electrons       47 beta electrons
       nuclear repulsion energy       779.3380595308 Hartrees.
 NAtoms=   25 NActive=   25 NUniq=   25 SFac= 1.00D+00 NAtFMM=   60 NAOKFM=F Big=F
 Integral buffers will be    131072 words long.
 Raffenetti 2 integral format.
 Two-electron integral symmetry is turned on.
 One-electron integrals computed using PRISM.
 NBasis=   385 RedAO= T EigKep=  1.15D-06  NBF=   385
 NBsUse=   379 1.00D-06 EigRej=  8.65D-07 NBFU=   379
 ExpMin= 3.60D-02 ExpMax= 4.56D+03 ExpMxC= 6.82D+02 IAcc=3 IRadAn=         5 AccDes= 0.00D+00
 Harris functional with IExCor= 1009 and IRadAn=       5 diagonalized for initial guess.
 HarFok:  IExCor= 1009 AccDes= 0.00D+00 IRadAn=         5 IDoV= 1 UseB2=F ITyADJ=14
 ICtDFT=  3500011 ScaDFX=  1.000000  1.000000  1.000000  1.000000
 FoFCou: FMM=F IPFlag=           0 FMFlag=      100000 FMFlg1=           0
         NFxFlg=           0 DoJE=T BraDBF=F KetDBF=T FulRan=T
         wScrn=  0.000000 ICntrl=       500 IOpCl=  0 I1Cent=   200000004 NGrid=           0
         NMat0=    1 NMatS0=      1 NMatT0=    0 NMatD0=    1 NMtDS0=    0 NMtDT0=    0
 Petite list used in FoFCou.
 Requested convergence on RMS density matrix=1.00D-08 within 128 cycles.
 Requested convergence on MAX density matrix=1.00D-06.
 Requested convergence on             energy=1.00D-06.
 No special actions if energy rises.
 SCF Done:  E(RM062X) =  -539.758836015     A.U. after   15 cycles
            NFock= 15  Conv=0.48D-08     -V/T= 2.0045

 **********************************************************************

            Population analysis using the SCF Density.

 **********************************************************************

 Orbital symmetries:
       Occupied  (A) (A) (A) (A) (A) (A) (A) (A) (A) (A) (A) (A)
                 (A) (A) (A) (A) (A) (A) (A) (A) (A) (A) (A) (A)
                 (A) (A) (A) (A) (A) (A) (A) (A) (A) (A) (A) (A)
                 (A) (A) (A) (A) (A) (A) (A) (A) (A) (A) (A)
       Virtual   (A) (A) (A) (A) (A) (A) (A) (A) (A) (A) (A) (A)
                 (A) (A) (A) (A) (A) (A) (A) (A) (A) (A) (A) (A)
                 (A) (A) (A) (A) (A) (A) (A) (A) (A) (A) (A) (A)
                 (A) (A) (A) (A) (A) (A) (A) (A) (A) (A) (A) (A)
                 (A) (A) (A) (A) (A) (A) (A) (A) (A) (A) (A) (A)
                 (A) (A) (A) (A) (A) (A) (A) (A) (A) (A) (A) (A)
                 (A) (A) (A) (A) (A) (A) (A) (A) (A) (A) (A) (A)
                 (A) (A) (A) (A) (A) (A) (A) (A) (A) (A) (A) (A)
                 (A) (A) (A) (A) (A) (A) (A) (A) (A) (A) (A) (A)
                 (A) (A) (A) (A) (A) (A) (A) (A) (A) (A) (A) (A)
                 (A) (A) (A) (A) (A) (A) (A) (A) (A) (A) (A) (A)
                 (A) (A) (A) (A) (A) (A) (A) (A) (A) (A) (A) (A)
                 (A) (A) (A) (A) (A) (A) (A) (A) (A) (A) (A) (A)
                 (A) (A) (A) (A) (A) (A) (A) (A) (A) (A) (A) (A)
                 (A) (A) (A) (A) (A) (A) (A) (A) (A) (A) (A) (A)
                 (A) (A) (A) (A) (A) (A) (A) (A) (A) (A) (A) (A)
                 (A) (A) (A) (A) (A) (A) (A) (A) (A) (A) (A) (A)
                 (A) (A) (A) (A) (A) (A) (A) (A) (A) (A) (A) (A)
                 (A) (A) (A) (A) (A) (A) (A) (A) (A) (A) (A) (A)
                 (A) (A) (A) (A) (A) (A) (A) (A) (A) (A) (A) (A)
                 (A) (A) (A) (A) (A) (A) (A) (A) (A) (A) (A) (A)
                 (A) (A) (A) (A) (A) (A) (A) (A) (A) (A) (A) (A)
                 (A) (A) (A) (A) (A) (A) (A) (A) (A) (A) (A) (A)
                 (A) (A) (A) (A) (A) (A) (A) (A) (A) (A) (A) (A)
                 (A) (A) (A) (A) (A) (A) (A) (A) (A) (A) (A) (A)
                 (A) (A) (A) (A) (A) (A) (A) (A) (A) (A) (A) (A)
                 (A) (A) (A) (A) (A) (A) (A) (A) (A) (A) (A) (A)
                 (A) (A) (A) (A) (A) (A) (A) (A)
 The electronic state is 1-A.
 Alpha  occ. eigenvalues --  -10.77772 -10.73434 -10.73256 -10.72628 -10.72480
 Alpha  occ. eigenvalues --  -10.71554 -10.71392 -10.71282 -10.71070 -10.70930
 Alpha  occ. eigenvalues --  -10.70120 -10.70043 -10.69783 -10.69691  -1.16226
 Alpha  occ. eigenvalues --   -1.12262  -1.06767  -1.05575  -1.01178  -1.00063
 Alpha  occ. eigenvalues --   -0.95673  -0.90942  -0.86288  -0.85786  -0.83736
 Alpha  occ. eigenvalues --   -0.78332  -0.75861  -0.74290  -0.69474  -0.69196
 Alpha  occ. eigenvalues --   -0.68417  -0.68097  -0.68001  -0.64677  -0.64220
 Alpha  occ. eigenvalues --   -0.62956  -0.61780  -0.59934  -0.59517  -0.59055
 Alpha  occ. eigenvalues --   -0.56870  -0.55211  -0.54772  -0.52330  -0.46575
 Alpha  occ. eigenvalues --   -0.45995  -0.44436
 Alpha virt. eigenvalues --   -0.26104  -0.14709  -0.14147  -0.12842  -0.11167
 Alpha virt. eigenvalues --   -0.10084  -0.09230  -0.08015  -0.07984  -0.07480
 Alpha virt. eigenvalues --   -0.07197  -0.07161  -0.05657  -0.05592  -0.05356
 Alpha virt. eigenvalues --   -0.03816  -0.03626  -0.03300  -0.03159  -0.02169
 Alpha virt. eigenvalues --   -0.01359  -0.00927   0.00178   0.00584   0.00632
 Alpha virt. eigenvalues --    0.01057   0.01507   0.01921   0.02174   0.02290
 Alpha virt. eigenvalues --    0.02433   0.02649   0.02662   0.03307   0.03350
 Alpha virt. eigenvalues --    0.04231   0.04481   0.04683   0.04990   0.05332
 Alpha virt. eigenvalues --    0.06037   0.06248   0.06581   0.07024   0.07242
 Alpha virt. eigenvalues --    0.07866   0.08076   0.08331   0.08489   0.08896
 Alpha virt. eigenvalues --    0.09502   0.09518   0.09959   0.10736   0.10916
 Alpha virt. eigenvalues --    0.11097   0.12126   0.12194   0.12872   0.12933
 Alpha virt. eigenvalues --    0.13338   0.13512   0.13979   0.14264   0.16108
 Alpha virt. eigenvalues --    0.16213   0.16262   0.17314   0.17563   0.17721
 Alpha virt. eigenvalues --    0.18042   0.18956   0.19169   0.19547   0.19666
 Alpha virt. eigenvalues --    0.21446   0.21526   0.22589   0.22997   0.23473
 Alpha virt. eigenvalues --    0.23708   0.24554   0.25255   0.26821   0.27470
 Alpha virt. eigenvalues --    0.28709   0.29233   0.29749   0.31257   0.35488
 Alpha virt. eigenvalues --    0.36097   0.38115   0.39216   0.41111   0.41443
 Alpha virt. eigenvalues --    0.41829   0.42257   0.43015   0.43548   0.44319
 Alpha virt. eigenvalues --    0.44692   0.44820   0.45881   0.46038   0.47960
 Alpha virt. eigenvalues --    0.48562   0.48801   0.49066   0.50437   0.51018
 Alpha virt. eigenvalues --    0.51359   0.51558   0.52118   0.52685   0.53893
 Alpha virt. eigenvalues --    0.54075   0.54545   0.55665   0.55716   0.57470
 Alpha virt. eigenvalues --    0.58195   0.58699   0.61359   0.62077   0.62198
 Alpha virt. eigenvalues --    0.63062   0.63440   0.64738   0.65019   0.67069
 Alpha virt. eigenvalues --    0.70255   0.70551   0.70744   0.72291   0.72710
 Alpha virt. eigenvalues --    0.75697   0.75870   0.76192   0.76870   0.77092
 Alpha virt. eigenvalues --    0.77709   0.77804   0.78128   0.79908   0.80268
 Alpha virt. eigenvalues --    0.81131   0.81597   0.82028   0.82844   0.85050
 Alpha virt. eigenvalues --    0.87005   0.88002   0.88555   0.89017   0.90345
 Alpha virt. eigenvalues --    0.90918   0.91214   0.93110   0.94436   0.96355
 Alpha virt. eigenvalues --    0.96524   1.00306   1.01109   1.01561   1.02553
 Alpha virt. eigenvalues --    1.03037   1.03630   1.04565   1.05269   1.08558
 Alpha virt. eigenvalues --    1.19432   1.23143   1.23861   1.25162   1.27855
 Alpha virt. eigenvalues --    1.29662   1.31770   1.34153   1.35632   1.35827
 Alpha virt. eigenvalues --    1.39174   1.39901   1.40722   1.42916   1.43121
 Alpha virt. eigenvalues --    1.43294   1.44719   1.45140   1.46170   1.46489
 Alpha virt. eigenvalues --    1.47436   1.47643   1.51424   1.53385   1.55277
 Alpha virt. eigenvalues --    1.55534   1.56076   1.56338   1.57553   1.61063
 Alpha virt. eigenvalues --    1.63149   1.63412   1.63709   1.65944   1.67910
 Alpha virt. eigenvalues --    1.68147   1.68489   1.69514   1.74093   1.75592
 Alpha virt. eigenvalues --    1.76803   1.77862   1.79786   1.79796   1.80390
 Alpha virt. eigenvalues --    1.82798   1.82869   1.83392   1.83639   1.83854
 Alpha virt. eigenvalues --    1.83990   1.85651   1.85808   1.88069   1.91088
 Alpha virt. eigenvalues --    1.91800   1.93779   1.94984   1.97302   1.97780
 Alpha virt. eigenvalues --    1.99527   2.01973   2.03892   2.06888   2.11432
 Alpha virt. eigenvalues --    2.11577   2.13731   2.14725   2.18562   2.20679
 Alpha virt. eigenvalues --    2.22251   2.28126   2.29521   2.33983   2.34381
 Alpha virt. eigenvalues --    2.35634   2.38297   2.39250   2.41806   2.44327
 Alpha virt. eigenvalues --    2.45696   2.45716   2.48820   2.52363   2.53033
 Alpha virt. eigenvalues --    2.54093   2.56667   2.57691   2.58345   2.59511
 Alpha virt. eigenvalues --    2.59807   2.61294   2.61907   2.63476   2.63586
 Alpha virt. eigenvalues --    2.64720   2.64990   2.65262   2.65410   2.67502
 Alpha virt. eigenvalues --    2.67785   2.70495   2.70819   2.73174   2.74662
 Alpha virt. eigenvalues --    2.76138   2.77834   2.79564   2.81915   2.82876
 Alpha virt. eigenvalues --    2.83931   2.86065   2.91767   2.96764   2.99191
 Alpha virt. eigenvalues --    2.99736   3.04328   3.09792   3.10566   3.12226
 Alpha virt. eigenvalues --    3.20120   3.22790   3.25979   3.27557   3.30039
 Alpha virt. eigenvalues --    3.32030   3.32627   3.42708   3.45164   3.45693
 Alpha virt. eigenvalues --    3.47465   3.48913   3.55800   3.65843   3.66074
 Alpha virt. eigenvalues --    3.66814   3.93640   3.94122   3.94718   3.95792
 Alpha virt. eigenvalues --    4.03447   4.06371   4.07099   4.12044   4.35152
 Alpha virt. eigenvalues --    4.60555   4.69148   4.70975  23.45149  23.60091
 Alpha virt. eigenvalues --   23.81426  23.84443  23.86864  23.88317  23.89785
 Alpha virt. eigenvalues --   23.91504  23.96350  23.97883  23.98733  23.99558
 Alpha virt. eigenvalues --   24.09163  24.09331
     Molecular Orbital Coefficients:
                          43        44        45        46        47
                           O         O         O         O         O
     Eigenvalues --    -0.54772  -0.52330  -0.46575  -0.45995  -0.44436
   1 1   C  1S         -0.00134  -0.00000  -0.00000   0.00000   0.00000
   2        2S         -0.00220  -0.00000  -0.00000   0.00000   0.00000
   3        2PX        -0.08573  -0.00000  -0.00000  -0.00000   0.00000
   4        2PY        -0.02253  -0.00000  -0.00000   0.00000  -0.00000
   5        2PZ         0.00000  -0.07410  -0.10996   0.02014   0.08623
   6        3S          0.00572   0.00000   0.00000  -0.00000  -0.00000
   7        3PX        -0.12117  -0.00000  -0.00000  -0.00000   0.00000
   8        3PY        -0.03281  -0.00000  -0.00000  -0.00000  -0.00000
   9        3PZ         0.00000  -0.11922  -0.17941   0.03272   0.14175
  10        4S         -0.01687   0.00000  -0.00000  -0.00000  -0.00000
  11        4PX        -0.08351   0.00000   0.00000   0.00000   0.00000
  12        4PY        -0.04286   0.00000  -0.00000  -0.00000   0.00000
  13        4PZ         0.00000  -0.09859  -0.15699   0.03138   0.12714
  14        5S          0.10987  -0.00000  -0.00001  -0.00001  -0.00000
  15        5PX         0.12008   0.00000   0.00001   0.00001   0.00000
  16        5PY         0.00763   0.00000   0.00000   0.00000   0.00000
  17        5PZ         0.00000  -0.00089  -0.04262  -0.00369   0.01865
  18        6D 0        0.00032   0.00000  -0.00000  -0.00000   0.00000
  19        6D+1       -0.00000  -0.00864   0.00505   0.01640  -0.00430
  20        6D-1        0.00000  -0.00754  -0.00689   0.00175   0.00589
  21        6D+2       -0.00758  -0.00000  -0.00000  -0.00000   0.00000
  22        6D-2       -0.01104  -0.00000   0.00000   0.00000   0.00000
  23 2   C  1S          0.00211   0.00000   0.00000   0.00000  -0.00000
  24        2S          0.00350   0.00000   0.00000   0.00000  -0.00000
  25        2PX         0.07714   0.00000   0.00000   0.00000  -0.00000
  26        2PY         0.03185   0.00000   0.00000   0.00000  -0.00000
  27        2PZ        -0.00000  -0.10182  -0.03080   0.09804   0.01494
  28        3S         -0.01196  -0.00000  -0.00000  -0.00000   0.00000
  29        3PX         0.11073   0.00000   0.00000   0.00000  -0.00000
  30        3PY         0.04505   0.00000   0.00000   0.00000  -0.00000
  31        3PZ        -0.00000  -0.16779  -0.05121   0.16116   0.02444
  32        4S          0.02353  -0.00000   0.00000   0.00000  -0.00000
  33        4PX         0.07330   0.00000  -0.00000  -0.00000  -0.00000
  34        4PY         0.01970   0.00000   0.00000   0.00000   0.00000
  35        4PZ        -0.00000  -0.12707  -0.04209   0.13758   0.02265
  36        5S         -0.10611   0.00000  -0.00000  -0.00000  -0.00000
  37        5PX         0.04394  -0.00000   0.00000   0.00000   0.00000
  38        5PY         0.07371   0.00000   0.00000   0.00000   0.00000
  39        5PZ        -0.00000  -0.00083   0.01569   0.00766   0.00847
  40        6D 0       -0.00006   0.00000   0.00000   0.00000   0.00000
  41        6D+1       -0.00000   0.00923   0.01089  -0.00312  -0.00872
  42        6D-1       -0.00000  -0.00548   0.01460   0.00888  -0.01325
  43        6D+2       -0.00009   0.00000   0.00000   0.00000  -0.00000
  44        6D-2       -0.01547  -0.00000   0.00000   0.00000   0.00000
  45 3   C  1S         -0.00083  -0.00000   0.00000   0.00000  -0.00000
  46        2S         -0.00140  -0.00000   0.00000   0.00000  -0.00000
  47        2PX        -0.06959  -0.00000  -0.00000  -0.00000   0.00000
  48        2PY        -0.02145  -0.00000  -0.00000  -0.00000   0.00000
  49        2PZ        -0.00000  -0.07600   0.07606   0.08447  -0.07345
  50        3S          0.00633   0.00000   0.00000  -0.00000   0.00000
  51        3PX        -0.10022  -0.00000   0.00000   0.00000   0.00000
  52        3PY        -0.03100  -0.00000  -0.00000  -0.00000   0.00000
  53        3PZ        -0.00000  -0.12369   0.12536   0.13767  -0.12074
  54        4S         -0.02382   0.00000  -0.00000  -0.00000   0.00000
  55        4PX        -0.07693  -0.00000   0.00000   0.00000  -0.00000
  56        4PY        -0.02891  -0.00000   0.00000   0.00000   0.00000
  57        4PZ        -0.00000  -0.09735   0.10780   0.12167  -0.10674
  58        5S         -0.03195  -0.00000  -0.00001  -0.00001  -0.00000
  59        5PX        -0.02487   0.00000  -0.00000  -0.00000   0.00000
  60        5PY         0.05723   0.00000   0.00000   0.00000   0.00000
  61        5PZ         0.00000  -0.00899  -0.01003   0.01764  -0.01678
  62        6D 0       -0.00036  -0.00000   0.00000   0.00000   0.00000
  63        6D+1        0.00000   0.00306  -0.01130  -0.00032   0.00838
  64        6D-1       -0.00000   0.01127   0.00875  -0.01173  -0.00556
  65        6D+2       -0.00678  -0.00000  -0.00000  -0.00000   0.00000
  66        6D-2       -0.01735  -0.00000  -0.00000  -0.00000   0.00000
  67 4   C  1S          0.00156   0.00000   0.00000   0.00000  -0.00000
  68        2S          0.00258   0.00000   0.00000   0.00000  -0.00000
  69        2PX         0.08254   0.00000   0.00000   0.00000  -0.00000
  70        2PY         0.02236   0.00000   0.00000   0.00000  -0.00000
  71        2PZ        -0.00000  -0.01041   0.11236  -0.00968  -0.08298
  72        3S         -0.00910  -0.00000  -0.00000  -0.00000   0.00000
  73        3PX         0.11722   0.00000   0.00000   0.00000  -0.00000
  74        3PY         0.03235   0.00000   0.00000   0.00000  -0.00000
  75        3PZ        -0.00000  -0.01569   0.18421  -0.01552  -0.13489
  76        4S          0.04054  -0.00000   0.00000   0.00000   0.00000
  77        4PX         0.06136   0.00000  -0.00000  -0.00000  -0.00000
  78        4PY         0.01601   0.00000  -0.00000  -0.00000  -0.00000
  79        4PZ        -0.00000  -0.02070   0.16101  -0.00652  -0.13364
  80        5S          0.22169  -0.00000   0.00000   0.00000  -0.00000
  81        5PX        -0.09606   0.00000  -0.00000  -0.00000   0.00000
  82        5PY        -0.05086   0.00000  -0.00000  -0.00000   0.00000
  83        5PZ        -0.00000   0.01549   0.03974  -0.02224  -0.01395
  84        6D 0       -0.00039   0.00000   0.00000  -0.00000   0.00000
  85        6D+1        0.00000  -0.01355   0.00296   0.01837  -0.00701
  86        6D-1        0.00000   0.00309  -0.00675  -0.00009   0.00461
  87        6D+2       -0.00691  -0.00000  -0.00000  -0.00000   0.00000
  88        6D-2       -0.00976  -0.00000   0.00000   0.00000  -0.00000
  89 5   C  1S          0.00055  -0.00000   0.00000   0.00000   0.00000
  90        2S          0.00091  -0.00000   0.00000   0.00000   0.00000
  91        2PX         0.07883   0.00000  -0.00000  -0.00000  -0.00000
  92        2PY         0.00286  -0.00000   0.00000   0.00000   0.00000
  93        2PZ        -0.00000  -0.01182  -0.09414   0.02039  -0.10241
  94        3S         -0.00205   0.00000  -0.00000  -0.00000  -0.00000
  95        3PX         0.11182   0.00000   0.00000  -0.00000  -0.00000
  96        3PY         0.00394  -0.00000   0.00000   0.00000   0.00000
  97        3PZ        -0.00000  -0.01809  -0.15447   0.03285  -0.16679
  98        4S         -0.03825   0.00000   0.00000   0.00000   0.00000
  99        4PX         0.06915   0.00000   0.00000   0.00000  -0.00000
 100        4PY         0.01495  -0.00000  -0.00000  -0.00000  -0.00000
 101        4PZ        -0.00000  -0.02273  -0.13270   0.02208  -0.16324
 102        5S         -0.22180   0.00000   0.00000   0.00000   0.00000
 103        5PX        -0.11209   0.00000   0.00000   0.00000   0.00000
 104        5PY         0.04686  -0.00000  -0.00000  -0.00000  -0.00000
 105        5PZ        -0.00000   0.01447  -0.03716   0.02364  -0.02010
 106        6D 0        0.00020  -0.00000   0.00000   0.00000  -0.00000
 107        6D+1       -0.00000   0.01312   0.00104   0.01774   0.00909
 108        6D-1        0.00000   0.00318   0.00559  -0.00062   0.00564
 109        6D+2       -0.00002   0.00000  -0.00000  -0.00000  -0.00000
 110        6D-2       -0.00994  -0.00000  -0.00000  -0.00000  -0.00000
 111 6   C  1S          0.00036   0.00000   0.00000   0.00000   0.00000
 112        2S          0.00060   0.00000   0.00000   0.00000   0.00000
 113        2PX        -0.07161  -0.00000  -0.00000  -0.00000   0.00000
 114        2PY        -0.00309   0.00000  -0.00000  -0.00000  -0.00000
 115        2PZ        -0.00000  -0.07682  -0.05794  -0.07766  -0.09493
 116        3S         -0.00397  -0.00000   0.00000   0.00000  -0.00000
 117        3PX        -0.10310  -0.00000  -0.00000  -0.00000   0.00000
 118        3PY        -0.00410   0.00000  -0.00000  -0.00000  -0.00000
 119        3PZ        -0.00000  -0.12497  -0.09564  -0.12633  -0.15604
 120        4S          0.02677  -0.00000  -0.00000  -0.00000  -0.00000
 121        4PX        -0.07361  -0.00000  -0.00000  -0.00000  -0.00000
 122        4PY         0.00849   0.00000   0.00000   0.00000  -0.00000
 123        4PZ        -0.00000  -0.09791  -0.08251  -0.11134  -0.13839
 124        5S          0.00664   0.00000  -0.00001  -0.00001  -0.00000
 125        5PX        -0.03376   0.00000   0.00000   0.00000   0.00000
 126        5PY        -0.06417  -0.00000   0.00000   0.00000   0.00000
 127        5PZ         0.00000  -0.00833   0.01300  -0.01596  -0.01635
 128        6D 0        0.00021   0.00000   0.00000   0.00000  -0.00000
 129        6D+1       -0.00000  -0.00315  -0.00929   0.00075  -0.01029
 130        6D-1       -0.00000   0.01131  -0.00765   0.01263  -0.00595
 131        6D+2        0.00215   0.00000  -0.00000  -0.00000  -0.00000
 132        6D-2       -0.01637  -0.00000  -0.00000  -0.00000   0.00000
 133 7   C  1S         -0.00247  -0.00000  -0.00000  -0.00000   0.00000
 134        2S         -0.00411  -0.00000  -0.00000  -0.00000   0.00000
 135        2PX         0.07897   0.00000   0.00000   0.00000  -0.00000
 136        2PY        -0.00644  -0.00000   0.00000   0.00000   0.00000
 137        2PZ        -0.00000  -0.10213   0.02890  -0.10137   0.01081
 138        3S          0.01401   0.00000   0.00000   0.00000  -0.00000
 139        3PX         0.11382   0.00000   0.00000   0.00000  -0.00000
 140        3PY        -0.00891  -0.00000   0.00000   0.00000   0.00000
 141        3PZ        -0.00000  -0.16823   0.04814  -0.16657   0.01782
 142        4S         -0.01760   0.00000   0.00000   0.00000   0.00000
 143        4PX         0.08115   0.00000   0.00000   0.00000  -0.00000
 144        4PY         0.00471  -0.00000   0.00000   0.00000   0.00000
 145        4PZ        -0.00000  -0.12684   0.03911  -0.14179   0.01643
 146        5S          0.13219  -0.00000  -0.00000  -0.00000   0.00000
 147        5PX         0.05427  -0.00000  -0.00000  -0.00000  -0.00000
 148        5PY        -0.08018  -0.00000   0.00000   0.00000   0.00000
 149        5PZ        -0.00000  -0.00141  -0.01694  -0.00856   0.00389
 150        6D 0       -0.00008  -0.00000   0.00000   0.00000  -0.00000
 151        6D+1        0.00000  -0.00934   0.00896  -0.00431   0.01037
 152        6D-1       -0.00000  -0.00556  -0.01151  -0.00754  -0.01680
 153        6D+2       -0.00435  -0.00000  -0.00000  -0.00000   0.00000
 154        6D-2       -0.01732  -0.00000  -0.00000  -0.00000   0.00000
 155 8   C  1S          0.00252   0.00000   0.00000   0.00000  -0.00000
 156        2S          0.00414   0.00000   0.00000   0.00000  -0.00000
 157        2PX        -0.09231  -0.00000  -0.00000  -0.00000   0.00000
 158        2PY        -0.00170   0.00000  -0.00000  -0.00000   0.00000
 159        2PZ         0.00000  -0.07465   0.09077  -0.03125   0.10446
 160        3S         -0.01227  -0.00000   0.00000  -0.00000   0.00000
 161        3PX        -0.13126  -0.00000  -0.00000   0.00000   0.00000
 162        3PY        -0.00212   0.00000  -0.00000  -0.00000   0.00000
 163        3PZ         0.00000  -0.12002   0.14783  -0.05079   0.17140
 164        4S          0.01836  -0.00000  -0.00000  -0.00000  -0.00000
 165        4PX        -0.08118   0.00000  -0.00000  -0.00000   0.00000
 166        4PY         0.00849  -0.00000  -0.00000  -0.00000  -0.00000
 167        4PZ         0.00000  -0.09908   0.12972  -0.04706   0.15381
 168        5S         -0.10133   0.00000  -0.00001  -0.00001   0.00000
 169        5PX         0.14083   0.00000  -0.00001  -0.00001  -0.00000
 170        5PY        -0.01376  -0.00000   0.00000   0.00000   0.00000
 171        5PZ         0.00000  -0.00032   0.03831   0.00161   0.02774
 172        6D 0       -0.00034  -0.00000  -0.00000  -0.00000  -0.00000
 173        6D+1        0.00000   0.00854   0.00374   0.01603   0.00685
 174        6D-1        0.00000  -0.00764   0.00543  -0.00256   0.00677
 175        6D+2        0.00022   0.00000   0.00000   0.00000  -0.00000
 176        6D-2       -0.01108  -0.00000  -0.00000  -0.00000   0.00000
 177 9   C  1S          0.00150   0.00000  -0.00000  -0.00000  -0.00000
 178        2S          0.00250   0.00000  -0.00000  -0.00000  -0.00000
 179        2PX        -0.10105  -0.00000  -0.00000  -0.00000   0.00000
 180        2PY        -0.01417   0.00000  -0.00000  -0.00000  -0.00000
 181        2PZ         0.00000   0.00637   0.00673   0.00268  -0.06060
 182        3S         -0.00797  -0.00000   0.00000   0.00000   0.00000
 183        3PX        -0.15181  -0.00000  -0.00000  -0.00000   0.00000
 184        3PY        -0.02105   0.00000  -0.00000  -0.00000  -0.00000
 185        3PZ         0.00000   0.00725   0.01022   0.00413  -0.09247
 186        4S         -0.00025   0.00000   0.00000   0.00000   0.00000
 187        4PX        -0.10316   0.00000  -0.00000  -0.00000  -0.00000
 188        4PY        -0.02076   0.00000  -0.00000  -0.00000  -0.00000
 189        4PZ         0.00000   0.04319   0.00989   0.00405  -0.09305
 190        5S          0.00144   0.00000   0.00001   0.00001   0.00000
 191        5PX         0.38521  -0.00000   0.00000   0.00000  -0.00000
 192        5PY        -0.00267   0.00000   0.00000   0.00000   0.00000
 193        5PZ         0.00000   0.06965  -0.01039  -0.00449   0.09304
 194        6D 0        0.00143   0.00000   0.00000  -0.00000  -0.00000
 195        6D+1        0.00000   0.00009  -0.01348  -0.01274  -0.00198
 196        6D-1       -0.00000  -0.00032  -0.00183  -0.00068   0.01813
 197        6D+2       -0.00332  -0.00000  -0.00000  -0.00000   0.00000
 198        6D-2       -0.01066  -0.00000  -0.00000  -0.00000   0.00000
 199 10  C  1S          0.00192   0.00000  -0.00000  -0.00000  -0.00000
 200        2S          0.00318   0.00000  -0.00000  -0.00000  -0.00000
 201        2PX         0.07600   0.00000   0.00000   0.00000  -0.00000
 202        2PY         0.01100   0.00000   0.00000   0.00000  -0.00000
 203        2PZ        -0.00000   0.10340  -0.00158  -0.00185   0.01697
 204        3S         -0.00979  -0.00000   0.00000   0.00000   0.00000
 205        3PX         0.10914   0.00000   0.00000   0.00000  -0.00000
 206        3PY         0.01576   0.00000   0.00000   0.00000   0.00000
 207        3PZ        -0.00000   0.16855  -0.00271  -0.00302   0.02880
 208        4S         -0.00899  -0.00000  -0.00000  -0.00000  -0.00000
 209        4PX         0.08667  -0.00000   0.00000   0.00000  -0.00000
 210        4PY         0.01897   0.00000   0.00000   0.00000   0.00000
 211        4PZ        -0.00000   0.13990  -0.00191  -0.00220   0.02064
 212        5S         -0.00094   0.00000   0.00001   0.00001   0.00000
 213        5PX        -0.29296   0.00000  -0.00000  -0.00000   0.00000
 214        5PY         0.00126  -0.00000   0.00000   0.00000   0.00000
 215        5PZ        -0.00000   0.01430   0.00601   0.00306  -0.05951
 216        6D 0       -0.00029   0.00000   0.00000   0.00000   0.00000
 217        6D+1       -0.00000   0.00053   0.00955  -0.02217  -0.00013
 218        6D-1        0.00000  -0.00926   0.00042   0.00026  -0.00422
 219        6D+2       -0.00418   0.00000  -0.00000  -0.00000  -0.00000
 220        6D-2       -0.01028  -0.00000  -0.00000  -0.00000   0.00000
 221 11  C  1S          0.00122   0.00000   0.00000   0.00000  -0.00000
 222        2S          0.00201   0.00000   0.00000   0.00000  -0.00000
 223        2PX         0.08522   0.00000   0.00000   0.00000  -0.00000
 224        2PY         0.03259   0.00000   0.00000   0.00000  -0.00000
 225        2PZ         0.00000  -0.00320  -0.08348  -0.08017   0.06597
 226        3S         -0.00545  -0.00000  -0.00000   0.00000   0.00000
 227        3PX         0.12528   0.00000   0.00000   0.00000  -0.00000
 228        3PY         0.04830   0.00000   0.00000   0.00000  -0.00000
 229        3PZ         0.00000  -0.00419  -0.13553  -0.13281   0.10759
 230        4S         -0.02004  -0.00000  -0.00000  -0.00000   0.00000
 231        4PX         0.12035   0.00000   0.00000   0.00000  -0.00000
 232        4PY         0.02919   0.00000   0.00000   0.00000  -0.00000
 233        4PZ         0.00000  -0.01778  -0.14127  -0.11673   0.10869
 234        5S          0.09161  -0.00000  -0.00001  -0.00001  -0.00000
 235        5PX         0.17056  -0.00000   0.00000   0.00000  -0.00000
 236        5PY         0.29066  -0.00000  -0.00001  -0.00001  -0.00001
 237        5PZ        -0.00000  -0.01595   0.04529  -0.00392  -0.06679
 238        6D 0       -0.00041   0.00000  -0.00000  -0.00000   0.00000
 239        6D+1       -0.00000  -0.00962  -0.01094   0.00299   0.01210
 240        6D-1       -0.00000   0.01090   0.00974  -0.01200   0.00056
 241        6D+2       -0.00395   0.00000  -0.00000  -0.00000   0.00000
 242        6D-2       -0.01923  -0.00000  -0.00000  -0.00000   0.00000
 243 12  C  1S          0.00023   0.00000  -0.00000  -0.00000   0.00000
 244        2S          0.00041   0.00000  -0.00000  -0.00000   0.00000
 245        2PX        -0.07384  -0.00000  -0.00000  -0.00000   0.00000
 246        2PY        -0.03072  -0.00000  -0.00000  -0.00000   0.00000
 247        2PZ        -0.00000   0.06697   0.03725  -0.10520   0.00535
 248        3S         -0.00112  -0.00000   0.00000   0.00000  -0.00000
 249        3PX        -0.10620  -0.00000  -0.00000  -0.00000   0.00000
 250        3PY        -0.04447  -0.00000  -0.00000  -0.00000   0.00000
 251        3PZ        -0.00000   0.10995   0.05933  -0.17323   0.00697
 252        4S         -0.02376   0.00000   0.00000  -0.00000   0.00000
 253        4PX        -0.10733  -0.00000  -0.00000  -0.00000   0.00000
 254        4PY        -0.05555   0.00000  -0.00000   0.00000   0.00000
 255        4PZ        -0.00000   0.09999   0.06981  -0.16894   0.01532
 256        5S         -0.28711   0.00000   0.00002   0.00002   0.00001
 257        5PX        -0.30087   0.00000  -0.00000  -0.00000   0.00000
 258        5PY         0.20955  -0.00000  -0.00001  -0.00001  -0.00000
 259        5PZ         0.00000  -0.01571  -0.04747   0.01357   0.06792
 260        6D 0       -0.00006   0.00000  -0.00000  -0.00000  -0.00000
 261        6D+1        0.00000  -0.01242   0.01018   0.00078  -0.01021
 262        6D-1       -0.00000   0.00495   0.01550   0.00648  -0.01157
 263        6D+2       -0.00397  -0.00000  -0.00000  -0.00000   0.00000
 264        6D-2       -0.01742  -0.00000  -0.00000  -0.00000   0.00000
 265 13  C  1S         -0.00019  -0.00000  -0.00000  -0.00000   0.00000
 266        2S         -0.00030  -0.00000  -0.00000  -0.00000   0.00000
 267        2PX         0.08572   0.00000   0.00000  -0.00000  -0.00000
 268        2PY         0.00559  -0.00000   0.00000   0.00000   0.00000
 269        2PZ         0.00000  -0.00445   0.06687   0.07362   0.08953
 270        3S          0.00024   0.00000   0.00000   0.00000  -0.00000
 271        3PX         0.12555   0.00000   0.00000  -0.00000  -0.00000
 272        3PY         0.00730  -0.00000   0.00000   0.00000   0.00000
 273        3PZ         0.00000  -0.00645   0.10847   0.12198   0.14610
 274        4S          0.00740   0.00000  -0.00000  -0.00000  -0.00000
 275        4PX         0.12038   0.00000  -0.00000  -0.00000  -0.00000
 276        4PY         0.01581  -0.00000   0.00000   0.00000   0.00000
 277        4PZ         0.00000  -0.01951   0.11544   0.10564   0.14889
 278        5S         -0.07859   0.00000  -0.00001  -0.00001  -0.00000
 279        5PX         0.18753  -0.00000  -0.00000  -0.00000  -0.00000
 280        5PY        -0.26121   0.00000  -0.00001  -0.00001   0.00000
 281        5PZ        -0.00000  -0.01661  -0.02994   0.01112  -0.07185
 282        6D 0        0.00041  -0.00000  -0.00000  -0.00000  -0.00000
 283        6D+1        0.00000   0.00952  -0.00809   0.00436  -0.01347
 284        6D-1       -0.00000   0.01044  -0.00993   0.01227  -0.00017
 285        6D+2       -0.00290  -0.00000  -0.00000  -0.00000  -0.00000
 286        6D-2       -0.01856  -0.00000   0.00000   0.00000   0.00000
 287 14  C  1S         -0.00135  -0.00000  -0.00000  -0.00000  -0.00000
 288        2S         -0.00230  -0.00000  -0.00000  -0.00000  -0.00000
 289        2PX        -0.07139  -0.00000  -0.00000   0.00000   0.00000
 290        2PY        -0.00537   0.00000  -0.00000  -0.00000  -0.00000
 291        2PZ        -0.00000   0.06257  -0.03963   0.10572   0.00800
 292        3S          0.00670   0.00000   0.00000   0.00000   0.00000
 293        3PX        -0.10252  -0.00000  -0.00000  -0.00000   0.00000
 294        3PY        -0.00777   0.00000  -0.00000  -0.00000  -0.00000
 295        3PZ        -0.00000   0.10281  -0.06290   0.17413   0.01185
 296        4S          0.02034  -0.00000   0.00000  -0.00000  -0.00000
 297        4PX        -0.09541  -0.00000   0.00000   0.00000   0.00000
 298        4PY         0.01320  -0.00000   0.00000   0.00000  -0.00000
 299        4PZ        -0.00000   0.09358  -0.07451   0.16890   0.01709
 300        5S          0.26118  -0.00000   0.00002   0.00002   0.00000
 301        5PX        -0.31631   0.00000  -0.00000  -0.00000   0.00000
 302        5PY        -0.18782   0.00000  -0.00001  -0.00001   0.00000
 303        5PZ         0.00000  -0.01476   0.03339  -0.02079   0.07334
 304        6D 0        0.00005  -0.00000  -0.00000  -0.00000   0.00000
 305        6D+1       -0.00000   0.01243   0.00807  -0.00058   0.01214
 306        6D-1       -0.00000   0.00482  -0.01293  -0.00538  -0.01536
 307        6D+2       -0.00234   0.00000   0.00000   0.00000  -0.00000
 308        6D-2       -0.01758  -0.00000   0.00000   0.00000   0.00000
 309 15  H  1S          0.02519   0.00000   0.00000   0.00000  -0.00000
 310        2S          0.03501   0.00000   0.00000  -0.00000  -0.00000
 311        3S          0.01378  -0.00000  -0.00000  -0.00000  -0.00000
 312        4S         -0.01347   0.00000   0.00000   0.00000   0.00000
 313        5PX        -0.00461  -0.00000  -0.00000  -0.00000   0.00000
 314        5PY         0.00178   0.00000  -0.00000  -0.00000   0.00000
 315        5PZ         0.00000  -0.00475  -0.00776   0.00142   0.00586
 316 16  H  1S          0.04760   0.00000   0.00000   0.00000  -0.00000
 317        2S          0.06922   0.00000   0.00000   0.00000  -0.00000
 318        3S          0.02829  -0.00000   0.00000   0.00000  -0.00000
 319        4S          0.00817   0.00000   0.00000   0.00000  -0.00000
 320        5PX        -0.00098  -0.00000  -0.00000  -0.00000  -0.00000
 321        5PY         0.00481   0.00000   0.00000   0.00000  -0.00000
 322        5PZ        -0.00000  -0.00652  -0.00216   0.00669   0.00100
 323 17  H  1S         -0.06843  -0.00000  -0.00000  -0.00000   0.00000
 324        2S         -0.09922  -0.00000  -0.00000  -0.00000   0.00000
 325        3S         -0.03759   0.00000  -0.00000  -0.00000   0.00000
 326        4S         -0.00573   0.00000  -0.00000  -0.00000   0.00000
 327        5PX         0.00370   0.00000   0.00000   0.00000  -0.00000
 328        5PY         0.00341   0.00000   0.00000   0.00000  -0.00000
 329        5PZ        -0.00000  -0.00485   0.00531   0.00576  -0.00526
 330 18  H  1S          0.02184   0.00000   0.00000   0.00000  -0.00000
 331        2S          0.03220   0.00000   0.00000   0.00000  -0.00000
 332        3S          0.01689   0.00000   0.00000   0.00000  -0.00000
 333        4S          0.01958   0.00000   0.00000   0.00000  -0.00000
 334        5PX         0.00426   0.00000   0.00000   0.00000  -0.00000
 335        5PY        -0.00104  -0.00000  -0.00000  -0.00000   0.00000
 336        5PZ        -0.00000  -0.00013   0.00801  -0.00080  -0.00570
 337 19  H  1S          0.01030  -0.00000   0.00000   0.00000   0.00000
 338        2S          0.01486   0.00000   0.00000   0.00000  -0.00000
 339        3S          0.00718  -0.00000  -0.00000  -0.00000  -0.00000
 340        4S          0.00110   0.00000  -0.00000  -0.00000  -0.00000
 341        5PX         0.00425   0.00000   0.00000   0.00000  -0.00000
 342        5PY        -0.00026  -0.00000   0.00000   0.00000   0.00000
 343        5PZ        -0.00000   0.00646  -0.00005  -0.00009   0.00059
 344 20  H  1S          0.00172  -0.00000   0.00000   0.00000   0.00000
 345        2S          0.00239  -0.00000   0.00000   0.00000   0.00000
 346        3S         -0.00048  -0.00000   0.00000   0.00000   0.00000
 347        4S         -0.01746  -0.00000   0.00000   0.00000   0.00000
 348        5PX         0.00442   0.00000  -0.00000  -0.00000  -0.00000
 349        5PY        -0.00034   0.00000  -0.00000  -0.00000  -0.00000
 350        5PZ        -0.00000  -0.00023  -0.00678   0.00152  -0.00713
 351 21  H  1S          0.05794   0.00000   0.00000   0.00000  -0.00000
 352        2S          0.08356   0.00000  -0.00000  -0.00000  -0.00000
 353        3S          0.03225  -0.00000  -0.00000   0.00000  -0.00000
 354        4S          0.00577  -0.00000  -0.00000  -0.00000  -0.00000
 355        5PX         0.00238   0.00000  -0.00000  -0.00000  -0.00000
 356        5PY        -0.00416  -0.00000  -0.00000  -0.00000   0.00000
 357        5PZ        -0.00000  -0.00490  -0.00405  -0.00527  -0.00679
 358 22  H  1S         -0.06123  -0.00000  -0.00000  -0.00000   0.00000
 359        2S         -0.08905  -0.00000   0.00000   0.00000   0.00000
 360        3S         -0.03468   0.00000   0.00000   0.00000   0.00000
 361        4S         -0.00720  -0.00000   0.00000   0.00000   0.00000
 362        5PX        -0.00240  -0.00000   0.00000   0.00000  -0.00000
 363        5PY        -0.00426  -0.00000  -0.00000  -0.00000   0.00000
 364        5PZ        -0.00000  -0.00655   0.00205  -0.00693   0.00073
 365 23  H  1S         -0.00130  -0.00000   0.00000   0.00000   0.00000
 366        2S         -0.00087  -0.00000   0.00000  -0.00000   0.00000
 367        3S          0.00017   0.00000  -0.00000  -0.00000   0.00000
 368        4S          0.01366  -0.00000   0.00000   0.00000   0.00000
 369        5PX        -0.00463  -0.00000   0.00000   0.00000   0.00000
 370        5PY        -0.00047  -0.00000  -0.00000  -0.00000  -0.00000
 371        5PZ         0.00000  -0.00478   0.00648  -0.00216   0.00720
 372 24  H  1S          0.00812   0.00339   0.00620   0.00245  -0.05668
 373        2S          0.01153  -0.00418   0.00969   0.00380  -0.09005
 374        3S          0.00515  -0.02571   0.00783   0.00303  -0.07513
 375        4S         -0.00036  -0.04570   0.00428   0.00159  -0.04076
 376        5PX        -0.00503   0.00001  -0.00236  -0.00113  -0.00042
 377        5PY        -0.00016  -0.00088   0.00041   0.00016  -0.00334
 378        5PZ        -0.00074  -0.00012  -0.00018  -0.00006   0.00164
 379 25  H  1S          0.00812  -0.00339  -0.00620  -0.00245   0.05668
 380        2S          0.01153   0.00418  -0.00969  -0.00380   0.09005
 381        3S          0.00515   0.02571  -0.00784  -0.00303   0.07513
 382        4S         -0.00036   0.04570  -0.00428  -0.00159   0.04076
 383        5PX        -0.00503  -0.00001   0.00236   0.00113   0.00042
 384        5PY        -0.00016   0.00088  -0.00041  -0.00016   0.00334
 385        5PZ         0.00074  -0.00012  -0.00018  -0.00006   0.00164
                          48        49        50        51        52
                           V         V         V         V         V
     Eigenvalues --    -0.26104  -0.14709  -0.14147  -0.12842  -0.11167
   1 1   C  1S          0.00000   0.00000  -0.00000   0.00000  -0.00642
   2        2S          0.00000   0.00000  -0.00000   0.00000  -0.01088
   3        2PX        -0.00000  -0.00000  -0.00000  -0.00000   0.00351
   4        2PY         0.00000   0.00000  -0.00000   0.00000  -0.01568
   5        2PZ        -0.00433   0.09474  -0.00114   0.10960   0.00000
   6        3S         -0.00000  -0.00000  -0.00000  -0.00000   0.03526
   7        3PX        -0.00000   0.00000   0.00000   0.00000   0.00336
   8        3PY         0.00000   0.00000   0.00000   0.00000  -0.02301
   9        3PZ        -0.00649   0.14562  -0.00216   0.17363   0.00000
  10        4S         -0.00000  -0.00000   0.00000   0.00000   0.03381
  11        4PX        -0.00000  -0.00000  -0.00000  -0.00000   0.02622
  12        4PY        -0.00000  -0.00000   0.00000   0.00000  -0.08124
  13        4PZ        -0.00555   0.27560  -0.01171   0.31101   0.00000
  14        5S         -0.00000   0.00000   0.00003   0.00002  -1.77999
  15        5PX         0.00000  -0.00001  -0.00003  -0.00003   1.03473
  16        5PY         0.00000  -0.00000  -0.00000  -0.00000  -0.46879
  17        5PZ         0.01096   0.20508  -0.04099   0.35902   0.00000
  18        6D 0       -0.00000  -0.00000   0.00000  -0.00000  -0.00575
  19        6D+1        0.01811   0.00450  -0.02623   0.00266  -0.00000
  20        6D-1       -0.00187  -0.00856  -0.00065  -0.00908   0.00000
  21        6D+2       -0.00000  -0.00000  -0.00000  -0.00000   0.00160
  22        6D-2       -0.00000   0.00000  -0.00000  -0.00000  -0.00135
  23 2   C  1S          0.00000   0.00000   0.00000   0.00000  -0.00518
  24        2S          0.00000   0.00000   0.00000   0.00000  -0.00861
  25        2PX         0.00000  -0.00000   0.00000  -0.00000   0.00784
  26        2PY         0.00000   0.00000   0.00000  -0.00000  -0.00094
  27        2PZ         0.08725  -0.02784  -0.09976  -0.04632  -0.00000
  28        3S         -0.00000  -0.00000  -0.00000  -0.00000   0.02497
  29        3PX         0.00000  -0.00000   0.00000  -0.00000   0.01292
  30        3PY         0.00000  -0.00000   0.00000  -0.00000  -0.00322
  31        3PZ         0.14288  -0.04318  -0.15886  -0.07295  -0.00000
  32        4S          0.00000   0.00000  -0.00000   0.00000   0.11763
  33        4PX        -0.00000  -0.00000   0.00000  -0.00000   0.00162
  34        4PY         0.00000  -0.00000  -0.00000  -0.00000   0.01097
  35        4PZ         0.16684  -0.07992  -0.26501  -0.12909  -0.00000
  36        5S          0.00000   0.00000   0.00001   0.00001   0.35131
  37        5PX        -0.00000  -0.00000  -0.00001  -0.00001   0.30513
  38        5PY         0.00000  -0.00000  -0.00002  -0.00002   0.43107
  39        5PZ         0.05297  -0.06281  -0.21745  -0.13653  -0.00000
  40        6D 0       -0.00000  -0.00000  -0.00000   0.00000  -0.00387
  41        6D+1        0.00192  -0.01220   0.00006  -0.01506  -0.00000
  42        6D-1        0.00088  -0.01887   0.01396  -0.01998  -0.00000
  43        6D+2        0.00000   0.00000  -0.00000   0.00000  -0.00224
  44        6D-2       -0.00000  -0.00000  -0.00000  -0.00000   0.00423
  45 3   C  1S          0.00000   0.00000  -0.00000   0.00000  -0.00444
  46        2S          0.00000   0.00000  -0.00000   0.00000  -0.00737
  47        2PX        -0.00000   0.00000  -0.00000   0.00000   0.00842
  48        2PY         0.00000   0.00000  -0.00000   0.00000   0.00104
  49        2PZ         0.01005  -0.07401   0.08847  -0.06819   0.00000
  50        3S         -0.00000  -0.00000  -0.00000  -0.00000   0.02130
  51        3PX         0.00000   0.00000  -0.00000  -0.00000   0.01445
  52        3PY         0.00000   0.00000   0.00000   0.00000   0.00255
  53        3PZ         0.01805  -0.11622   0.14035  -0.10693   0.00000
  54        4S         -0.00000  -0.00000   0.00000   0.00000   0.07942
  55        4PX         0.00000   0.00000  -0.00000  -0.00000   0.01692
  56        4PY         0.00000   0.00000  -0.00000  -0.00000   0.02189
  57        4PZ         0.01150  -0.20592   0.23910  -0.19093   0.00000
  58        5S         -0.00000   0.00001   0.00003   0.00002   0.26185
  59        5PX         0.00000   0.00000   0.00000   0.00000  -0.02127
  60        5PY         0.00000  -0.00000  -0.00001  -0.00001   0.45846
  61        5PZ         0.00174  -0.15763   0.18779  -0.19480   0.00000
  62        6D 0       -0.00000  -0.00000   0.00000   0.00000  -0.00414
  63        6D+1        0.01005  -0.01067  -0.00282  -0.01449  -0.00000
  64        6D-1       -0.01528   0.01068   0.01604   0.01601   0.00000
  65        6D+2       -0.00000  -0.00000   0.00000   0.00000  -0.00270
  66        6D-2       -0.00000   0.00000  -0.00000   0.00000  -0.00391
  67 4   C  1S          0.00000   0.00000  -0.00000   0.00000  -0.00684
  68        2S          0.00000   0.00000  -0.00000   0.00000  -0.01151
  69        2PX         0.00000   0.00000  -0.00000  -0.00000   0.00387
  70        2PY         0.00000   0.00000  -0.00000  -0.00000   0.01781
  71        2PZ        -0.08001   0.08781   0.01782   0.10930   0.00000
  72        3S         -0.00000  -0.00000   0.00000  -0.00000   0.03453
  73        3PX         0.00000   0.00000  -0.00000   0.00000   0.00413
  74        3PY         0.00000   0.00000   0.00000  -0.00000   0.02424
  75        3PZ        -0.12976   0.13463   0.02911   0.17370   0.00000
  76        4S          0.00000   0.00000  -0.00000  -0.00000   0.20652
  77        4PX         0.00000   0.00000   0.00000   0.00000  -0.04839
  78        4PY        -0.00000  -0.00000   0.00000   0.00000   0.03684
  79        4PZ        -0.15074   0.26734   0.05591   0.30592   0.00000
  80        5S         -0.00000   0.00000  -0.00001  -0.00001   1.69806
  81        5PX         0.00000   0.00000   0.00001   0.00001  -0.92141
  82        5PY        -0.00000  -0.00000   0.00000   0.00000   0.68250
  83        5PZ        -0.03696   0.25239   0.10187   0.34868   0.00000
  84        6D 0       -0.00000  -0.00000   0.00000   0.00000  -0.00578
  85        6D+1        0.00119  -0.01015   0.02668  -0.00408   0.00000
  86        6D-1        0.00366   0.00720   0.00072   0.00966   0.00000
  87        6D+2       -0.00000  -0.00000   0.00000  -0.00000   0.00127
  88        6D-2        0.00000   0.00000  -0.00000   0.00000   0.00226
  89 5   C  1S         -0.00000  -0.00000  -0.00000   0.00000  -0.00652
  90        2S         -0.00000  -0.00000  -0.00000   0.00000  -0.01097
  91        2PX         0.00000   0.00000   0.00000   0.00000  -0.00392
  92        2PY        -0.00000  -0.00000  -0.00000  -0.00000   0.01713
  93        2PZ        -0.07750   0.08857  -0.02708  -0.10809  -0.00000
  94        3S          0.00000   0.00000  -0.00000  -0.00000   0.03279
  95        3PX         0.00000   0.00000  -0.00000  -0.00000  -0.00420
  96        3PY        -0.00000  -0.00000   0.00000  -0.00000   0.02325
  97        3PZ        -0.12561   0.13562  -0.04362  -0.17180  -0.00000
  98        4S         -0.00000  -0.00000  -0.00000  -0.00000   0.20464
  99        4PX         0.00000   0.00000  -0.00000  -0.00000   0.04800
 100        4PY         0.00000   0.00000   0.00000   0.00000   0.03235
 101        4PZ        -0.14514   0.26657  -0.08421  -0.29924  -0.00000
 102        5S          0.00000  -0.00000  -0.00001  -0.00000   1.73975
 103        5PX         0.00000  -0.00000  -0.00001  -0.00001   0.88903
 104        5PY         0.00000   0.00000   0.00000   0.00000   0.64891
 105        5PZ        -0.03471   0.24659  -0.12572  -0.33494  -0.00000
 106        6D 0        0.00000   0.00000   0.00000   0.00000  -0.00566
 107        6D+1       -0.00145   0.01222   0.02503  -0.00410   0.00000
 108        6D-1        0.00369   0.00721  -0.00110  -0.00920  -0.00000
 109        6D+2        0.00000   0.00000   0.00000  -0.00000   0.00104
 110        6D-2        0.00000   0.00000   0.00000  -0.00000  -0.00222
 111 6   C  1S         -0.00000  -0.00000  -0.00000   0.00000  -0.00416
 112        2S         -0.00000  -0.00000   0.00000   0.00000  -0.00689
 113        2PX         0.00000   0.00000   0.00000  -0.00000  -0.00778
 114        2PY        -0.00000  -0.00000   0.00000   0.00000   0.00078
 115        2PZ         0.01109  -0.08268  -0.07972   0.06807  -0.00000
 116        3S          0.00000   0.00000  -0.00000  -0.00000   0.01981
 117        3PX         0.00000   0.00000   0.00000   0.00000  -0.01362
 118        3PY        -0.00000  -0.00000   0.00000   0.00000   0.00212
 119        3PZ         0.01953  -0.12979  -0.12647   0.10666  -0.00000
 120        4S          0.00000   0.00000   0.00000   0.00000   0.07292
 121        4PX         0.00000   0.00000   0.00000   0.00000  -0.01530
 122        4PY        -0.00000  -0.00000  -0.00000  -0.00000   0.02130
 123        4PZ         0.01310  -0.22654  -0.21479   0.18739  -0.00000
 124        5S          0.00000  -0.00000   0.00003   0.00002   0.22082
 125        5PX         0.00000   0.00000  -0.00000  -0.00000   0.02310
 126        5PY        -0.00000   0.00000  -0.00001  -0.00001   0.42747
 127        5PZ         0.00231  -0.17250  -0.16643   0.18913  -0.00000
 128        6D 0        0.00000   0.00000   0.00000   0.00000  -0.00398
 129        6D+1       -0.00969   0.01062  -0.00413  -0.01429  -0.00000
 130        6D-1       -0.01446   0.00951  -0.01677  -0.01539  -0.00000
 131        6D+2        0.00000   0.00000   0.00000   0.00000  -0.00251
 132        6D-2       -0.00000   0.00000   0.00000  -0.00000   0.00367
 133 7   C  1S         -0.00000   0.00000   0.00000   0.00000  -0.00487
 134        2S         -0.00000  -0.00000   0.00000   0.00000  -0.00807
 135        2PX         0.00000  -0.00000  -0.00000   0.00000  -0.00717
 136        2PY        -0.00000  -0.00000   0.00000  -0.00000  -0.00073
 137        2PZ         0.08250  -0.02082   0.10037   0.04467   0.00000
 138        3S          0.00000   0.00000  -0.00000  -0.00000   0.02331
 139        3PX         0.00000  -0.00000  -0.00000   0.00000  -0.01196
 140        3PY        -0.00000   0.00000   0.00000  -0.00000  -0.00286
 141        3PZ         0.13513  -0.03195   0.15981   0.07034   0.00000
 142        4S         -0.00000  -0.00000  -0.00000   0.00000   0.11246
 143        4PX        -0.00000  -0.00000  -0.00000  -0.00000   0.00068
 144        4PY         0.00000  -0.00000  -0.00000  -0.00000   0.01129
 145        4PZ         0.15718  -0.06121   0.26586   0.12368   0.00000
 146        5S         -0.00000  -0.00000   0.00000   0.00000   0.42846
 147        5PX        -0.00000  -0.00000   0.00001   0.00001  -0.25979
 148        5PY        -0.00000   0.00000  -0.00002  -0.00002   0.40556
 149        5PZ         0.04959  -0.04684   0.21606   0.13132   0.00000
 150        6D 0        0.00000   0.00000  -0.00000   0.00000  -0.00369
 151        6D+1       -0.00183   0.01243  -0.00096  -0.01467  -0.00000
 152        6D-1        0.00106  -0.02034  -0.01216   0.01963   0.00000
 153        6D+2       -0.00000  -0.00000   0.00000   0.00000  -0.00218
 154        6D-2       -0.00000  -0.00000   0.00000   0.00000  -0.00400
 155 8   C  1S         -0.00000  -0.00000  -0.00000   0.00000  -0.00613
 156        2S         -0.00000  -0.00000   0.00000   0.00000  -0.01038
 157        2PX        -0.00000   0.00000   0.00000   0.00000  -0.00349
 158        2PY        -0.00000  -0.00000   0.00000   0.00000  -0.01526
 159        2PZ        -0.00429   0.09725  -0.00506  -0.10696  -0.00000
 160        3S          0.00000   0.00000  -0.00000  -0.00000   0.03377
 161        3PX        -0.00000   0.00000  -0.00000  -0.00000  -0.00338
 162        3PY        -0.00000  -0.00000   0.00000   0.00000  -0.02244
 163        3PZ        -0.00658   0.14944  -0.00728  -0.16925  -0.00000
 164        4S          0.00000   0.00000   0.00000   0.00000   0.02850
 165        4PX        -0.00000  -0.00000   0.00000   0.00000  -0.02607
 166        4PY         0.00000   0.00000   0.00000   0.00000  -0.07988
 167        4PZ        -0.00601   0.28114  -0.00800  -0.30103  -0.00000
 168        5S          0.00000  -0.00000   0.00003   0.00002  -1.72313
 169        5PX         0.00000  -0.00001   0.00004   0.00003  -0.94716
 170        5PY        -0.00000   0.00000  -0.00000  -0.00000  -0.45775
 171        5PZ         0.01049   0.20965   0.02671  -0.34800  -0.00000
 172        6D 0        0.00000   0.00000   0.00000  -0.00000  -0.00557
 173        6D+1       -0.01717  -0.00641  -0.02545   0.00258  -0.00000
 174        6D-1       -0.00187  -0.00861   0.00120   0.00871  -0.00000
 175        6D+2        0.00000   0.00000  -0.00000  -0.00000   0.00152
 176        6D-2       -0.00000   0.00000   0.00000   0.00000   0.00125
 177 9   C  1S         -0.00000   0.00000   0.00000   0.00000  -0.01414
 178        2S         -0.00000   0.00000   0.00000   0.00000  -0.02377
 179        2PX        -0.00000   0.00000  -0.00000   0.00000  -0.00025
 180        2PY        -0.00000   0.00000   0.00000   0.00000  -0.03086
 181        2PZ         0.02877  -0.01364   0.00083  -0.00024   0.00000
 182        3S          0.00000   0.00000  -0.00000   0.00000   0.06207
 183        3PX        -0.00000   0.00000  -0.00000   0.00000  -0.00041
 184        3PY         0.00000   0.00000   0.00000   0.00000  -0.04677
 185        3PZ         0.03836  -0.02077   0.00118  -0.00037   0.00000
 186        4S          0.00000  -0.00000  -0.00001  -0.00000   0.43746
 187        4PX         0.00000  -0.00000   0.00000   0.00000  -0.00244
 188        4PY        -0.00000   0.00000   0.00000   0.00000  -0.02405
 189        4PZ         0.07647  -0.11199   0.00762   0.00006   0.00000
 190        5S          0.00000  -0.00000  -0.00003  -0.00003   0.81575
 191        5PX         0.00000  -0.00000  -0.00000  -0.00000   0.04844
 192        5PY         0.00000  -0.00000  -0.00000  -0.00001  -0.47181
 193        5PZ         0.13150  -0.44827   0.02649  -0.00258   0.00000
 194        6D 0        0.00000   0.00000   0.00000  -0.00000  -0.00879
 195        6D+1       -0.00040   0.00103   0.02504  -0.01261   0.00000
 196        6D-1       -0.01959  -0.02910   0.00087  -0.00029  -0.00000
 197        6D+2       -0.00000  -0.00000   0.00000   0.00000   0.00242
 198        6D-2       -0.00000  -0.00000   0.00000  -0.00000   0.00007
 199 10  C  1S         -0.00000  -0.00000   0.00000   0.00000  -0.01077
 200        2S         -0.00000  -0.00000   0.00000   0.00000  -0.01835
 201        2PX         0.00000   0.00000  -0.00000   0.00000  -0.00018
 202        2PY        -0.00000   0.00000   0.00000  -0.00000   0.02388
 203        2PZ         0.17322   0.01316   0.00362   0.00189   0.00000
 204        3S          0.00000  -0.00000  -0.00000  -0.00000   0.06123
 205        3PX         0.00000   0.00000  -0.00000   0.00000  -0.00029
 206        3PY         0.00000  -0.00000  -0.00000  -0.00000   0.03347
 207        3PZ         0.28185   0.01852   0.00598   0.00299   0.00000
 208        4S         -0.00000   0.00000   0.00000   0.00000   0.06864
 209        4PX         0.00000   0.00000  -0.00000  -0.00000   0.00097
 210        4PY         0.00000  -0.00000  -0.00000  -0.00000   0.20865
 211        4PZ         0.35051   0.06455   0.00967   0.00652   0.00000
 212        5S          0.00000  -0.00000  -0.00003  -0.00002   1.55522
 213        5PX        -0.00000  -0.00001   0.00000   0.00000   0.04394
 214        5PY         0.00000  -0.00000  -0.00000  -0.00000   1.96700
 215        5PZ         0.09899   0.32873  -0.00150   0.01318   0.00000
 216        6D 0        0.00000  -0.00000  -0.00000  -0.00000  -0.00749
 217        6D+1        0.00014  -0.00107  -0.03046  -0.00781  -0.00000
 218        6D-1        0.00089   0.01309  -0.00020   0.00041   0.00000
 219        6D+2       -0.00000   0.00000   0.00000  -0.00000   0.00107
 220        6D-2       -0.00000  -0.00000   0.00000   0.00000  -0.00004
 221 11  C  1S          0.00000   0.00000  -0.00000   0.00000  -0.00615
 222        2S          0.00000   0.00000   0.00000   0.00000  -0.01059
 223        2PX         0.00000   0.00000  -0.00000  -0.00000   0.00226
 224        2PY         0.00000   0.00000  -0.00000  -0.00000   0.00971
 225        2PZ        -0.08897  -0.07634   0.10062  -0.07237   0.00000
 226        3S         -0.00000  -0.00000  -0.00000  -0.00000   0.04212
 227        3PX         0.00000   0.00000  -0.00000  -0.00000   0.00310
 228        3PY         0.00000   0.00000  -0.00000  -0.00000   0.01412
 229        3PZ        -0.14335  -0.11835   0.15767  -0.11803   0.00000
 230        4S         -0.00000  -0.00000   0.00000  -0.00000  -0.00821
 231        4PX         0.00000   0.00000  -0.00000  -0.00000   0.11759
 232        4PY         0.00000   0.00000  -0.00000   0.00000   0.00160
 233        4PZ        -0.18702  -0.19922   0.30176  -0.19839   0.00000
 234        5S         -0.00000  -0.00000   0.00005   0.00004  -3.94114
 235        5PX        -0.00000   0.00000  -0.00002  -0.00001   0.98927
 236        5PY        -0.00000   0.00001   0.00005   0.00004  -2.32894
 237        5PZ        -0.11311   0.07146   0.37064  -0.22961   0.00000
 238        6D 0       -0.00000  -0.00000   0.00000  -0.00000  -0.00789
 239        6D+1       -0.00424   0.01728  -0.00130   0.01488   0.00000
 240        6D-1       -0.00447  -0.01417  -0.01769  -0.01693  -0.00000
 241        6D+2       -0.00000  -0.00000   0.00000  -0.00000  -0.00554
 242        6D-2       -0.00000   0.00000   0.00000   0.00000   0.00148
 243 12  C  1S         -0.00000  -0.00000   0.00000   0.00000  -0.00677
 244        2S         -0.00000  -0.00000   0.00000   0.00000  -0.01153
 245        2PX        -0.00000  -0.00000   0.00000   0.00000   0.00104
 246        2PY        -0.00000  -0.00000   0.00000  -0.00000  -0.01042
 247        2PZ        -0.01683  -0.01683  -0.10980  -0.05121  -0.00000
 248        3S          0.00000   0.00000  -0.00000   0.00000   0.03991
 249        3PX        -0.00000  -0.00000  -0.00000  -0.00000   0.00411
 250        3PY        -0.00000  -0.00000   0.00000   0.00000  -0.01440
 251        3PZ        -0.02739  -0.02018  -0.17409  -0.08615  -0.00000
 252        4S         -0.00000   0.00000  -0.00000  -0.00000   0.14630
 253        4PX        -0.00000   0.00000   0.00000   0.00000  -0.13936
 254        4PY        -0.00000  -0.00000  -0.00000   0.00000  -0.08645
 255        4PZ        -0.03466  -0.08468  -0.32847  -0.13324  -0.00000
 256        5S          0.00000  -0.00001  -0.00007  -0.00006   5.17487
 257        5PX         0.00000  -0.00001   0.00000   0.00000  -0.51517
 258        5PY         0.00000   0.00001   0.00004   0.00003  -3.88191
 259        5PZ         0.00319  -0.31378  -0.40573  -0.15722  -0.00000
 260        6D 0        0.00000   0.00000   0.00000   0.00000  -0.00855
 261        6D+1       -0.02674   0.01390   0.00267   0.01427   0.00000
 262        6D-1        0.01660   0.02221  -0.01528   0.02004  -0.00000
 263        6D+2       -0.00000   0.00000  -0.00000   0.00000  -0.00475
 264        6D-2       -0.00000  -0.00000   0.00000   0.00000  -0.00229
 265 13  C  1S         -0.00000  -0.00000   0.00000   0.00000  -0.00600
 266        2S         -0.00000  -0.00000   0.00000   0.00000  -0.01033
 267        2PX         0.00000   0.00000   0.00000   0.00000  -0.00244
 268        2PY        -0.00000  -0.00000  -0.00000  -0.00000   0.00960
 269        2PZ        -0.08624  -0.08609  -0.09457   0.07105  -0.00000
 270        3S          0.00000   0.00000  -0.00000  -0.00000   0.04121
 271        3PX         0.00000   0.00000   0.00000   0.00000  -0.00346
 272        3PY        -0.00000  -0.00000   0.00000  -0.00000   0.01379
 273        3PZ        -0.13895  -0.13352  -0.14817   0.11590  -0.00000
 274        4S          0.00000   0.00000   0.00000   0.00000  -0.01384
 275        4PX         0.00000   0.00000   0.00000   0.00000  -0.12069
 276        4PY        -0.00000  -0.00000  -0.00000   0.00000   0.00468
 277        4PZ        -0.18087  -0.22584  -0.28715   0.19194  -0.00000
 278        5S          0.00000   0.00001   0.00005   0.00004  -3.83915
 279        5PX        -0.00000   0.00001   0.00001   0.00001  -0.89996
 280        5PY        -0.00000  -0.00001   0.00005   0.00004  -2.30045
 281        5PZ        -0.10943   0.04036  -0.38052   0.22969  -0.00000
 282        6D 0        0.00000   0.00000   0.00000  -0.00000  -0.00780
 283        6D+1        0.00421  -0.01765   0.00019   0.01439   0.00000
 284        6D-1       -0.00471  -0.01290   0.01825   0.01611   0.00000
 285        6D+2        0.00000   0.00000   0.00000  -0.00000  -0.00551
 286        6D-2       -0.00000   0.00000  -0.00000  -0.00000  -0.00149
 287 14  C  1S          0.00000   0.00000   0.00000   0.00000  -0.00662
 288        2S          0.00000   0.00000   0.00000   0.00000  -0.01128
 289        2PX        -0.00000  -0.00000  -0.00000  -0.00000  -0.00083
 290        2PY         0.00000   0.00000   0.00000   0.00000  -0.01042
 291        2PZ        -0.01824  -0.00904   0.10740   0.04879   0.00000
 292        3S         -0.00000  -0.00000  -0.00000  -0.00000   0.03907
 293        3PX        -0.00000  -0.00000   0.00000   0.00000  -0.00384
 294        3PY         0.00000   0.00000   0.00000   0.00000  -0.01440
 295        3PZ        -0.02941  -0.00799   0.16969   0.08244   0.00000
 296        4S          0.00000  -0.00000  -0.00000  -0.00000   0.13972
 297        4PX        -0.00000  -0.00000  -0.00000  -0.00000   0.14308
 298        4PY         0.00000   0.00000  -0.00000   0.00000  -0.08477
 299        4PZ        -0.03725  -0.06067   0.32491   0.12488   0.00000
 300        5S         -0.00000  -0.00000  -0.00008  -0.00006   5.21716
 301        5PX         0.00000  -0.00001   0.00000   0.00000   0.56191
 302        5PY        -0.00000  -0.00000   0.00004   0.00003  -3.76657
 303        5PZ         0.00068  -0.28212   0.41973   0.13590   0.00000
 304        6D 0       -0.00000  -0.00000   0.00000   0.00000  -0.00841
 305        6D+1        0.02636  -0.01396   0.00527   0.01452   0.00000
 306        6D-1        0.01621   0.02388   0.01402  -0.01942   0.00000
 307        6D+2        0.00000  -0.00000  -0.00000   0.00000  -0.00462
 308        6D-2       -0.00000  -0.00000  -0.00000  -0.00000   0.00247
 309 15  H  1S          0.00000  -0.00000  -0.00000  -0.00000   0.00720
 310        2S         -0.00000  -0.00000  -0.00000  -0.00000   0.00391
 311        3S         -0.00000   0.00000   0.00000   0.00000  -0.07499
 312        4S          0.00000  -0.00000  -0.00000  -0.00000  -0.52488
 313        5PX        -0.00000  -0.00000   0.00000   0.00000   0.00052
 314        5PY        -0.00000  -0.00000   0.00000  -0.00000   0.00471
 315        5PZ         0.00020   0.01124   0.00008   0.01251   0.00000
 316 16  H  1S          0.00000   0.00000  -0.00000   0.00000  -0.00098
 317        2S          0.00000   0.00000  -0.00000  -0.00000  -0.00724
 318        3S          0.00000   0.00000  -0.00000  -0.00000  -0.03703
 319        4S          0.00000   0.00000  -0.00000  -0.00000  -0.37503
 320        5PX         0.00000   0.00000   0.00000   0.00000  -0.00220
 321        5PY         0.00000   0.00000   0.00000  -0.00000   0.00186
 322        5PZ         0.00755  -0.00246  -0.01057  -0.00482  -0.00000
 323 17  H  1S         -0.00000   0.00000  -0.00000   0.00000  -0.00071
 324        2S         -0.00000   0.00000   0.00000   0.00000  -0.01091
 325        3S         -0.00000  -0.00000  -0.00000  -0.00000  -0.04132
 326        4S         -0.00000  -0.00000   0.00000   0.00000  -0.35548
 327        5PX        -0.00000   0.00000  -0.00000  -0.00000  -0.00176
 328        5PY         0.00000   0.00000  -0.00000   0.00000  -0.00183
 329        5PZ         0.00110  -0.00710   0.00931  -0.00706   0.00000
 330 18  H  1S          0.00000   0.00000  -0.00000  -0.00000   0.00746
 331        2S          0.00000   0.00000  -0.00000  -0.00000   0.00140
 332        3S          0.00000   0.00000  -0.00000  -0.00000  -0.05429
 333        4S          0.00000   0.00000  -0.00000  -0.00000  -0.72886
 334        5PX         0.00000   0.00000  -0.00000  -0.00000   0.00164
 335        5PY         0.00000   0.00000   0.00000   0.00000  -0.00513
 336        5PZ        -0.00586   0.00938   0.00195   0.01269   0.00000
 337 19  H  1S          0.00000  -0.00000  -0.00000  -0.00000   0.00916
 338        2S          0.00000  -0.00000   0.00000   0.00000  -0.00828
 339        3S         -0.00000   0.00000   0.00000   0.00000  -0.21079
 340        4S          0.00000   0.00000   0.00000   0.00000  -1.76193
 341        5PX         0.00000   0.00000   0.00000   0.00000  -0.00008
 342        5PY         0.00000   0.00000  -0.00000   0.00000  -0.00686
 343        5PZ         0.01445   0.00489   0.00028   0.00032   0.00000
 344 20  H  1S         -0.00000  -0.00000  -0.00000  -0.00000   0.00747
 345        2S         -0.00000  -0.00000  -0.00000  -0.00000   0.00200
 346        3S         -0.00000  -0.00000  -0.00000  -0.00000  -0.04933
 347        4S         -0.00000  -0.00000  -0.00000  -0.00000  -0.69213
 348        5PX         0.00000   0.00000   0.00000   0.00000  -0.00167
 349        5PY        -0.00000  -0.00000   0.00000   0.00000  -0.00490
 350        5PZ        -0.00564   0.00942  -0.00283  -0.01242  -0.00000
 351 21  H  1S          0.00000  -0.00000  -0.00000   0.00000  -0.00069
 352        2S          0.00000  -0.00000   0.00000   0.00000  -0.01046
 353        3S          0.00000   0.00000  -0.00000  -0.00000  -0.03772
 354        4S          0.00000   0.00000   0.00000   0.00000  -0.32735
 355        5PX        -0.00000   0.00000   0.00000   0.00000   0.00154
 356        5PY        -0.00000  -0.00000  -0.00000   0.00000  -0.00172
 357        5PZ         0.00116  -0.00797  -0.00842   0.00703  -0.00000
 358 22  H  1S         -0.00000  -0.00000   0.00000   0.00000  -0.00099
 359        2S         -0.00000  -0.00000  -0.00000  -0.00000  -0.00683
 360        3S         -0.00000  -0.00000  -0.00000  -0.00000  -0.03358
 361        4S         -0.00000  -0.00000  -0.00000  -0.00000  -0.34626
 362        5PX         0.00000   0.00000  -0.00000  -0.00000   0.00201
 363        5PY        -0.00000  -0.00000   0.00000  -0.00000   0.00173
 364        5PZ         0.00714  -0.00172   0.01059   0.00464   0.00000
 365 23  H  1S          0.00000   0.00000  -0.00000  -0.00000   0.00708
 366        2S          0.00000   0.00000  -0.00000  -0.00000   0.00417
 367        3S          0.00000  -0.00000   0.00000   0.00000  -0.07408
 368        4S         -0.00000   0.00000  -0.00000  -0.00000  -0.49041
 369        5PX        -0.00000  -0.00000  -0.00000  -0.00000  -0.00055
 370        5PY         0.00000   0.00000   0.00000  -0.00000   0.00454
 371        5PZ         0.00020   0.01149  -0.00086  -0.01216  -0.00000
 372 24  H  1S          0.04210   0.03873  -0.00144   0.00027   0.00125
 373        2S          0.07346   0.09689  -0.00435   0.00042  -0.02167
[...]
 188        4PY         0.27442
 189        4PZ         0.39775
 190        5S          0.34441
 191        5PX        -0.27169
 192        5PY         0.03776
 193        5PZ        -0.02761
 194        6D 0        0.00832
 195        6D+1        0.00844
 196        6D-1        0.01219
 197        6D+2        0.01209
 198        6D-2        0.01353
 199 10  C  1S          1.10550
 200        2S          0.88523
 201        2PX         0.24232
 202        2PY         0.24070
 203        2PZ         0.11391
 204        3S          0.80069
 205        3PX         0.55228
 206        3PY         0.55022
 207        3PZ         0.30899
 208        4S          0.41187
 209        4PX         0.15652
 210        4PY         0.34613
 211        4PZ         0.25602
 212        5S          0.03487
 213        5PX        -0.38695
 214        5PY         0.19924
 215        5PZ         0.04216
 216        6D 0        0.00298
 217        6D+1        0.01277
 218        6D-1        0.00356
 219        6D+2        0.02115
 220        6D-2        0.01516
 221 11  C  1S          1.10532
 222        2S          0.88556
 223        2PX         0.23294
 224        2PY         0.23329
 225        2PZ         0.15188
 226        3S          0.76845
 227        3PX         0.53404
 228        3PY         0.53141
 229        3PZ         0.40023
 230        4S          0.40517
 231        4PX         0.26720
 232        4PY         0.22040
 233        4PZ         0.32356
 234        5S          0.14287
 235        5PX        -0.27881
 236        5PY         0.62827
 237        5PZ         0.01349
 238        6D 0        0.00390
 239        6D+1        0.00994
 240        6D-1        0.01047
 241        6D+2        0.02159
 242        6D-2        0.02065
 243 12  C  1S          1.10520
 244        2S          0.88565
 245        2PX         0.23120
 246        2PY         0.23250
 247        2PZ         0.17402
 248        3S          0.75264
 249        3PX         0.52686
 250        3PY         0.53161
 251        3PZ         0.45941
 252        4S          0.37544
 253        4PX         0.15061
 254        4PY         0.19424
 255        4PZ         0.39647
 256        5S         -0.55394
 257        5PX        -0.46727
 258        5PY         0.30814
 259        5PZ        -0.06059
 260        6D 0        0.00447
 261        6D+1        0.00732
 262        6D-1        0.00883
 263        6D+2        0.02270
 264        6D-2        0.02245
 265 13  C  1S          1.10532
 266        2S          0.88557
 267        2PX         0.23142
 268        2PY         0.23392
 269        2PZ         0.15254
 270        3S          0.76769
 271        3PX         0.53290
 272        3PY         0.53136
 273        3PZ         0.40155
 274        4S          0.40796
 275        4PX         0.26878
 276        4PY         0.21876
 277        4PZ         0.32621
 278        5S          0.13672
 279        5PX        -0.28342
 280        5PY         0.63010
 281        5PZ         0.01423
 282        6D 0        0.00392
 283        6D+1        0.00970
 284        6D-1        0.01065
 285        6D+2        0.02126
 286        6D-2        0.02071
 287 14  C  1S          1.10520
 288        2S          0.88564
 289        2PX         0.23058
 290        2PY         0.23347
 291        2PZ         0.17423
 292        3S          0.75260
 293        3PX         0.52613
 294        3PY         0.53229
 295        3PZ         0.45994
 296        4S          0.37289
 297        4PX         0.14837
 298        4PY         0.19360
 299        4PZ         0.39624
 300        5S         -0.54204
 301        5PX        -0.46825
 302        5PY         0.30674
 303        5PZ        -0.06093
 304        6D 0        0.00446
 305        6D+1        0.00734
 306        6D-1        0.00904
 307        6D+2        0.02272
 308        6D-2        0.02255
 309 15  H  1S          0.27344
 310        2S          0.46369
 311        3S          0.03263
 312        4S         -0.03129
 313        5PX         0.00335
 314        5PY         0.01487
 315        5PZ         0.00463
 316 16  H  1S          0.27343
 317        2S          0.46219
 318        3S          0.01216
 319        4S         -0.02851
 320        5PX         0.01254
 321        5PY         0.00647
 322        5PZ         0.00379
 323 17  H  1S          0.27330
 324        2S          0.46291
 325        3S          0.01937
 326        4S         -0.02873
 327        5PX         0.01206
 328        5PY         0.00645
 329        5PZ         0.00448
 330 18  H  1S          0.27363
 331        2S          0.46489
 332        3S          0.03454
 333        4S         -0.01950
 334        5PX         0.00345
 335        5PY         0.01514
 336        5PZ         0.00439
 337 19  H  1S          0.27267
 338        2S          0.45380
 339        3S          0.01699
 340        4S          0.04241
 341        5PX         0.00338
 342        5PY         0.01638
 343        5PZ         0.00289
 344 20  H  1S          0.27357
 345        2S          0.46495
 346        3S          0.03548
 347        4S         -0.01944
 348        5PX         0.00344
 349        5PY         0.01509
 350        5PZ         0.00444
 351 21  H  1S          0.27327
 352        2S          0.46299
 353        3S          0.01996
 354        4S         -0.02840
 355        5PX         0.01194
 356        5PY         0.00653
 357        5PZ         0.00449
 358 22  H  1S          0.27352
 359        2S          0.46250
 360        3S          0.01308
 361        4S         -0.02817
 362        5PX         0.01256
 363        5PY         0.00645
 364        5PZ         0.00384
 365 23  H  1S          0.27352
 366        2S          0.46380
 367        3S          0.03335
 368        4S         -0.03152
 369        5PX         0.00334
 370        5PY         0.01481
 371        5PZ         0.00466
 372 24  H  1S          0.26359
 373        2S          0.42804
 374        3S          0.01129
 375        4S          0.02737
 376        5PX         0.00341
 377        5PY         0.00770
 378        5PZ         0.00922
 379 25  H  1S          0.26359
 380        2S          0.42804
 381        3S          0.01129
 382        4S          0.02737
 383        5PX         0.00341
 384        5PY         0.00770
 385        5PZ         0.00922
          Condensed to atoms (all electrons):
               1          2          3          4          5          6
     1  C    8.508334   0.325947  -0.542680   1.940573  -0.031063  -0.092070
     2  C    0.325947   7.129733   0.360031  -1.077532  -0.018791  -0.013866
     3  C   -0.542680   0.360031   6.573282   0.768811  -0.119616   0.016369
     4  C    1.940573  -1.077532   0.768811  11.063257  -0.366243  -0.124659
     5  C   -0.031063  -0.018791  -0.119616  -0.366243  10.845099   0.787274
     6  C   -0.092070  -0.013866   0.016369  -0.124659   0.787274   6.567225
     7  C   -0.017606   0.000950  -0.013870  -0.010440  -1.089744   0.322030
     8  C    0.399120  -0.013746  -0.095202  -0.040168   1.998890  -0.508491
     9  C   -1.114863  -0.815202   0.292243  -0.153907  -0.231698   0.294974
    10  C   -1.253320   0.239924  -0.336754  -2.574896  -2.513710  -0.366850
    11  C    0.310295  -0.869707   0.970335  -0.314751  -1.449881  -0.155674
    12  C   -2.061642   1.315683  -1.386262  -1.620818  -0.305096  -0.216299
    13  C    0.220082  -0.236030  -0.182944  -1.489531  -0.263394   1.028305
    14  C   -1.084640  -0.202993  -0.181220  -0.360713  -1.595410  -1.413793
    15  H    0.367688  -0.106523  -0.001210   0.027400   0.005735   0.001087
    16  H   -0.018913   0.378774  -0.018228   0.013745  -0.001526  -0.000324
    17  H   -0.023827  -0.018328   0.375333  -0.066889   0.000289   0.000393
    18  H    0.049307   0.003254  -0.084493   0.457843   0.005965  -0.005042
    19  H   -0.045355  -0.007549   0.050301  -0.070210  -0.065006   0.050859
    20  H    0.006983   0.002024  -0.005059   0.006001   0.453923  -0.084326
    21  H   -0.001291  -0.000391   0.000392   0.000330  -0.066516   0.373226
    22  H    0.000690   0.000354  -0.000319  -0.001487   0.012738  -0.017081
    23  H    0.005694  -0.002575   0.001062   0.005468   0.027686  -0.000202
    24  H    0.033722   0.014594  -0.001558  -0.011904  -0.012007  -0.001594
    25  H    0.033721   0.014594  -0.001558  -0.011904  -0.012006  -0.001594
               7          8          9         10         11         12
     1  C   -0.017606   0.399120  -1.114863  -1.253320   0.310295  -2.061642
     2  C    0.000950  -0.013746  -0.815202   0.239924  -0.869707   1.315683
     3  C   -0.013870  -0.095202   0.292243  -0.336754   0.970335  -1.386262
     4  C   -0.010440  -0.040168  -0.153907  -2.574896  -0.314751  -1.620818
     5  C   -1.089744   1.998890  -0.231698  -2.513710  -1.449881  -0.305096
     6  C    0.322030  -0.508491   0.294974  -0.366850  -0.155674  -0.216299
     7  C    7.123449   0.260864  -0.794336   0.267838  -0.254972  -0.169528
     8  C    0.260864   8.590526  -1.122282  -1.279526   0.222202  -1.052844
     9  C   -0.794336  -1.122282   9.534382   0.243971   1.565861  -1.959253
    10  C    0.267838  -1.279526   0.243971   9.074458  -0.382000   2.377995
    11  C   -0.254972   0.222202   1.565861  -0.382000  14.384944  -3.758736
    12  C   -0.169528  -1.052844  -1.959253   2.377995  -3.758736  15.997202
    13  C   -0.920331   0.306699   1.558003  -0.438409   1.073646  -4.723173
    14  C    1.421742  -2.160328  -1.873222   2.397099  -4.764390   3.087340
    15  H   -0.002671   0.005395   0.090660  -0.009471  -0.030854  -0.022976
    16  H    0.000366   0.000798   0.003518  -0.009221   0.026415  -0.032733
    17  H   -0.000386  -0.001306  -0.005460   0.019910  -0.025922   0.089509
    18  H    0.002037   0.007040  -0.023926   0.012223  -0.008145  -0.052070
    19  H   -0.007780  -0.046111   0.073791   0.420309   0.075572  -0.069818
    20  H    0.003298   0.050058  -0.024648   0.014043  -0.011576  -0.012147
    21  H   -0.015627  -0.026185  -0.005781   0.020274  -0.006221   0.005107
    22  H    0.378040  -0.018651   0.003547  -0.008968   0.002894  -0.008710
    23  H   -0.107049   0.368010   0.091135  -0.009954   0.002723   0.006269
    24  H    0.014092   0.032183   0.355848   0.005179   0.014876  -0.059520
    25  H    0.014091   0.032183   0.355848   0.005179   0.014877  -0.059519
              13         14         15         16         17         18
     1  C    0.220082  -1.084640   0.367688  -0.018913  -0.023827   0.049307
     2  C   -0.236030  -0.202993  -0.106523   0.378774  -0.018328   0.003254
     3  C   -0.182944  -0.181220  -0.001210  -0.018228   0.375333  -0.084493
     4  C   -1.489531  -0.360713   0.027400   0.013745  -0.066889   0.457843
     5  C   -0.263394  -1.595410   0.005735  -0.001526   0.000289   0.005965
     6  C    1.028305  -1.413793   0.001087  -0.000324   0.000393  -0.005042
     7  C   -0.920331   1.421742  -0.002671   0.000366  -0.000386   0.002037
     8  C    0.306699  -2.160328   0.005395   0.000798  -0.001306   0.007040
     9  C    1.558003  -1.873222   0.090660   0.003518  -0.005460  -0.023926
    10  C   -0.438409   2.397099  -0.009471  -0.009221   0.019910   0.012223
    11  C    1.073646  -4.764390  -0.030854   0.026415  -0.025922  -0.008145
    12  C   -4.723173   3.087340  -0.022976  -0.032733   0.089509  -0.052070
    13  C   14.308477  -3.659877   0.000889   0.003127  -0.006218  -0.011637
    14  C   -3.659877  15.916312   0.006863  -0.009202   0.005141  -0.015378
    15  H    0.000889   0.006863   0.437801  -0.008955   0.001480   0.000196
    16  H    0.003127  -0.009202  -0.008955   0.418450  -0.006574   0.001920
    17  H   -0.006218   0.005141   0.001480  -0.006574   0.421859  -0.010210
    18  H   -0.011637  -0.015378   0.000196   0.001920  -0.010210   0.452401
    19  H    0.076967  -0.060342   0.000312  -0.000533   0.001439  -0.006106
    20  H   -0.007086  -0.054828  -0.000110   0.000015  -0.000145   0.001253
    21  H   -0.027641   0.092887   0.000014  -0.000007   0.000010  -0.000138
    22  H    0.025874  -0.032209  -0.000125   0.000007  -0.000007   0.000014
    23  H   -0.030153  -0.027207   0.000566  -0.000125   0.000013  -0.000108
    24  H    0.011102  -0.059401  -0.000927   0.000630  -0.000139   0.000173
    25  H    0.011101  -0.059402  -0.000927   0.000630  -0.000139   0.000173
              19         20         21         22         23         24
     1  C   -0.045355   0.006983  -0.001291   0.000690   0.005694   0.033722
     2  C   -0.007549   0.002024  -0.000391   0.000354  -0.002575   0.014594
     3  C    0.050301  -0.005059   0.000392  -0.000319   0.001062  -0.001558
     4  C   -0.070210   0.006001   0.000330  -0.001487   0.005468  -0.011904
     5  C   -0.065006   0.453923  -0.066516   0.012738   0.027686  -0.012007
     6  C    0.050859  -0.084326   0.373226  -0.017081  -0.000202  -0.001594
     7  C   -0.007780   0.003298  -0.015627   0.378040  -0.107049   0.014092
     8  C   -0.046111   0.050058  -0.026185  -0.018651   0.368010   0.032183
     9  C    0.073791  -0.024648  -0.005781   0.003547   0.091135   0.355848
    10  C    0.420309   0.014043   0.020274  -0.008968  -0.009954   0.005179
    11  C    0.075572  -0.011576  -0.006221   0.002894   0.002723   0.014876
    12  C   -0.069818  -0.012147   0.005107  -0.008710   0.006269  -0.059520
    13  C    0.076967  -0.007086  -0.027641   0.025874  -0.030153   0.011102
    14  C   -0.060342  -0.054828   0.092887  -0.032209  -0.027207  -0.059401
    15  H    0.000312  -0.000110   0.000014  -0.000125   0.000566  -0.000927
    16  H   -0.000533   0.000015  -0.000007   0.000007  -0.000125   0.000630
    17  H    0.001439  -0.000145   0.000010  -0.000007   0.000013  -0.000139
    18  H   -0.006106   0.001253  -0.000138   0.000014  -0.000108   0.000173
    19  H    0.441755  -0.006233   0.001364  -0.000526   0.000288   0.000568
    20  H   -0.006233   0.453831  -0.010175   0.001900   0.000158   0.000186
    21  H    0.001364  -0.010175   0.422465  -0.006477   0.001449  -0.000141
    22  H   -0.000526   0.001900  -0.006477   0.420051  -0.009040   0.000634
    23  H    0.000288   0.000158   0.001449  -0.009040   0.439640  -0.000894
    24  H    0.000568   0.000186  -0.000141   0.000634  -0.000894   0.493626
    25  H    0.000568   0.000186  -0.000141   0.000634  -0.000894  -0.078702
              25
     1  C    0.033721
     2  C    0.014594
     3  C   -0.001558
     4  C   -0.011904
     5  C   -0.012006
     6  C   -0.001594
     7  C    0.014091
     8  C    0.032183
     9  C    0.355848
    10  C    0.005179
    11  C    0.014877
    12  C   -0.059519
    13  C    0.011101
    14  C   -0.059402
    15  H   -0.000927
    16  H    0.000630
    17  H   -0.000139
    18  H    0.000173
    19  H    0.000568
    20  H    0.000186
    21  H   -0.000141
    22  H    0.000634
    23  H   -0.000894
    24  H   -0.078702
    25  H    0.493626
 Mulliken charges:
               1
     1  C    0.085114
     2  C   -0.402627
     3  C   -0.437188
     4  C    0.012622
     5  C    0.004110
     6  C   -0.439876
     7  C   -0.404458
     8  C    0.090873
     9  C   -0.339204
    10  C    0.084677
    11  C   -0.631810
    12  C    0.692039
    13  C   -0.627848
    14  C    0.687174
    15  H    0.238661
    16  H    0.257942
    17  H    0.250172
    18  H    0.223456
    19  H    0.191475
    20  H    0.222475
    21  H    0.249214
    22  H    0.256220
    23  H    0.238039
    24  H    0.249375
    25  H    0.249374
 Sum of Mulliken charges =   1.00000
 Mulliken charges with hydrogens summed into heavy atoms:
               1
     1  C    0.323774
     2  C   -0.144684
     3  C   -0.187016
     4  C    0.236077
     5  C    0.226584
     6  C   -0.190662
     7  C   -0.148238
     8  C    0.328912
     9  C    0.159545
    10  C    0.276152
    11  C   -0.631810
    12  C    0.692039
    13  C   -0.627848
    14  C    0.687174
 Electronic spatial extent (au):  <R**2>=           2868.6137
 Charge=              1.0000 electrons
 Dipole moment (field-independent basis, Debye):
    X=              0.1813    Y=              0.1980    Z=              0.0000  Tot=              0.2685
 Quadrupole moment (field-independent basis, Debye-Ang):
   XX=            -30.8858   YY=            -56.1771   ZZ=            -84.2777
   XY=              0.0150   XZ=              0.0000   YZ=             -0.0000
 Traceless Quadrupole moment (field-independent basis, Debye-Ang):
   XX=             26.2277   YY=              0.9364   ZZ=            -27.1641
   XY=              0.0150   XZ=              0.0000   YZ=             -0.0000
 Octapole moment (field-independent basis, Debye-Ang**2):
  XXX=              2.0167  YYY=              5.3830  ZZZ=              0.0000  XYY=              0.4243
  XXY=             -5.1876  XXZ=             -0.0000  XZZ=              0.2632  YZZ=             -3.1336
  YYZ=              0.0000  XYZ=             -0.0000
 Hexadecapole moment (field-independent basis, Debye-Ang**3):
 XXXX=          -2127.9371 YYYY=           -611.5996 ZZZZ=            -99.7067 XXXY=             -0.4144
 XXXZ=             -0.0001 YYYX=              0.1677 YYYZ=             -0.0000 ZZZX=             -0.0000
 ZZZY=             -0.0000 XXYY=           -509.3094 XXZZ=           -594.4244 YYZZ=           -146.4815
 XXYZ=              0.0000 YYXZ=              0.0001 ZZXY=              0.0843
 N-N= 7.793380595308D+02 E-N=-2.794902022363D+03  KE= 5.373403049558D+02
 Orbital energies and kinetic energies (alpha):
                                 1                 2
  43         O                -0.547720          1.610599
  44         O                -0.523301          1.037903
  45         O                -0.465748          1.118390
  46         O                -0.459953          1.154143
  47         O                -0.444357          1.166038
  48         V                -0.261045          1.266924
  49         V                -0.147088          1.096090
  50         V                -0.141466          1.320265
  51         V                -0.128422          1.282066
  52         V                -0.111673          0.204283
 Total kinetic energy from orbitals= 5.373403049558D+02
 Unable to Open any file for archive entry.
 1\1\GINC-GADI-CPU-CLX-0957\SP\RM062X\6-311++G(d,p)\C14H11(1+)\TS1578\1
 4-Jul-2022\0\\#n M062X/6-311++G(d,p) SP pop=reg formcheck\\SP_-2\\1,1\
 C,0,2.4947764177,1.3727589659,0.\C,0,3.7060002134,0.6806191547,0.\C,0,
 3.690366229,-0.7104953098,0.\C,0,2.4733211613,-1.4042723964,0.\C,0,-2.
 4644988387,-1.4008665696,0.\C,0,-3.694592737,-0.7036631391,0.\C,0,-3.7
 138787526,0.6837787772,0.\C,0,-2.5021009971,1.3728410341,0.\C,0,-0.001
 7029134,1.4665363808,0.\C,0,0.0064218301,-1.424509483,0.\C,0,1.2667537
 71,0.6898946286,0.\C,0,1.2421808453,-0.7238908576,0.\C,0,-1.2624657119
 ,0.6848269224,0.\C,0,-1.2389596717,-0.7230086254,0.\H,0,2.4938710464,2
 .4580274149,0.\H,0,4.6433443496,1.2214527739,0.\H,0,4.6194291424,-1.26
 69798236,0.\H,0,2.4757648051,-2.4887687772,0.\H,0,0.0054780468,-2.5075
 289659,0.\H,0,-2.4714151949,-2.4856091547,0.\H,0,-4.6202498236,-1.2661
 591424,0.\H,0,-4.6508740993,1.224366192,0.\H,0,-2.4961689536,2.4582120
 681,0.\H,0,-0.0094583504,2.156700517,-0.8637084489\H,0,-0.0094788675,2
 .156700517,0.8637084489\\Version=ES64L-G16RevC.01\State=1-A\HF=-539.75
 8836\RMSD=4.837e-09\Dipole=0.0712237,-0.078,0.\Quadrupole=19.499617,0.
 6962426,-20.1958596,-0.0329676,-0.0000139,0.\PG=C01 [X(C14H11)]\\@
 The archive entry for this job was punched.


 EDUCATION WITHOUT COMMON SENSE IS A LOAD OF BOOKS ON THE BACK OF AN ASS.
 FChkPn:  Coordinates translated and rotated.
 FChkPn:  Coordinates match /B/ after translation and rotation.
 Job cpu time:       0 days  0 hours 19 minutes 13.4 seconds.
 Elapsed time:       0 days  0 hours  2 minutes 25.4 seconds.
 File lengths (MBytes):  RWF=     80 Int=      0 D2E=      0 Chk=     10 Scr=      1
 Normal termination of Gaussian 16 at Thu Jul 14 16:50:09 2022.
