 Entering Gaussian System, Link 0=g16
 Initial command:
 /apps/gaussian/g16c01/g16/l1.exe "/jobfs/51152907.gadi-pbs/Gau-213272.inp" -scrdir="/jobfs/51152907.gadi-pbs/"
 Entering Link 1 = /apps/gaussian/g16c01/g16/l1.exe PID=    213273.
  
 Copyright (c) 1988-2019, Gaussian, Inc.  All Rights Reserved.
  
 This is part of the Gaussian(R) 16 program.  It is based on
 the Gaussian(R) 09 system (copyright 2009, Gaussian, Inc.),
 the Gaussian(R) 03 system (copyright 2003, Gaussian, Inc.),
 the Gaussian(R) 98 system (copyright 1998, Gaussian, Inc.),
 the Gaussian(R) 94 system (copyright 1995, Gaussian, Inc.),
 the Gaussian 92(TM) system (copyright 1992, Gaussian, Inc.),
 the Gaussian 90(TM) system (copyright 1990, Gaussian, Inc.),
 the Gaussian 88(TM) system (copyright 1988, Gaussian, Inc.),
 the Gaussian 86(TM) system (copyright 1986, Carnegie Mellon
 University), and the Gaussian 82(TM) system (copyright 1983,
 Carnegie Mellon University). Gaussian is a federally registered
 trademark of Gaussian, Inc.
  
 This software contains proprietary and confidential information,
 including trade secrets, belonging to Gaussian, Inc.
  
 This software is provided under written license and may be
 used, copied, transmitted, or stored only in accord with that
 written license.
  
 The following legend is applicable only to US Government
 contracts under FAR:
  
                    RESTRICTED RIGHTS LEGEND
  
 Use, reproduction and disclosure by the US Government is
 subject to restrictions as set forth in subparagraphs (a)
 and (c) of the Commercial Computer Software - Restricted
 Rights clause in FAR 52.227-19.
  
 Gaussian, Inc.
 340 Quinnipiac St., Bldg. 40, Wallingford CT 06492
  
  
 ---------------------------------------------------------------
 Warning -- This program may not be used in any manner that
 competes with the business of Gaussian, Inc. or will provide
 assistance to any competitor of Gaussian, Inc.  The licensee
 of this program is prohibited from giving any competitor of
 Gaussian, Inc. access to this program.  By using this program,
 the user acknowledges that Gaussian, Inc. is engaged in the
 business of creating and licensing software in the field of
 computational chemistry and represents and warrants to the
 licensee that it is not a competitor of Gaussian, Inc. and that
 it will not use this program in any manner prohibited above.
 ---------------------------------------------------------------
  

 Cite this work as:
 Gaussian 16, Revision C.01,
 M. J. Frisch, G. W. Trucks, H. B. Schlegel, G. E. Scuseria, 
 M. A. Robb, J. R. Cheeseman, G. Scalmani, V. Barone, 
 G. A. Petersson, H. Nakatsuji, X. Li, M. Caricato, A. V. Marenich, 
 J. Bloino, B. G. Janesko, R. Gomperts, B. Mennucci, H. P. Hratchian, 
 J. V. Ortiz, A. F. Izmaylov, J. L. Sonnenberg, D. Williams-Young, 
 F. Ding, F. Lipparini, F. Egidi, J. Goings, B. Peng, A. Petrone, 
 T. Henderson, D. Ranasinghe, V. G. Zakrzewski, J. Gao, N. Rega, 
 G. Zheng, W. Liang, M. Hada, M. Ehara, K. Toyota, R. Fukuda, 
 J. Hasegawa, M. Ishida, T. Nakajima, Y. Honda, O. Kitao, H. Nakai, 
 T. Vreven, K. Throssell, J. A. Montgomery, Jr., J. E. Peralta, 
 F. Ogliaro, M. J. Bearpark, J. J. Heyd, E. N. Brothers, K. N. Kudin, 
 V. N. Staroverov, T. A. Keith, R. Kobayashi, J. Normand, 
 K. Raghavachari, A. P. Rendell, J. C. Burant, S. S. Iyengar, 
 J. Tomasi, M. Cossi, J. M. Millam, M. Klene, C. Adamo, R. Cammi, 
 J. W. Ochterski, R. L. Martin, K. Morokuma, O. Farkas, 
 J. B. Foresman, and D. J. Fox, Gaussian, Inc., Wallingford CT, 2019.
 
 ******************************************
 Gaussian 16:  ES64L-G16RevC.01  3-Jul-2019
                14-Jul-2022 
 ******************************************
 %NProcShared=8
 Will use up to    8 processors via shared memory.
 %mem = 32GB
 %Chk=check_sp_14
 -------------------------------------------
 #n M062X/6-311++G(d,p) SP pop=reg formcheck
 -------------------------------------------
 1/38=1,172=1/1;
 2/12=2,17=6,18=5,40=1/2;
 3/5=4,6=6,7=1111,11=2,25=1,30=1,74=-55/1,2,3;
 4//1;
 5/5=2,38=5/2;
 6/28=1/1;
 99/5=1,9=1/99;
 ------
 SP_-14
 ------
 Symbolic Z-matrix:
 Charge =  1 Multiplicity = 1
 C                     2.47249   1.37251   0. 
 C                     3.68224   0.67089   0. 
 C                     3.67756  -0.73081   0. 
 C                     2.49979  -1.41437   0. 
 C                    -2.43803  -1.39053   0. 
 C                    -3.70715  -0.68298   0. 
 C                    -3.73739   0.69301   0. 
 C                    -2.52377   1.37309   0. 
 C                    -0.01192   1.46567   0. 
 C                     0.04495  -1.42439   0. 
 C                     1.27956   0.70528   0. 
 C                     1.25191  -0.72648   0. 
 C                    -1.24954   0.66981   0. 
 C                    -1.22936  -0.7203    0. 
 H                     2.48698   2.45741   0. 
 H                     4.62057   1.21259   0. 
 H                     4.61684  -1.26932   0. 
 H                     2.48881  -2.498     0. 
 H                     0.03835  -2.50728   0. 
 H                    -2.45837  -2.47588   0. 
 H                    -4.62259  -1.26357   0. 
 H                    -4.67328   1.23298   0. 
 H                    -2.50306   2.4587    0. 
 H                    -0.06621   2.15682  -0.86334 
 H                    -0.06635   2.15682   0.86334 
 
                          Input orientation:                          
 ---------------------------------------------------------------------
 Center     Atomic      Atomic             Coordinates (Angstroms)
 Number     Number       Type             X           Y           Z
 ---------------------------------------------------------------------
      1          6           0        2.472495    1.372513    0.000000
      2          6           0        3.682241    0.670894    0.000000
      3          6           0        3.677564   -0.730807    0.000000
      4          6           0        2.499788   -1.414367    0.000000
      5          6           0       -2.438032   -1.390526    0.000000
      6          6           0       -3.707149   -0.682982    0.000000
      7          6           0       -3.737391    0.693011    0.000000
      8          6           0       -2.523767    1.373087    0.000000
      9          6           0       -0.011920    1.465675    0.000000
     10          6           0        0.044953   -1.424386    0.000000
     11          6           0        1.279556    0.705282    0.000000
     12          6           0        1.251906   -0.726476    0.000000
     13          6           0       -1.249540    0.669808    0.000000
     14          6           0       -1.229358   -0.720300    0.000000
     15          1           0        2.486977    2.457412    0.000000
     16          1           0        4.620570    1.212589    0.000000
     17          1           0        4.616844   -1.269319    0.000000
     18          1           0        2.488814   -2.498001    0.000000
     19          1           0        0.038346   -2.507283    0.000000
     20          1           0       -2.458366   -2.475884    0.000000
     21          1           0       -4.622589   -1.263574    0.000000
     22          1           0       -4.673279    1.232983    0.000000
     23          1           0       -2.503063    2.458704    0.000000
     24          1           0       -0.066208    2.156824   -0.863339
     25          1           0       -0.066352    2.156824    0.863339
 ---------------------------------------------------------------------
                    Distance matrix (angstroms):
                    1          2          3          4          5
     1  C    0.000000
     2  C    1.398483   0.000000
     3  C    2.424076   1.401709   0.000000
     4  C    2.787013   2.397188   1.361767   0.000000
     5  C    5.634506   6.458111   6.151076   4.937878   0.000000
     6  C    6.512531   7.512395   7.384868   6.249880   1.453023
     7  C    6.246952   7.419666   7.550418   6.583574   2.455496
     8  C    4.996262   6.245608   6.548502   5.745085   2.764943
     9  C    2.486161   3.778691   4.293812   3.821429   3.747519
    10  C    3.703459   4.197627   3.698231   2.454856   2.483216
    11  C    1.366857   2.402931   2.795137   2.445788   4.267655
    12  C    2.428084   2.803422   2.425662   1.424922   3.749214
    13  C    3.787788   4.931782   5.122311   4.289668   2.378548
    14  C    4.252479   5.104824   4.906933   3.793186   1.382062
    15  H    1.084996   2.149489   3.403269   3.871800   6.249987
    16  H    2.154020   1.083464   2.160105   3.376184   7.523302
    17  H    3.402574   2.153580   1.082701   2.122019   7.055917
    18  H    3.870549   3.386173   2.129813   1.083690   5.049783
    19  H    4.580163   4.835161   4.049663   2.693169   2.716541
    20  H    6.254882   6.899948   6.379258   5.070514   1.085549
    21  H    7.568961   8.527155   8.317233   7.123973   2.188243
    22  H    7.147136   8.374405   8.578639   7.646002   3.446611
    23  H    5.092739   6.438498   6.955079   6.326863   3.849780
    24  H    2.793835   4.123617   4.806204   4.481416   4.353687
    25  H    2.793965   4.123748   4.806316   4.481499   4.353609
                    6          7          8          9         10
     6  C    0.000000
     7  C    1.376326   0.000000
     8  C    2.372301   1.391182   0.000000
     9  C    4.274511   3.804753   2.513552   0.000000
    10  C    3.824650   4.334686   3.797918   2.890621   0.000000
    11  C    5.176341   5.016963   3.861506   1.498702   2.461653
    12  C    4.959246   5.187295   4.320170   2.530372   1.394208
    13  C    2.805331   2.487959   1.455423   1.471430   2.461984
    14  C    2.478072   2.878834   2.461253   2.502127   1.455886
    15  H    6.944730   6.469612   5.126726   2.688500   4.586049
    16  H    8.540732   8.374096   7.146140   4.639399   5.281091
    17  H    8.344618   8.581607   7.613845   5.376397   4.574520
    18  H    6.456334   6.996298   6.333348   4.686619   2.669289
    19  H    4.166150   4.949553   4.649914   3.973275   1.082917
    20  H    2.184939   3.417280   3.849527   4.639071   2.715190
    21  H    1.084028   2.147510   3.370020   5.357897   4.670311
    22  H    2.145770   1.080488   2.154073   4.667163   5.415101
    23  H    3.364523   2.154353   1.085815   2.681771   4.644435
    24  H    4.697478   4.045452   2.720145   1.107244   3.685482
    25  H    4.697367   4.045322   2.720016   1.107251   3.685486
                   11         12         13         14         15
    11  C    0.000000
    12  C    1.432025   0.000000
    13  C    2.529345   2.864759   0.000000
    14  C    2.885643   2.481271   1.390255   0.000000
    15  H    2.127868   3.415047   4.142111   4.889683   0.000000
    16  H    3.379310   3.886885   5.895151   6.160984   2.470183
    17  H    3.877698   3.408443   6.178566   5.871924   4.292418
    18  H    3.423935   2.160612   4.900031   4.121289   4.955414
    19  H    3.444006   2.154994   3.428201   2.190977   5.535701
    20  H    4.908349   4.102018   3.369962   2.143020   6.985258
    21  H    6.221874   5.898997   3.887856   3.436446   8.024442
    22  H    5.976179   6.240777   3.469748   3.959281   7.264192
    23  H    4.169256   4.923938   2.184369   3.424675   4.990040
    24  H    2.159493   3.285757   2.087305   3.221197   2.711912
    25  H    2.159582   3.285814   2.087224   3.221146   2.712047
                   16         17         18         19         20
    16  H    0.000000
    17  H    2.481911   0.000000
    18  H    4.279354   2.457270   0.000000
    19  H    5.902053   4.742910   2.450485   0.000000
    20  H    7.982242   7.177353   4.947229   2.496910   0.000000
    21  H    9.569084   9.239435   7.217746   4.824016   2.480636
    22  H    9.293872   9.621221   8.075631   6.015729   4.319900
    23  H    7.231801   8.036867   7.034754   5.578511   4.934791
    24  H    4.858274   5.866412   5.379674   4.744489   5.284861
    25  H    4.858413   5.866526   5.379742   4.744492   5.284796
                   21         22         23         24         25
    21  H    0.000000
    22  H    2.497072   0.000000
    23  H    4.283427   2.492435   0.000000
    24  H    5.762385   4.777440   2.602834   0.000000
    25  H    5.762271   4.777301   2.602700   1.726678   0.000000
 Stoichiometry    C14H11(1+)
 Framework group  C1[X(C14H11)]
 Deg. of freedom    69
 Full point group                 C1      NOp   1
 Largest Abelian subgroup         C1      NOp   1
 Largest concise Abelian subgroup C1      NOp   1
                         Standard orientation:                         
 ---------------------------------------------------------------------
 Center     Atomic      Atomic             Coordinates (Angstroms)
 Number     Number       Type             X           Y           Z
 ---------------------------------------------------------------------
      1          6           0        2.462083   -1.383869    0.000000
      2          6           0        3.677485   -0.692093    0.000000
      3          6           0        3.684184    0.709601    0.000000
      4          6           0        2.511995    1.402697    0.000000
      5          6           0       -2.425856    1.418934    0.000000
      6          6           0       -3.700674    0.721713    0.000000
      7          6           0       -3.742083   -0.653989    0.000000
      8          6           0       -2.534019   -1.343893    0.000000
      9          6           0       -0.023006   -1.456864    0.000000
     10          6           0        0.057322    1.432640    0.000000
     11          6           0        1.274600   -0.706979    0.000000
     12          6           0        1.258571    0.724957    0.000000
     13          6           0       -1.254126   -0.650979    0.000000
     14          6           0       -1.222661    0.738920    0.000000
     15          1           0        2.467760   -2.468850    0.000000
     16          1           0        4.611386   -1.241386    0.000000
     17          1           0        4.627804    1.240471    0.000000
     18          1           0        2.509816    2.486385    0.000000
     19          1           0        0.059505    2.515555    0.000000
     20          1           0       -2.437381    2.504421    0.000000
     21          1           0       -4.611371    1.309716    0.000000
     22          1           0       -4.682322   -1.186347    0.000000
     23          1           0       -2.522126   -2.429642    0.000000
     24          1           0       -0.082902   -2.147550    0.863339
     25          1           0       -0.083046   -2.147548   -0.863339
 ---------------------------------------------------------------------
 Rotational constants (GHZ):           2.1261529           0.4425434           0.3671001
 Standard basis: 6-311++G(d,p) (5D, 7F)
 There are   399 symmetry adapted cartesian basis functions of A   symmetry.
 There are   385 symmetry adapted basis functions of A   symmetry.
   385 basis functions,   603 primitive gaussians,   399 cartesian basis functions
    47 alpha electrons       47 beta electrons
       nuclear repulsion energy       779.4682146187 Hartrees.
 NAtoms=   25 NActive=   25 NUniq=   25 SFac= 1.00D+00 NAtFMM=   60 NAOKFM=F Big=F
 Integral buffers will be    131072 words long.
 Raffenetti 2 integral format.
 Two-electron integral symmetry is turned on.
 One-electron integrals computed using PRISM.
 NBasis=   385 RedAO= T EigKep=  1.14D-06  NBF=   385
 NBsUse=   379 1.00D-06 EigRej=  8.62D-07 NBFU=   379
 ExpMin= 3.60D-02 ExpMax= 4.56D+03 ExpMxC= 6.82D+02 IAcc=3 IRadAn=         5 AccDes= 0.00D+00
 Harris functional with IExCor= 1009 and IRadAn=       5 diagonalized for initial guess.
 HarFok:  IExCor= 1009 AccDes= 0.00D+00 IRadAn=         5 IDoV= 1 UseB2=F ITyADJ=14
 ICtDFT=  3500011 ScaDFX=  1.000000  1.000000  1.000000  1.000000
 FoFCou: FMM=F IPFlag=           0 FMFlag=      100000 FMFlg1=           0
         NFxFlg=           0 DoJE=T BraDBF=F KetDBF=T FulRan=T
         wScrn=  0.000000 ICntrl=       500 IOpCl=  0 I1Cent=   200000004 NGrid=           0
         NMat0=    1 NMatS0=      1 NMatT0=    0 NMatD0=    1 NMtDS0=    0 NMtDT0=    0
 Petite list used in FoFCou.
 Requested convergence on RMS density matrix=1.00D-08 within 128 cycles.
 Requested convergence on MAX density matrix=1.00D-06.
 Requested convergence on             energy=1.00D-06.
 No special actions if energy rises.
 SCF Done:  E(RM062X) =  -539.750295571     A.U. after   16 cycles
            NFock= 16  Conv=0.35D-08     -V/T= 2.0044

 **********************************************************************

            Population analysis using the SCF Density.

 **********************************************************************

 Orbital symmetries:
       Occupied  (A) (A) (A) (A) (A) (A) (A) (A) (A) (A) (A) (A)
                 (A) (A) (A) (A) (A) (A) (A) (A) (A) (A) (A) (A)
                 (A) (A) (A) (A) (A) (A) (A) (A) (A) (A) (A) (A)
                 (A) (A) (A) (A) (A) (A) (A) (A) (A) (A) (A)
       Virtual   (A) (A) (A) (A) (A) (A) (A) (A) (A) (A) (A) (A)
                 (A) (A) (A) (A) (A) (A) (A) (A) (A) (A) (A) (A)
                 (A) (A) (A) (A) (A) (A) (A) (A) (A) (A) (A) (A)
                 (A) (A) (A) (A) (A) (A) (A) (A) (A) (A) (A) (A)
                 (A) (A) (A) (A) (A) (A) (A) (A) (A) (A) (A) (A)
                 (A) (A) (A) (A) (A) (A) (A) (A) (A) (A) (A) (A)
                 (A) (A) (A) (A) (A) (A) (A) (A) (A) (A) (A) (A)
                 (A) (A) (A) (A) (A) (A) (A) (A) (A) (A) (A) (A)
                 (A) (A) (A) (A) (A) (A) (A) (A) (A) (A) (A) (A)
                 (A) (A) (A) (A) (A) (A) (A) (A) (A) (A) (A) (A)
                 (A) (A) (A) (A) (A) (A) (A) (A) (A) (A) (A) (A)
                 (A) (A) (A) (A) (A) (A) (A) (A) (A) (A) (A) (A)
                 (A) (A) (A) (A) (A) (A) (A) (A) (A) (A) (A) (A)
                 (A) (A) (A) (A) (A) (A) (A) (A) (A) (A) (A) (A)
                 (A) (A) (A) (A) (A) (A) (A) (A) (A) (A) (A) (A)
                 (A) (A) (A) (A) (A) (A) (A) (A) (A) (A) (A) (A)
                 (A) (A) (A) (A) (A) (A) (A) (A) (A) (A) (A) (A)
                 (A) (A) (A) (A) (A) (A) (A) (A) (A) (A) (A) (A)
                 (A) (A) (A) (A) (A) (A) (A) (A) (A) (A) (A) (A)
                 (A) (A) (A) (A) (A) (A) (A) (A) (A) (A) (A) (A)
                 (A) (A) (A) (A) (A) (A) (A) (A) (A) (A) (A) (A)
                 (A) (A) (A) (A) (A) (A) (A) (A) (A) (A) (A) (A)
                 (A) (A) (A) (A) (A) (A) (A) (A) (A) (A) (A) (A)
                 (A) (A) (A) (A) (A) (A) (A) (A) (A) (A) (A) (A)
                 (A) (A) (A) (A) (A) (A) (A) (A) (A) (A) (A) (A)
                 (A) (A) (A) (A) (A) (A) (A) (A) (A) (A) (A) (A)
                 (A) (A) (A) (A) (A) (A) (A) (A) (A) (A) (A) (A)
                 (A) (A) (A) (A) (A) (A) (A) (A)
 The electronic state is 1-A.
 Alpha  occ. eigenvalues --  -10.77640 -10.73930 -10.73005 -10.72704 -10.72382
 Alpha  occ. eigenvalues --  -10.71980 -10.71977 -10.71077 -10.70867 -10.70345
 Alpha  occ. eigenvalues --  -10.70036 -10.69940 -10.69803 -10.69402  -1.16359
 Alpha  occ. eigenvalues --   -1.12283  -1.06758  -1.05754  -1.01146  -1.00352
 Alpha  occ. eigenvalues --   -0.95432  -0.90928  -0.86322  -0.85748  -0.83719
 Alpha  occ. eigenvalues --   -0.78235  -0.76027  -0.74218  -0.69832  -0.69185
 Alpha  occ. eigenvalues --   -0.68213  -0.67977  -0.67923  -0.65291  -0.64153
 Alpha  occ. eigenvalues --   -0.62564  -0.61536  -0.60407  -0.59242  -0.59077
 Alpha  occ. eigenvalues --   -0.56814  -0.55461  -0.54216  -0.52335  -0.47419
 Alpha  occ. eigenvalues --   -0.46066  -0.43583
 Alpha virt. eigenvalues --   -0.26134  -0.14739  -0.14075  -0.12814  -0.11184
 Alpha virt. eigenvalues --   -0.10094  -0.09269  -0.07955  -0.07938  -0.07492
 Alpha virt. eigenvalues --   -0.07207  -0.07146  -0.05662  -0.05581  -0.05377
 Alpha virt. eigenvalues --   -0.03846  -0.03651  -0.03287  -0.03157  -0.02156
 Alpha virt. eigenvalues --   -0.01333  -0.00962   0.00170   0.00566   0.00635
 Alpha virt. eigenvalues --    0.01070   0.01492   0.01904   0.02096   0.02296
 Alpha virt. eigenvalues --    0.02437   0.02659   0.02737   0.03174   0.03456
 Alpha virt. eigenvalues --    0.04204   0.04479   0.04722   0.05004   0.05363
 Alpha virt. eigenvalues --    0.06030   0.06245   0.06560   0.07043   0.07259
 Alpha virt. eigenvalues --    0.07881   0.07995   0.08321   0.08612   0.08866
 Alpha virt. eigenvalues --    0.09437   0.09529   0.09853   0.10653   0.10861
 Alpha virt. eigenvalues --    0.11109   0.12012   0.12202   0.12571   0.12991
 Alpha virt. eigenvalues --    0.13464   0.13515   0.13951   0.14177   0.15712
 Alpha virt. eigenvalues --    0.16246   0.16423   0.17306   0.17375   0.17705
 Alpha virt. eigenvalues --    0.18038   0.18986   0.19342   0.19634   0.19872
 Alpha virt. eigenvalues --    0.21435   0.21533   0.22509   0.23055   0.23508
 Alpha virt. eigenvalues --    0.23889   0.24491   0.25319   0.26865   0.27475
 Alpha virt. eigenvalues --    0.28731   0.29254   0.29828   0.31258   0.35486
 Alpha virt. eigenvalues --    0.36187   0.38135   0.39203   0.40956   0.41263
 Alpha virt. eigenvalues --    0.41827   0.42120   0.43022   0.43597   0.44450
 Alpha virt. eigenvalues --    0.44561   0.44933   0.45800   0.46182   0.47880
 Alpha virt. eigenvalues --    0.48374   0.48700   0.49069   0.50606   0.50965
 Alpha virt. eigenvalues --    0.51046   0.52045   0.52152   0.52560   0.54115
 Alpha virt. eigenvalues --    0.54123   0.54514   0.55602   0.55982   0.57538
 Alpha virt. eigenvalues --    0.58183   0.58912   0.61451   0.62134   0.62283
 Alpha virt. eigenvalues --    0.62994   0.63435   0.64675   0.65072   0.67408
 Alpha virt. eigenvalues --    0.70134   0.70336   0.71061   0.72436   0.72834
 Alpha virt. eigenvalues --    0.75484   0.75881   0.76390   0.76670   0.77112
 Alpha virt. eigenvalues --    0.77799   0.78006   0.78218   0.79967   0.80268
 Alpha virt. eigenvalues --    0.81113   0.81528   0.82382   0.82844   0.85151
 Alpha virt. eigenvalues --    0.86941   0.88081   0.88085   0.89196   0.90608
 Alpha virt. eigenvalues --    0.90921   0.91408   0.93226   0.94434   0.96257
 Alpha virt. eigenvalues --    0.96757   1.00156   1.01146   1.01389   1.02771
 Alpha virt. eigenvalues --    1.03071   1.03106   1.04746   1.05981   1.08700
 Alpha virt. eigenvalues --    1.19499   1.22803   1.24029   1.24050   1.28960
 Alpha virt. eigenvalues --    1.29162   1.32130   1.34083   1.35700   1.35819
 Alpha virt. eigenvalues --    1.39161   1.39520   1.40573   1.42754   1.43241
 Alpha virt. eigenvalues --    1.43261   1.43918   1.46138   1.46272   1.46439
 Alpha virt. eigenvalues --    1.47572   1.47900   1.51549   1.53447   1.55366
 Alpha virt. eigenvalues --    1.55460   1.56122   1.56386   1.57624   1.61126
 Alpha virt. eigenvalues --    1.62720   1.63312   1.64205   1.65913   1.68027
 Alpha virt. eigenvalues --    1.68046   1.68489   1.69618   1.74176   1.75649
 Alpha virt. eigenvalues --    1.76810   1.78041   1.79209   1.79695   1.81055
 Alpha virt. eigenvalues --    1.82488   1.82842   1.83263   1.83697   1.83947
 Alpha virt. eigenvalues --    1.84445   1.85230   1.86226   1.88293   1.91171
 Alpha virt. eigenvalues --    1.91970   1.93610   1.95300   1.97425   1.97838
 Alpha virt. eigenvalues --    1.99583   2.02017   2.04159   2.06983   2.11324
 Alpha virt. eigenvalues --    2.11825   2.14046   2.14819   2.18609   2.20767
 Alpha virt. eigenvalues --    2.22232   2.27880   2.29774   2.33764   2.34253
 Alpha virt. eigenvalues --    2.35761   2.38143   2.39433   2.41804   2.44043
 Alpha virt. eigenvalues --    2.45659   2.45788   2.48676   2.52495   2.53133
 Alpha virt. eigenvalues --    2.54245   2.56725   2.57833   2.58499   2.59256
 Alpha virt. eigenvalues --    2.59988   2.61221   2.61898   2.63517   2.63571
 Alpha virt. eigenvalues --    2.64779   2.64954   2.65084   2.65705   2.67471
 Alpha virt. eigenvalues --    2.67810   2.70581   2.70772   2.73260   2.74657
 Alpha virt. eigenvalues --    2.76121   2.77359   2.79476   2.82477   2.83098
 Alpha virt. eigenvalues --    2.83968   2.86072   2.91819   2.96830   2.99092
 Alpha virt. eigenvalues --    2.99892   3.04267   3.07850   3.10327   3.13613
 Alpha virt. eigenvalues --    3.19502   3.20878   3.25246   3.28165   3.30290
 Alpha virt. eigenvalues --    3.31988   3.34425   3.43620   3.45687   3.46206
 Alpha virt. eigenvalues --    3.47453   3.48972   3.55911   3.65402   3.66456
 Alpha virt. eigenvalues --    3.67537   3.93103   3.93443   3.94863   3.96028
 Alpha virt. eigenvalues --    4.03400   4.05898   4.07154   4.11928   4.34820
 Alpha virt. eigenvalues --    4.60023   4.68280   4.70297  23.44939  23.59456
 Alpha virt. eigenvalues --   23.78193  23.80140  23.83289  23.88500  23.91186
 Alpha virt. eigenvalues --   23.94297  23.94979  23.97000  24.03741  24.06994
 Alpha virt. eigenvalues --   24.10666  24.13443
     Molecular Orbital Coefficients:
                          43        44        45        46        47
                           O         O         O         O         O
     Eigenvalues --    -0.54216  -0.52335  -0.47419  -0.46066  -0.43583
   1 1   C  1S          0.00066   0.00000  -0.00000   0.00000   0.00000
   2        2S          0.00108   0.00000  -0.00000   0.00000   0.00000
   3        2PX         0.05829   0.00000  -0.00000  -0.00000   0.00000
   4        2PY         0.03476   0.00000  -0.00000  -0.00000  -0.00000
   5        2PZ        -0.00000   0.07198  -0.12733   0.03568   0.04358
   6        3S         -0.00168  -0.00000   0.00000  -0.00000  -0.00000
   7        3PX         0.08157   0.00000  -0.00000  -0.00000   0.00000
   8        3PY         0.05082   0.00000  -0.00000  -0.00000  -0.00000
   9        3PZ        -0.00000   0.11604  -0.20821   0.05852   0.07228
  10        4S          0.01274  -0.00000  -0.00000  -0.00000  -0.00000
  11        4PX         0.06290  -0.00000  -0.00000  -0.00000   0.00000
  12        4PY         0.06192  -0.00000  -0.00000  -0.00000  -0.00000
  13        4PZ        -0.00000   0.09647  -0.17849   0.05437   0.06568
  14        5S         -0.07784   0.00001  -0.00003  -0.00002  -0.00005
  15        5PX        -0.05647  -0.00001   0.00006   0.00004   0.00005
  16        5PY         0.00134  -0.00000   0.00001   0.00000   0.00001
  17        5PZ        -0.00000   0.00255  -0.04433   0.00587   0.00112
  18        6D 0       -0.00021  -0.00000  -0.00000  -0.00000   0.00000
  19        6D+1        0.00000   0.00891   0.00977   0.01419   0.00047
  20        6D-1       -0.00000   0.00722  -0.00884   0.00255   0.00344
  21        6D+2        0.01291   0.00000  -0.00000  -0.00000   0.00000
  22        6D-2        0.00911   0.00000  -0.00000   0.00000   0.00000
  23 2   C  1S         -0.00181  -0.00000   0.00000   0.00000  -0.00000
  24        2S         -0.00300  -0.00000   0.00000   0.00000  -0.00000
  25        2PX        -0.05665  -0.00000   0.00000   0.00000  -0.00000
  26        2PY        -0.04307  -0.00000   0.00000   0.00000  -0.00000
  27        2PZ         0.00000   0.10045  -0.01309   0.09462   0.01854
  28        3S          0.00984   0.00000  -0.00000  -0.00000   0.00000
  29        3PX        -0.08084  -0.00000   0.00000   0.00000  -0.00000
  30        3PY        -0.06099  -0.00000   0.00000   0.00000  -0.00000
  31        3PZ         0.00000   0.16577  -0.02184   0.15585   0.03013
  32        4S         -0.02073   0.00000   0.00000   0.00000  -0.00000
  33        4PX        -0.04981  -0.00000  -0.00000  -0.00000  -0.00000
  34        4PY        -0.03539  -0.00000   0.00000   0.00000   0.00000
  35        4PZ         0.00000   0.12714  -0.01796   0.13399   0.02886
  36        5S          0.01498  -0.00000  -0.00001  -0.00001  -0.00002
  37        5PX        -0.01451  -0.00000   0.00001   0.00001   0.00001
  38        5PY        -0.04600  -0.00001   0.00003   0.00002   0.00003
  39        5PZ         0.00000  -0.00086   0.01193   0.00218   0.01549
  40        6D 0        0.00021  -0.00000  -0.00000  -0.00000   0.00000
  41        6D+1        0.00000  -0.00885   0.01256  -0.00440  -0.00470
  42        6D-1        0.00000   0.00522   0.01982   0.00546  -0.00581
  43        6D+2        0.00327  -0.00000   0.00000   0.00000  -0.00000
  44        6D-2        0.00995   0.00000  -0.00000  -0.00000   0.00000
  45 3   C  1S          0.00160   0.00000   0.00000   0.00000  -0.00000
  46        2S          0.00266   0.00000   0.00000   0.00000  -0.00000
  47        2PX         0.05182   0.00000  -0.00000  -0.00000   0.00000
  48        2PY         0.03147   0.00000  -0.00000  -0.00000   0.00000
  49        2PZ         0.00000   0.07335   0.11523   0.06299  -0.02958
  50        3S         -0.00927  -0.00000  -0.00000  -0.00000   0.00000
  51        3PX         0.07444   0.00000  -0.00000  -0.00000   0.00000
  52        3PY         0.04576   0.00000  -0.00000  -0.00000  -0.00000
  53        3PZ         0.00000   0.11948   0.18921   0.10272  -0.04855
  54        4S          0.01252  -0.00000  -0.00000  -0.00000  -0.00000
  55        4PX         0.06380   0.00000   0.00000   0.00000   0.00000
  56        4PY         0.03479   0.00000   0.00000   0.00000   0.00000
  57        4PZ         0.00000   0.09542   0.16073   0.09264  -0.04274
  58        5S          0.04489   0.00001  -0.00004  -0.00002  -0.00004
  59        5PX         0.00703  -0.00000  -0.00000  -0.00000  -0.00000
  60        5PY        -0.04119  -0.00000   0.00002   0.00001   0.00002
  61        5PZ        -0.00000   0.01093  -0.00065   0.02073  -0.01631
  62        6D 0        0.00039   0.00000  -0.00000   0.00000   0.00000
  63        6D+1       -0.00000  -0.00280  -0.01392   0.00152   0.00401
  64        6D-1        0.00000  -0.01109   0.00768  -0.01209  -0.00401
  65        6D+2        0.00974   0.00000  -0.00000  -0.00000   0.00000
  66        6D-2        0.01374   0.00000  -0.00000  -0.00000   0.00000
  67 4   C  1S         -0.00443  -0.00000   0.00000   0.00000  -0.00000
  68        2S         -0.00733  -0.00000   0.00000   0.00000  -0.00000
  69        2PX        -0.07025  -0.00000   0.00000   0.00000  -0.00000
  70        2PY        -0.03720  -0.00000   0.00000   0.00000  -0.00000
  71        2PZ         0.00000   0.00685   0.12979  -0.02630  -0.03979
  72        3S          0.02345   0.00000  -0.00000  -0.00000   0.00000
  73        3PX        -0.10040  -0.00000   0.00000   0.00000  -0.00000
  74        3PY        -0.05414  -0.00000   0.00000   0.00000  -0.00000
  75        3PZ         0.00001   0.00956   0.21248  -0.04324  -0.06410
  76        4S         -0.02155   0.00000   0.00000   0.00000   0.00000
  77        4PX        -0.04520  -0.00000   0.00000  -0.00000  -0.00000
  78        4PY        -0.03926  -0.00000  -0.00000  -0.00000  -0.00000
  79        4PZ         0.00000   0.01515   0.18751  -0.03302  -0.06839
  80        5S         -0.21150   0.00001   0.00004   0.00001   0.00001
  81        5PX         0.07946  -0.00000  -0.00002  -0.00001  -0.00001
  82        5PY         0.04292  -0.00000  -0.00001  -0.00000  -0.00000
  83        5PZ         0.00000  -0.01833   0.03348  -0.03034  -0.00228
  84        6D 0        0.00070  -0.00000  -0.00000  -0.00000   0.00000
  85        6D+1       -0.00000   0.01469   0.00980   0.01676  -0.00285
  86        6D-1       -0.00000  -0.00286  -0.00854   0.00070   0.00217
  87        6D+2        0.01064   0.00000  -0.00000  -0.00000   0.00000
  88        6D-2        0.00754   0.00000  -0.00000   0.00000  -0.00000
  89 5   C  1S         -0.00288   0.00000  -0.00000   0.00000   0.00000
  90        2S         -0.00479   0.00000  -0.00000   0.00000   0.00000
  91        2PX        -0.07069  -0.00000   0.00000  -0.00000  -0.00000
  92        2PY        -0.03624   0.00000  -0.00000   0.00000   0.00000
  93        2PZ         0.00000   0.01663  -0.04464   0.05363  -0.12404
  94        3S          0.01479  -0.00000   0.00000  -0.00000  -0.00000
  95        3PX        -0.10105  -0.00000   0.00000   0.00000  -0.00000
  96        3PY        -0.05241   0.00000  -0.00000   0.00000   0.00000
  97        3PZ         0.00000   0.02615  -0.07364   0.08683  -0.20221
  98        4S          0.03131  -0.00000   0.00000   0.00000   0.00000
  99        4PX        -0.07574  -0.00000   0.00000   0.00000  -0.00000
 100        4PY        -0.05408   0.00000  -0.00000  -0.00000  -0.00000
 101        4PZ         0.00000   0.02914  -0.05856   0.06758  -0.19832
 102        5S          0.17086  -0.00001   0.00000  -0.00000   0.00002
 103        5PX         0.11427  -0.00000   0.00001   0.00001   0.00001
 104        5PY        -0.03489   0.00000  -0.00000  -0.00000  -0.00000
 105        5PZ         0.00000  -0.01129  -0.02312   0.03287  -0.03094
 106        6D 0       -0.00002   0.00000   0.00000   0.00000  -0.00000
 107        6D+1        0.00000  -0.01171   0.00070   0.01703   0.01082
 108        6D-1       -0.00000  -0.00350   0.00280  -0.00279   0.00627
 109        6D+2        0.00882  -0.00000   0.00000  -0.00000  -0.00000
 110        6D-2        0.00929   0.00000  -0.00000  -0.00000  -0.00000
 111 6   C  1S          0.00029  -0.00000  -0.00000   0.00000   0.00000
 112        2S          0.00048  -0.00000  -0.00000   0.00000   0.00000
 113        2PX         0.07061   0.00000  -0.00000  -0.00000   0.00000
 114        2PY         0.03672  -0.00000  -0.00000  -0.00000  -0.00000
 115        2PZ         0.00000   0.07908  -0.03207  -0.06040  -0.11844
 116        3S          0.00071   0.00000   0.00000  -0.00000  -0.00000
 117        3PX         0.10240   0.00000  -0.00000  -0.00000   0.00000
 118        3PY         0.05254  -0.00000  -0.00000  -0.00000  -0.00000
 119        3PZ         0.00000   0.12848  -0.05282  -0.09740  -0.19461
 120        4S         -0.02322   0.00000  -0.00000  -0.00000  -0.00000
 121        4PX         0.06828   0.00000  -0.00000  -0.00000  -0.00000
 122        4PY         0.02098  -0.00000   0.00000   0.00000   0.00000
 123        4PZ         0.00000   0.09932  -0.04566  -0.08421  -0.17550
 124        5S          0.03388  -0.00001  -0.00006  -0.00003  -0.00005
 125        5PX         0.03771  -0.00000  -0.00000   0.00000   0.00000
 126        5PY         0.05943   0.00000   0.00002   0.00001   0.00002
 127        5PZ         0.00000   0.00633   0.01395  -0.01693  -0.01427
 128        6D 0        0.00004  -0.00000   0.00000   0.00000  -0.00000
 129        6D+1        0.00000   0.00339  -0.00437   0.00390  -0.01197
 130        6D-1        0.00000  -0.01142  -0.00225   0.01539  -0.00599
 131        6D+2        0.00433  -0.00000   0.00000  -0.00000  -0.00000
 132        6D-2        0.01352   0.00000  -0.00000  -0.00000   0.00000
 133 7   C  1S          0.00282   0.00000  -0.00000  -0.00000   0.00000
 134        2S          0.00470   0.00000  -0.00000  -0.00000   0.00000
 135        2PX        -0.07383  -0.00000   0.00000   0.00000  -0.00000
 136        2PY        -0.02909   0.00000  -0.00000  -0.00000   0.00000
 137        2PZ         0.00000   0.10276   0.00251  -0.11192   0.00413
 138        3S         -0.01603  -0.00000   0.00000   0.00000  -0.00000
 139        3PX        -0.10706  -0.00000   0.00000   0.00000  -0.00000
 140        3PY        -0.04155   0.00000  -0.00000  -0.00000   0.00000
 141        3PZ         0.00000   0.16903   0.00475  -0.18391   0.00726
 142        4S          0.00801  -0.00000   0.00000   0.00000   0.00000
 143        4PX        -0.08388  -0.00000   0.00000   0.00000   0.00000
 144        4PY        -0.03589   0.00000   0.00000   0.00000   0.00000
 145        4PZ         0.00000   0.12578   0.00229  -0.15434   0.00646
 146        5S         -0.10608   0.00001   0.00001  -0.00000   0.00001
 147        5PX        -0.04631   0.00000  -0.00000  -0.00000  -0.00001
 148        5PY         0.06545   0.00000   0.00003   0.00002   0.00003
 149        5PZ        -0.00000   0.00320  -0.01809  -0.00520  -0.00479
 150        6D 0        0.00019   0.00000   0.00000   0.00000  -0.00000
 151        6D+1       -0.00000   0.00962   0.00332  -0.00770   0.01198
 152        6D-1        0.00000   0.00581  -0.00570  -0.00390  -0.02092
 153        6D+2        0.01004   0.00000  -0.00000  -0.00000   0.00000
 154        6D-2        0.01826   0.00000  -0.00000  -0.00000   0.00000
 155 8   C  1S         -0.00283  -0.00000   0.00000   0.00000  -0.00000
 156        2S         -0.00468  -0.00000   0.00000   0.00000  -0.00000
 157        2PX         0.08985   0.00000  -0.00000  -0.00000   0.00000
 158        2PY         0.03306  -0.00000  -0.00000   0.00000   0.00000
 159        2PZ        -0.00000   0.07590   0.03657  -0.06366   0.12392
 160        3S          0.01527   0.00000  -0.00000  -0.00000   0.00000
 161        3PX         0.12967   0.00000  -0.00000  -0.00000   0.00000
 162        3PY         0.04782  -0.00000  -0.00000  -0.00000   0.00000
 163        3PZ        -0.00000   0.12181   0.05911  -0.10308   0.20274
 164        4S         -0.02154   0.00000  -0.00000  -0.00000  -0.00000
 165        4PX         0.06710  -0.00000  -0.00000  -0.00000   0.00000
 166        4PY         0.03775   0.00000  -0.00000  -0.00000  -0.00000
 167        4PZ        -0.00000   0.10005   0.05177  -0.09267   0.18492
 168        5S          0.13234  -0.00001  -0.00006  -0.00003  -0.00004
 169        5PX        -0.10645  -0.00000  -0.00005  -0.00003  -0.00005
 170        5PY         0.02245   0.00000   0.00000   0.00000   0.00000
 171        5PZ        -0.00000  -0.00138   0.02528  -0.00915   0.04139
 172        6D 0        0.00024   0.00000   0.00000  -0.00000  -0.00000
 173        6D+1       -0.00000  -0.00824   0.00373   0.01477   0.00989
 174        6D-1       -0.00000   0.00790   0.00159  -0.00458   0.00700
 175        6D+2        0.00915  -0.00000   0.00000   0.00000  -0.00000
 176        6D-2        0.01024   0.00000  -0.00000  -0.00000   0.00000
 177 9   C  1S         -0.00342  -0.00000  -0.00000  -0.00000  -0.00000
 178        2S         -0.00570  -0.00000  -0.00000  -0.00000  -0.00000
 179        2PX         0.08077   0.00000  -0.00000  -0.00000   0.00000
 180        2PY         0.03533  -0.00000  -0.00000  -0.00000  -0.00000
 181        2PZ        -0.00001  -0.00700   0.03187   0.00214  -0.05289
 182        3S          0.01847   0.00000   0.00000   0.00000   0.00000
 183        3PX         0.12101   0.00000  -0.00000  -0.00000   0.00000
 184        3PY         0.05215  -0.00000  -0.00000  -0.00000  -0.00000
 185        3PZ        -0.00001  -0.00821   0.04844   0.00360  -0.08089
 186        4S         -0.00143  -0.00000   0.00002   0.00001   0.00002
 187        4PX         0.08931  -0.00000  -0.00000  -0.00000  -0.00000
 188        4PY         0.05424  -0.00000  -0.00000  -0.00000  -0.00000
 189        4PZ        -0.00001  -0.04354   0.04649   0.00364  -0.08324
 190        5S         -0.02186  -0.00000   0.00005   0.00004   0.00005
 191        5PX        -0.26149   0.00000   0.00001   0.00001  -0.00000
 192        5PY         0.00204  -0.00000   0.00001   0.00001   0.00001
 193        5PZ        -0.00000  -0.06833  -0.04830  -0.00547   0.07793
 194        6D 0       -0.00397  -0.00000   0.00000  -0.00000  -0.00000
 195        6D+1       -0.00000  -0.00059  -0.01415  -0.00888  -0.00823
 196        6D-1        0.00000   0.00044  -0.00824  -0.00016   0.01643
 197        6D+2        0.01032   0.00000  -0.00000  -0.00000   0.00000
 198        6D-2        0.00819   0.00000  -0.00000  -0.00000   0.00000
 199 10  C  1S         -0.00698  -0.00000   0.00000  -0.00000  -0.00000
 200        2S         -0.01158  -0.00000   0.00000  -0.00000  -0.00000
 201        2PX        -0.07181  -0.00000   0.00000   0.00000  -0.00000
 202        2PY        -0.03486  -0.00000   0.00000   0.00000  -0.00000
 203        2PZ         0.00000  -0.10343  -0.00860  -0.00855   0.01453
 204        3S          0.03538   0.00000   0.00000   0.00000   0.00000
 205        3PX        -0.10379  -0.00000   0.00000   0.00000  -0.00000
 206        3PY        -0.05060  -0.00000   0.00000   0.00000   0.00000
 207        3PZ         0.00001  -0.16847  -0.01461  -0.01364   0.02469
 208        4S          0.03835   0.00000  -0.00001  -0.00000  -0.00001
 209        4PX        -0.08522   0.00000   0.00000   0.00000  -0.00000
 210        4PY        -0.06008  -0.00000   0.00000   0.00000   0.00000
 211        4PZ         0.00000  -0.13945  -0.01038  -0.01010   0.01793
 212        5S         -0.01809  -0.00000   0.00005   0.00003   0.00005
 213        5PX         0.26112  -0.00001  -0.00002  -0.00001   0.00001
 214        5PY        -0.00788   0.00000   0.00000  -0.00000   0.00000
 215        5PZ         0.00000  -0.01419   0.02764   0.00591  -0.05215
 216        6D 0        0.00105  -0.00000   0.00000   0.00000   0.00000
 217        6D+1        0.00000  -0.00364   0.00419  -0.02359  -0.00007
 218        6D-1       -0.00000   0.00927   0.00199   0.00073  -0.00371
 219        6D+2        0.01202  -0.00000  -0.00000  -0.00000  -0.00000
 220        6D-2        0.00814   0.00000  -0.00000  -0.00000   0.00000
 221 11  C  1S         -0.00226  -0.00000   0.00000   0.00000  -0.00000
 222        2S         -0.00375  -0.00000   0.00000   0.00000  -0.00000
 223        2PX        -0.06896  -0.00000   0.00000   0.00000  -0.00000
 224        2PY        -0.06001  -0.00000   0.00000   0.00000  -0.00000
 225        2PZ        -0.00000  -0.00018  -0.11670  -0.05725   0.01857
 226        3S          0.01095   0.00000  -0.00000   0.00000   0.00000
 227        3PX        -0.10206  -0.00000   0.00000   0.00000  -0.00000
 228        3PY        -0.08888  -0.00000   0.00000   0.00000  -0.00000
 229        3PZ        -0.00000  -0.00200  -0.18998  -0.09592   0.03005
 230        4S          0.02328   0.00000  -0.00001  -0.00000   0.00001
 231        4PX        -0.09990  -0.00000   0.00001   0.00000   0.00000
 232        4PY        -0.06190  -0.00000   0.00001   0.00000  -0.00000
 233        4PZ        -0.00000   0.01271  -0.18552  -0.08001   0.02858
 234        5S         -0.03641   0.00000  -0.00009  -0.00004  -0.00008
 235        5PX        -0.09471   0.00001   0.00003   0.00002   0.00002
 236        5PY        -0.21798   0.00002  -0.00007  -0.00004  -0.00009
 237        5PZ         0.00000   0.01361   0.07018  -0.01000  -0.04882
 238        6D 0        0.00036  -0.00000  -0.00000  -0.00000   0.00000
 239        6D+1        0.00000   0.00988  -0.01475   0.00456   0.00806
 240        6D-1        0.00000  -0.01207   0.00608  -0.01299   0.00197
 241        6D+2        0.00916  -0.00000  -0.00000  -0.00000  -0.00000
 242        6D-2        0.01543   0.00000  -0.00000  -0.00000   0.00000
 243 12  C  1S          0.00175  -0.00000  -0.00000  -0.00000   0.00000
 244        2S          0.00293  -0.00000  -0.00000  -0.00000   0.00000
 245        2PX         0.06254   0.00000  -0.00000  -0.00000   0.00000
 246        2PY         0.05374   0.00000  -0.00000  -0.00000   0.00000
 247        2PZ         0.00000  -0.07922   0.00848  -0.10672   0.00199
 248        3S         -0.00848   0.00000   0.00000   0.00000  -0.00000
 249        3PX         0.09067   0.00000  -0.00000  -0.00000   0.00000
 250        3PY         0.07845   0.00000  -0.00000  -0.00000   0.00000
 251        3PZ         0.00000  -0.12977   0.01290  -0.17532   0.00065
 252        4S          0.01419  -0.00000   0.00000  -0.00000   0.00000
 253        4PX         0.09930   0.00000  -0.00001  -0.00000  -0.00000
 254        4PY         0.08203  -0.00000  -0.00000   0.00000   0.00000
 255        4PZ         0.00000  -0.11781   0.02024  -0.17491   0.01364
 256        5S          0.16923  -0.00002   0.00011   0.00006   0.00012
 257        5PX         0.22680  -0.00002  -0.00003  -0.00001   0.00001
 258        5PY        -0.15036   0.00001  -0.00005  -0.00003  -0.00006
 259        5PZ        -0.00000   0.01840  -0.06589   0.01910   0.05104
 260        6D 0        0.00012  -0.00000  -0.00000  -0.00000  -0.00000
 261        6D+1        0.00000   0.01242   0.01279  -0.00024  -0.00576
 262        6D-1        0.00000  -0.00533   0.01861   0.00260  -0.00395
 263        6D+2        0.00989   0.00000  -0.00000  -0.00000   0.00000
 264        6D-2        0.01474   0.00000  -0.00000  -0.00000   0.00000
 265 13  C  1S         -0.00122   0.00000  -0.00000  -0.00000   0.00000
 266        2S         -0.00206   0.00000  -0.00000  -0.00000   0.00000
 267        2PX        -0.07777  -0.00000   0.00000   0.00000  -0.00000
 268        2PY        -0.05269   0.00000  -0.00000   0.00000   0.00000
 269        2PZ        -0.00000   0.00852   0.04033   0.05300   0.11793
 270        3S          0.00692  -0.00000   0.00000   0.00000  -0.00000
 271        3PX        -0.11406  -0.00000   0.00000   0.00000  -0.00001
 272        3PY        -0.07564   0.00000  -0.00000   0.00000   0.00000
 273        3PZ        -0.00000   0.01367   0.06555   0.08791   0.19239
 274        4S          0.01154  -0.00000  -0.00000  -0.00000  -0.00001
 275        4PX        -0.11124  -0.00000  -0.00000  -0.00000  -0.00001
 276        4PY        -0.07948   0.00000   0.00000   0.00000   0.00001
 277        4PZ        -0.00000   0.02477   0.06870   0.06833   0.20246
 278        5S          0.09657  -0.00000  -0.00009  -0.00004  -0.00008
 279        5PX        -0.10521   0.00001  -0.00001  -0.00001  -0.00002
 280        5PY         0.18733  -0.00002  -0.00010  -0.00006  -0.00007
 281        5PZ         0.00000   0.01819   0.00180   0.02182  -0.06757
 282        6D 0       -0.00029   0.00000   0.00000  -0.00000  -0.00000
 283        6D+1       -0.00000  -0.00922  -0.00104   0.00707  -0.01377
 284        6D-1        0.00000  -0.00889  -0.00685   0.01517  -0.00163
 285        6D+2        0.00997  -0.00000  -0.00000  -0.00000  -0.00000
 286        6D-2        0.01478   0.00000  -0.00000   0.00000   0.00000
 287 14  C  1S          0.00327  -0.00000   0.00000  -0.00000  -0.00000
 288        2S          0.00553  -0.00000   0.00000  -0.00000  -0.00000
 289        2PX         0.06205   0.00000  -0.00000  -0.00000   0.00000
 290        2PY         0.04729  -0.00000   0.00000  -0.00000  -0.00000
 291        2PZ         0.00000  -0.04873  -0.01975   0.11510   0.00879
 292        3S         -0.01611  -0.00000  -0.00000   0.00000   0.00000
 293        3PX         0.09008   0.00000  -0.00000  -0.00000   0.00000
 294        3PY         0.06891  -0.00000   0.00000  -0.00000  -0.00000
 295        3PZ         0.00000  -0.08034  -0.02999   0.18869   0.01420
 296        4S         -0.00696   0.00000  -0.00000  -0.00000  -0.00000
 297        4PX         0.07172   0.00000   0.00001   0.00000   0.00001
 298        4PY         0.03070   0.00000   0.00000   0.00000  -0.00000
 299        4PZ         0.00000  -0.07351  -0.04225   0.18491   0.01321
 300        5S         -0.18521   0.00001   0.00014   0.00007   0.00011
 301        5PX         0.26565  -0.00002  -0.00003  -0.00001   0.00000
 302        5PY         0.14960  -0.00001  -0.00007  -0.00003  -0.00004
 303        5PZ        -0.00000   0.01177   0.00160  -0.03312   0.07323
 304        6D 0       -0.00006   0.00000  -0.00000  -0.00000   0.00000
 305        6D+1        0.00000  -0.01246   0.00292  -0.00414   0.01422
 306        6D-1        0.00000  -0.00445  -0.00728  -0.00158  -0.02058
 307        6D+2        0.01058  -0.00000   0.00000   0.00000  -0.00000
 308        6D-2        0.01699   0.00000  -0.00000   0.00000   0.00000
 309 15  H  1S         -0.03840  -0.00000   0.00000   0.00000  -0.00000
 310        2S         -0.05399  -0.00000   0.00000  -0.00000  -0.00000
 311        3S         -0.02262   0.00000  -0.00000  -0.00000  -0.00000
 312        4S          0.00738  -0.00000   0.00001   0.00000   0.00001
 313        5PX         0.00349   0.00000  -0.00000  -0.00000   0.00000
 314        5PY        -0.00208  -0.00000  -0.00000  -0.00000   0.00000
 315        5PZ        -0.00000   0.00463  -0.00873   0.00256   0.00284
 316 16  H  1S         -0.02482  -0.00000   0.00000   0.00000  -0.00000
 317        2S         -0.03647  -0.00000   0.00000   0.00000  -0.00000
 318        3S         -0.01682   0.00000   0.00000   0.00000  -0.00000
 319        4S         -0.00741  -0.00000   0.00000   0.00000  -0.00000
 320        5PX        -0.00043   0.00000   0.00000  -0.00000  -0.00000
 321        5PY        -0.00397  -0.00000   0.00000   0.00000  -0.00000
 322        5PZ         0.00000   0.00640  -0.00091   0.00645   0.00123
 323 17  H  1S          0.05878   0.00000  -0.00000  -0.00000   0.00000
 324        2S          0.08582   0.00000  -0.00000  -0.00000   0.00000
 325        3S          0.03282  -0.00000  -0.00000  -0.00000   0.00000
 326        4S          0.00489  -0.00000  -0.00000  -0.00000  -0.00000
 327        5PX        -0.00350  -0.00000   0.00000   0.00000  -0.00000
 328        5PY        -0.00183  -0.00000   0.00000   0.00000  -0.00000
 329        5PZ         0.00000   0.00469   0.00790   0.00428  -0.00216
 330 18  H  1S         -0.03434  -0.00000   0.00000   0.00000  -0.00000
 331        2S         -0.05108  -0.00000   0.00000   0.00000  -0.00000
 332        3S         -0.02630  -0.00000   0.00000   0.00000   0.00000
 333        4S         -0.01797  -0.00000   0.00000   0.00000   0.00000
 334        5PX        -0.00330  -0.00000   0.00000   0.00000  -0.00000
 335        5PY         0.00158   0.00000  -0.00000  -0.00000  -0.00000
 336        5PZ         0.00000  -0.00013   0.00898  -0.00204  -0.00260
 337 19  H  1S         -0.03141  -0.00000   0.00000   0.00000   0.00000
 338        2S         -0.04572  -0.00000   0.00000   0.00000  -0.00000
 339        3S         -0.02215   0.00000  -0.00000  -0.00000  -0.00000
 340        4S         -0.00286  -0.00000  -0.00000   0.00000  -0.00000
 341        5PX        -0.00375  -0.00000   0.00000   0.00000  -0.00000
 342        5PY         0.00082   0.00000   0.00000   0.00000   0.00000
 343        5PZ         0.00000  -0.00646  -0.00032  -0.00051   0.00049
 344 20  H  1S         -0.03303   0.00000  -0.00000   0.00000   0.00000
 345        2S         -0.04847   0.00000  -0.00000   0.00000   0.00000
 346        3S         -0.02162   0.00000   0.00000   0.00000   0.00000
 347        4S          0.01434   0.00000   0.00000   0.00000   0.00000
 348        5PX        -0.00440  -0.00000   0.00000  -0.00000  -0.00000
 349        5PY         0.00223  -0.00000  -0.00000  -0.00000  -0.00000
 350        5PZ         0.00000   0.00059  -0.00333   0.00387  -0.00888
 351 21  H  1S         -0.03930  -0.00000   0.00000   0.00000  -0.00000
 352        2S         -0.05602  -0.00000   0.00000  -0.00000  -0.00000
 353        3S         -0.02256  -0.00000   0.00000   0.00000  -0.00000
 354        4S         -0.00587   0.00000  -0.00000  -0.00000  -0.00000
 355        5PX        -0.00024  -0.00000   0.00000  -0.00000  -0.00000
 356        5PY         0.00481   0.00000  -0.00000  -0.00000   0.00000
 357        5PZ         0.00000   0.00503  -0.00220  -0.00402  -0.00854
 358 22  H  1S          0.07423   0.00000  -0.00000  -0.00000   0.00000
 359        2S          0.10816   0.00000  -0.00000   0.00000   0.00000
 360        3S          0.04185  -0.00000   0.00000   0.00000   0.00000
 361        4S          0.00761   0.00000   0.00000   0.00000   0.00000
 362        5PX         0.00409   0.00000   0.00000   0.00000  -0.00000
 363        5PY         0.00300   0.00000  -0.00000  -0.00000   0.00000
 364        5PZ         0.00000   0.00663   0.00026  -0.00770   0.00033
 365 23  H  1S         -0.03055   0.00000   0.00000  -0.00000   0.00000
 366        2S         -0.04442   0.00000   0.00000  -0.00000   0.00000
 367        3S         -0.01907   0.00000  -0.00000  -0.00000  -0.00000
 368        4S         -0.01177   0.00000   0.00001   0.00000   0.00000
 369        5PX         0.00429   0.00000  -0.00000  -0.00000   0.00000
 370        5PY        -0.00146   0.00000   0.00000  -0.00000  -0.00000
 371        5PZ        -0.00000   0.00485   0.00279  -0.00444   0.00877
 372 24  H  1S         -0.02283  -0.00386   0.02907   0.00178  -0.04965
 373        2S         -0.03321   0.00331   0.04506   0.00248  -0.07935
 374        3S         -0.01427   0.02482   0.03566   0.00149  -0.06679
 375        4S          0.00205   0.04492   0.01916   0.00038  -0.03565
 376        5PX         0.00388  -0.00007  -0.00189  -0.00046  -0.00199
 377        5PY         0.00011   0.00083   0.00199   0.00011  -0.00272
 378        5PZ         0.00222   0.00014  -0.00082   0.00002   0.00143
 379 25  H  1S         -0.02283   0.00386  -0.02907  -0.00178   0.04965
 380        2S         -0.03321  -0.00331  -0.04506  -0.00248   0.07935
 381        3S         -0.01427  -0.02482  -0.03569  -0.00151   0.06677
 382        4S          0.00206  -0.04492  -0.01918  -0.00039   0.03563
 383        5PX         0.00388   0.00007   0.00189   0.00046   0.00199
 384        5PY         0.00011  -0.00083  -0.00199  -0.00011   0.00272
 385        5PZ        -0.00222   0.00014  -0.00082   0.00002   0.00143
                          48        49        50        51        52
                           V         V         V         V         V
     Eigenvalues --    -0.26134  -0.14739  -0.14075  -0.12814  -0.11184
   1 1   C  1S         -0.00000   0.00000  -0.00000   0.00000  -0.00733
   2        2S         -0.00000   0.00000  -0.00000   0.00000  -0.01241
   3        2PX        -0.00000  -0.00000  -0.00000  -0.00000   0.00360
   4        2PY         0.00000   0.00000  -0.00000   0.00000  -0.01704
   5        2PZ        -0.00521   0.08568  -0.01064   0.11701   0.00000
   6        3S         -0.00000  -0.00000   0.00000  -0.00000   0.03988
   7        3PX        -0.00000   0.00000   0.00000   0.00000   0.00333
   8        3PY         0.00000   0.00000  -0.00000   0.00000  -0.02480
   9        3PZ        -0.00735   0.13181  -0.01635   0.18604   0.00000
  10        4S         -0.00000  -0.00001   0.00001   0.00000   0.05076
  11        4PX        -0.00000  -0.00001  -0.00000  -0.00001   0.02656
  12        4PY        -0.00000  -0.00000   0.00001   0.00000  -0.08551
  13        4PZ        -0.00533   0.25308  -0.04608   0.34112   0.00000
  14        5S         -0.00001   0.00005   0.00016   0.00015  -1.94264
  15        5PX         0.00002  -0.00012  -0.00023  -0.00019   1.25055
  16        5PY         0.00000  -0.00002  -0.00003  -0.00002  -0.51048
  17        5PZ         0.01185   0.18887  -0.06334   0.39625   0.00001
  18        6D 0       -0.00000  -0.00000   0.00000  -0.00000  -0.00625
  19        6D+1        0.02099  -0.00060  -0.02727   0.00397  -0.00000
  20        6D-1       -0.00185  -0.00826   0.00032  -0.01020   0.00000
  21        6D+2       -0.00000  -0.00000  -0.00000  -0.00000   0.00194
  22        6D-2       -0.00000  -0.00000  -0.00000  -0.00000  -0.00168
  23 2   C  1S          0.00000   0.00000   0.00000   0.00000  -0.00624
  24        2S          0.00000   0.00000   0.00000   0.00000  -0.01040
  25        2PX         0.00000  -0.00000   0.00000  -0.00000   0.01018
  26        2PY         0.00000   0.00000   0.00000  -0.00000  -0.00177
  27        2PZ         0.10200  -0.04502  -0.09656  -0.04748  -0.00000
  28        3S         -0.00000  -0.00000  -0.00000  -0.00000   0.03064
  29        3PX         0.00000  -0.00000   0.00000  -0.00000   0.01621
  30        3PY         0.00000   0.00000   0.00000  -0.00000  -0.00458
  31        3PZ         0.16696  -0.07061  -0.15365  -0.07468  -0.00000
  32        4S          0.00000   0.00001  -0.00000   0.00000   0.13516
  33        4PX        -0.00000  -0.00000   0.00000  -0.00000   0.00929
  34        4PY         0.00000  -0.00000  -0.00000  -0.00000   0.00947
  35        4PZ         0.19713  -0.12654  -0.25989  -0.13522  -0.00000
  36        5S          0.00000   0.00005   0.00007   0.00006   0.14484
  37        5PX         0.00000  -0.00003  -0.00006  -0.00005   0.43067
  38        5PY         0.00001  -0.00006  -0.00013  -0.00010   0.48120
  39        5PZ         0.06364  -0.10446  -0.22003  -0.14368  -0.00001
  40        6D 0       -0.00000  -0.00000   0.00000  -0.00000  -0.00441
  41        6D+1        0.00224  -0.01109   0.00209  -0.01617  -0.00000
  42        6D-1        0.00036  -0.01425   0.01719  -0.02148  -0.00000
  43        6D+2        0.00000   0.00000  -0.00000   0.00000  -0.00244
  44        6D-2       -0.00000  -0.00000   0.00000  -0.00000   0.00502
  45 3   C  1S          0.00000   0.00000  -0.00000   0.00000  -0.00537
  46        2S          0.00000   0.00000  -0.00000   0.00000  -0.00892
  47        2PX        -0.00000   0.00000  -0.00000  -0.00000   0.01055
  48        2PY         0.00000   0.00000  -0.00000   0.00000   0.00193
  49        2PZ         0.00656  -0.04726   0.10510  -0.07114   0.00000
  50        3S         -0.00000  -0.00000   0.00000  -0.00000   0.02621
  51        3PX        -0.00000   0.00000  -0.00000  -0.00000   0.01722
  52        3PY         0.00000   0.00000   0.00000   0.00000   0.00402
  53        3PZ         0.01307  -0.07422   0.16708  -0.11185   0.00000
  54        4S         -0.00000  -0.00000   0.00001   0.00000   0.10009
  55        4PX         0.00000   0.00000  -0.00000  -0.00000   0.02291
  56        4PY         0.00000   0.00000  -0.00000  -0.00000   0.02396
  57        4PZ         0.00627  -0.14078   0.28854  -0.20977   0.00000
  58        5S         -0.00003   0.00007   0.00014   0.00010   0.36984
  59        5PX         0.00000   0.00001   0.00002   0.00002   0.00576
  60        5PY         0.00001  -0.00003  -0.00009  -0.00007   0.53189
  61        5PZ        -0.00014  -0.10827   0.23465  -0.22022   0.00000
  62        6D 0       -0.00000  -0.00000   0.00000   0.00000  -0.00460
  63        6D+1        0.01105  -0.00996   0.00039  -0.01496  -0.00000
  64        6D-1       -0.01777   0.01319   0.01405   0.01731   0.00000
  65        6D+2       -0.00000  -0.00000   0.00000   0.00000  -0.00330
  66        6D-2       -0.00000   0.00000  -0.00000   0.00000  -0.00467
  67 4   C  1S          0.00000   0.00000  -0.00000   0.00000  -0.00774
  68        2S          0.00000   0.00000  -0.00000   0.00000  -0.01303
  69        2PX         0.00000   0.00000  -0.00000   0.00000   0.00369
  70        2PY         0.00000   0.00000  -0.00000  -0.00000   0.01963
  71        2PZ        -0.08696   0.08034  -0.00255   0.11185   0.00000
  72        3S         -0.00000  -0.00000   0.00000  -0.00000   0.03955
  73        3PX         0.00000   0.00000  -0.00000   0.00000   0.00384
  74        3PY         0.00000   0.00000  -0.00000  -0.00000   0.02700
  75        3PZ        -0.14122   0.12332  -0.00308   0.17769   0.00000
  76        4S          0.00000  -0.00000  -0.00001  -0.00000   0.21022
  77        4PX         0.00000   0.00000   0.00000   0.00000  -0.04922
  78        4PY        -0.00000   0.00000   0.00001   0.00000   0.04983
  79        4PZ        -0.16631   0.25260  -0.01043   0.32341   0.00000
  80        5S         -0.00000   0.00001  -0.00013  -0.00007   1.51802
  81        5PX        -0.00000   0.00002   0.00010   0.00007  -0.97138
  82        5PY        -0.00000   0.00000   0.00001   0.00000   0.76801
  83        5PZ        -0.04341   0.25314   0.04594   0.38637   0.00000
  84        6D 0       -0.00000  -0.00000   0.00000   0.00000  -0.00607
  85        6D+1        0.00032  -0.00403   0.03013  -0.00498   0.00000
  86        6D-1        0.00349   0.00703   0.00014   0.01096   0.00000
  87        6D+2       -0.00000  -0.00000   0.00000  -0.00000   0.00204
  88        6D-2        0.00000   0.00000  -0.00000   0.00000   0.00235
  89 5   C  1S         -0.00000  -0.00000   0.00000  -0.00000  -0.00555
  90        2S         -0.00000  -0.00000   0.00000  -0.00000  -0.00933
  91        2PX         0.00000   0.00000   0.00000   0.00000  -0.00404
  92        2PY        -0.00000  -0.00000  -0.00000  -0.00000   0.01500
  93        2PZ        -0.06949   0.08669  -0.05451  -0.10226  -0.00000
  94        3S          0.00000   0.00000  -0.00000  -0.00000   0.02752
  95        3PX         0.00000   0.00000  -0.00000   0.00000  -0.00432
  96        3PY        -0.00000  -0.00000   0.00000  -0.00000   0.02016
  97        3PZ        -0.11235   0.13206  -0.08650  -0.16259  -0.00000
  98        4S          0.00000  -0.00000  -0.00001  -0.00000   0.19738
  99        4PX         0.00000   0.00000  -0.00000  -0.00000   0.04645
 100        4PY        -0.00000   0.00000   0.00001   0.00000   0.01889
 101        4PZ        -0.12746   0.25183  -0.16365  -0.27322  -0.00000
 102        5S          0.00001  -0.00002  -0.00002  -0.00001   1.82008
 103        5PX         0.00001  -0.00001  -0.00005  -0.00004   0.75387
 104        5PY         0.00000   0.00000   0.00001   0.00000   0.53389
 105        5PZ        -0.02782   0.22081  -0.19010  -0.28783  -0.00000
 106        6D 0        0.00000   0.00000  -0.00000   0.00000  -0.00523
 107        6D+1       -0.00211   0.01643   0.01970  -0.00476   0.00000
 108        6D-1        0.00371   0.00713  -0.00218  -0.00781  -0.00000
 109        6D+2        0.00000   0.00000   0.00000  -0.00000   0.00042
 110        6D-2        0.00000   0.00000  -0.00000  -0.00000  -0.00211
 111 6   C  1S         -0.00000  -0.00000   0.00000   0.00000  -0.00338
 112        2S         -0.00000  -0.00000   0.00000   0.00000  -0.00559
 113        2PX         0.00000   0.00000   0.00000  -0.00000  -0.00612
 114        2PY        -0.00000  -0.00000   0.00000   0.00000   0.00011
 115        2PZ         0.01389  -0.10064  -0.05091   0.06889  -0.00000
 116        3S          0.00000   0.00000  -0.00000  -0.00000   0.01583
 117        3PX         0.00000   0.00000   0.00000   0.00000  -0.01141
 118        3PY        -0.00000  -0.00000   0.00000   0.00000   0.00099
 119        3PZ         0.02353  -0.15772  -0.08095   0.10780  -0.00000
 120        4S          0.00000   0.00001   0.00001   0.00000   0.05499
 121        4PX         0.00000   0.00000   0.00000   0.00000  -0.01143
 122        4PY        -0.00000  -0.00000  -0.00000  -0.00000   0.01974
 123        4PZ         0.01758  -0.26646  -0.13828   0.18128  -0.00000
 124        5S          0.00001   0.00003   0.00024   0.00017   0.09388
 125        5PX         0.00000   0.00000  -0.00001  -0.00001   0.01057
 126        5PY         0.00000  -0.00001  -0.00009  -0.00006   0.32113
 127        5PZ         0.00384  -0.19856  -0.10114   0.17671  -0.00000
 128        6D 0        0.00000   0.00000   0.00000  -0.00000  -0.00348
 129        6D+1       -0.00855   0.00990  -0.00780  -0.01337  -0.00000
 130        6D-1       -0.01212   0.00633  -0.01830  -0.01295  -0.00000
 131        6D+2        0.00000   0.00000   0.00000   0.00000  -0.00201
 132        6D-2       -0.00000   0.00000   0.00000  -0.00000   0.00302
 133 7   C  1S         -0.00000   0.00000   0.00000   0.00000  -0.00403
 134        2S         -0.00000   0.00000   0.00000   0.00000  -0.00667
 135        2PX         0.00000  -0.00000  -0.00000   0.00000  -0.00542
 136        2PY        -0.00000   0.00000   0.00000  -0.00000  -0.00030
 137        2PZ         0.06891  -0.00371   0.09919   0.03627   0.00000
 138        3S          0.00000   0.00000  -0.00000  -0.00000   0.01895
 139        3PX         0.00000  -0.00000  -0.00000   0.00000  -0.00945
 140        3PY        -0.00000   0.00000  -0.00000  -0.00000  -0.00201
 141        3PZ         0.11294  -0.00454   0.15784   0.05704   0.00000
 142        4S         -0.00000  -0.00001   0.00000   0.00000   0.09887
 143        4PX        -0.00000  -0.00001  -0.00000  -0.00000   0.00687
 144        4PY         0.00000  -0.00000  -0.00000  -0.00000   0.01176
 145        4PZ         0.12986  -0.01610   0.26110   0.09869   0.00000
 146        5S         -0.00001  -0.00002  -0.00001   0.00000   0.66452
 147        5PX        -0.00000  -0.00000   0.00003   0.00002  -0.12100
 148        5PY         0.00000  -0.00001  -0.00014  -0.00010   0.30978
 149        5PZ         0.04015  -0.00913   0.20678   0.10893   0.00001
 150        6D 0        0.00000   0.00000  -0.00000   0.00000  -0.00317
 151        6D+1       -0.00165   0.01261  -0.00402  -0.01335  -0.00000
 152        6D-1        0.00158  -0.02338  -0.00628   0.01880   0.00000
 153        6D+2       -0.00000  -0.00000   0.00000   0.00000  -0.00203
 154        6D-2       -0.00000  -0.00000   0.00000   0.00000  -0.00337
 155 8   C  1S         -0.00000  -0.00000   0.00000   0.00000  -0.00526
 156        2S         -0.00000  -0.00000   0.00000   0.00000  -0.00891
 157        2PX        -0.00000   0.00000   0.00000   0.00000  -0.00350
 158        2PY        -0.00000  -0.00000   0.00000   0.00000  -0.01409
 159        2PZ        -0.00490   0.10223  -0.02509  -0.09818  -0.00000
 160        3S          0.00000   0.00000  -0.00000  -0.00000   0.02945
 161        3PX        -0.00000   0.00000  -0.00000  -0.00000  -0.00351
 162        3PY        -0.00000  -0.00000   0.00000   0.00000  -0.02077
 163        3PZ        -0.00792   0.15697  -0.03792  -0.15492  -0.00000
 164        4S          0.00000   0.00001   0.00000   0.00001   0.01383
 165        4PX        -0.00000  -0.00001   0.00001   0.00001  -0.02539
 166        4PY         0.00000   0.00000   0.00000   0.00000  -0.07596
 167        4PZ        -0.00849   0.28895  -0.06887  -0.26990  -0.00000
 168        5S         -0.00001   0.00003   0.00023   0.00018  -1.55648
 169        5PX        -0.00001   0.00001   0.00025   0.00019  -0.65606
 170        5PY         0.00000   0.00000  -0.00002  -0.00001  -0.43337
 171        5PZ         0.00862   0.21635  -0.01900  -0.31763  -0.00001
 172        6D 0        0.00000   0.00000   0.00000  -0.00000  -0.00500
 173        6D+1       -0.01444  -0.01071  -0.02241   0.00324  -0.00000
 174        6D-1       -0.00186  -0.00859   0.00282   0.00759  -0.00000
 175        6D+2        0.00000   0.00000  -0.00000  -0.00000   0.00133
 176        6D-2       -0.00000   0.00000   0.00000   0.00000   0.00097
 177 9   C  1S         -0.00000   0.00000   0.00000   0.00000  -0.01392
 178        2S         -0.00000   0.00000   0.00000  -0.00000  -0.02340
 179        2PX        -0.00000   0.00000  -0.00000   0.00000  -0.00172
 180        2PY        -0.00000   0.00000   0.00000   0.00000  -0.03069
 181        2PZ         0.02868  -0.01295   0.00524  -0.00181   0.00000
 182        3S          0.00000   0.00000  -0.00000   0.00000   0.06122
 183        3PX        -0.00000   0.00000  -0.00000   0.00000  -0.00284
 184        3PY         0.00000   0.00000   0.00000   0.00000  -0.04646
 185        3PZ         0.03831  -0.01991   0.00743  -0.00280   0.00000
 186        4S          0.00000  -0.00002  -0.00007  -0.00002   0.43022
 187        4PX         0.00000  -0.00000   0.00001   0.00000  -0.01703
 188        4PY        -0.00000   0.00000   0.00001   0.00000  -0.02453
 189        4PZ         0.07573  -0.10353   0.04811  -0.00099   0.00000
 190        5S          0.00001  -0.00007  -0.00024  -0.00021   0.85423
 191        5PX         0.00002  -0.00004  -0.00002  -0.00002   0.32495
 192        5PY         0.00000  -0.00001  -0.00003  -0.00004  -0.46886
 193        5PZ         0.13003  -0.41771   0.16526  -0.02189   0.00001
 194        6D 0        0.00000   0.00000   0.00000  -0.00000  -0.00871
 195        6D+1       -0.00277   0.00610   0.02355  -0.01353   0.00000
 196        6D-1       -0.01940  -0.02879   0.00503  -0.00212  -0.00000
 197        6D+2       -0.00000  -0.00000   0.00000   0.00000   0.00244
 198        6D-2       -0.00000  -0.00000   0.00000  -0.00000   0.00046
 199 10  C  1S         -0.00000  -0.00000   0.00000   0.00000  -0.01052
 200        2S         -0.00000  -0.00000   0.00000   0.00000  -0.01792
 201        2PX         0.00000   0.00000  -0.00000   0.00000  -0.00128
 202        2PY        -0.00000   0.00000   0.00000  -0.00000   0.02349
 203        2PZ         0.17106   0.01898   0.02508   0.01224   0.00000
 204        3S          0.00000  -0.00000  -0.00000  -0.00000   0.05967
 205        3PX         0.00000   0.00000  -0.00000   0.00000  -0.00204
 206        3PY         0.00000  -0.00000  -0.00000  -0.00000   0.03291
 207        3PZ         0.27827   0.02811   0.04130   0.01930   0.00000
 208        4S         -0.00000   0.00001   0.00003   0.00001   0.06880
 209        4PX         0.00000   0.00000  -0.00000  -0.00000   0.00671
 210        4PY         0.00000  -0.00000  -0.00001  -0.00000   0.20503
 211        4PZ         0.34539   0.08027   0.06837   0.04261   0.00000
 212        5S          0.00001  -0.00005  -0.00020  -0.00016   1.56614
 213        5PX        -0.00000  -0.00003   0.00005   0.00002   0.31156
 214        5PY         0.00000  -0.00000  -0.00002  -0.00000   1.93428
 215        5PZ         0.09737   0.33144   0.00255   0.08973   0.00000
 216        6D 0        0.00000  -0.00000  -0.00000  -0.00000  -0.00742
 217        6D+1        0.00099  -0.00632  -0.02985  -0.00675  -0.00000
 218        6D-1        0.00080   0.01305  -0.00086   0.00284   0.00000
 219        6D+2       -0.00000   0.00000   0.00000  -0.00000   0.00102
 220        6D-2       -0.00000  -0.00000   0.00000   0.00000  -0.00026
 221 11  C  1S          0.00000   0.00000  -0.00000   0.00000  -0.00656
 222        2S          0.00000   0.00000  -0.00000   0.00000  -0.01128
 223        2PX         0.00000   0.00000  -0.00000   0.00000   0.00167
 224        2PY         0.00000   0.00000  -0.00000   0.00000   0.00987
 225        2PZ        -0.09678  -0.04950   0.10784  -0.07961   0.00000
 226        3S         -0.00000  -0.00000  -0.00000  -0.00000   0.04443
 227        3PX         0.00000   0.00000  -0.00000   0.00000   0.00190
 228        3PY         0.00000   0.00000  -0.00000   0.00000   0.01498
 229        3PZ        -0.15595  -0.07655   0.16904  -0.12961   0.00000
 230        4S         -0.00001  -0.00001   0.00001  -0.00000   0.00933
 231        4PX         0.00001   0.00000  -0.00002  -0.00001   0.10605
 232        4PY         0.00001  -0.00000  -0.00001   0.00000  -0.00760
 233        4PZ        -0.20428  -0.12801   0.31653  -0.22899   0.00000
 234        5S         -0.00002   0.00004   0.00036   0.00024  -4.11399
 235        5PX         0.00000   0.00001  -0.00015  -0.00010   1.23002
 236        5PY        -0.00002   0.00014   0.00030   0.00026  -2.34526
 237        5PZ        -0.12293   0.13967   0.32166  -0.24640   0.00000
 238        6D 0       -0.00000  -0.00000   0.00000  -0.00000  -0.00807
 239        6D+1       -0.00435   0.01564  -0.00441   0.01639   0.00000
 240        6D-1       -0.00361  -0.01720  -0.01654  -0.01879  -0.00000
 241        6D+2       -0.00000  -0.00000   0.00000  -0.00000  -0.00566
 242        6D-2       -0.00000   0.00000  -0.00000   0.00000   0.00139
 243 12  C  1S         -0.00000  -0.00000   0.00000  -0.00000  -0.00718
 244        2S         -0.00000  -0.00000   0.00000  -0.00000  -0.01224
 245        2PX        -0.00000  -0.00000   0.00000   0.00000   0.00175
 246        2PY        -0.00000  -0.00000   0.00000  -0.00000  -0.01039
 247        2PZ        -0.01191  -0.03793  -0.11534  -0.05423  -0.00000
 248        3S          0.00000   0.00000  -0.00000   0.00000   0.04224
 249        3PX        -0.00000  -0.00000  -0.00000  -0.00000   0.00507
 250        3PY        -0.00000  -0.00000   0.00000  -0.00000  -0.01440
 251        3PZ        -0.02026  -0.05350  -0.18473  -0.09053  -0.00000
 252        4S          0.00000   0.00000  -0.00000  -0.00000   0.16340
 253        4PX        -0.00000   0.00001   0.00002   0.00001  -0.12594
 254        4PY        -0.00000  -0.00000   0.00000   0.00000  -0.09099
 255        4PZ        -0.02544  -0.14790  -0.33559  -0.14613  -0.00000
 256        5S          0.00003  -0.00012  -0.00046  -0.00035   4.92587
 257        5PX         0.00000  -0.00004   0.00009   0.00004  -0.33591
 258        5PY        -0.00001   0.00008   0.00025   0.00019  -4.13471
 259        5PZ         0.01078  -0.38620  -0.36681  -0.20493  -0.00001
 260        6D 0        0.00000   0.00000   0.00000   0.00000  -0.00884
 261        6D+1       -0.02752   0.01197  -0.00412   0.01340   0.00000
 262        6D-1        0.01759   0.01767  -0.01647   0.02240  -0.00000
 263        6D+2       -0.00000   0.00000  -0.00000   0.00000  -0.00506
 264        6D-2       -0.00000  -0.00000   0.00000  -0.00000  -0.00166
 265 13  C  1S         -0.00000  -0.00000   0.00000  -0.00000  -0.00550
 266        2S         -0.00000  -0.00000   0.00000  -0.00000  -0.00947
 267        2PX         0.00000   0.00000  -0.00000   0.00000  -0.00293
 268        2PY        -0.00000  -0.00000   0.00000  -0.00000   0.00915
 269        2PZ        -0.07787  -0.10897  -0.07209   0.06959  -0.00000
 270        3S          0.00000   0.00000  -0.00000   0.00000   0.03816
 271        3PX         0.00000   0.00000  -0.00000   0.00000  -0.00445
 272        3PY        -0.00000  -0.00000   0.00000  -0.00000   0.01272
 273        3PZ        -0.12550  -0.16900  -0.11285   0.11348  -0.00000
 274        4S          0.00001   0.00001   0.00001   0.00000  -0.02967
 275        4PX         0.00000   0.00001   0.00002   0.00001  -0.12754
 276        4PY        -0.00001  -0.00001  -0.00001  -0.00000   0.01384
 277        4PZ        -0.16187  -0.28857  -0.23179   0.18221  -0.00000
 278        5S         -0.00001   0.00009   0.00034   0.00024  -3.39718
 279        5PX        -0.00001   0.00005   0.00006   0.00007  -0.63400
 280        5PY        -0.00002   0.00002   0.00042   0.00030  -2.13741
 281        5PZ        -0.09755  -0.04633  -0.38496   0.24704  -0.00001
 282        6D 0        0.00000   0.00000   0.00000  -0.00000  -0.00744
 283        6D+1        0.00414  -0.01806   0.00460   0.01274   0.00000
 284        6D-1       -0.00531  -0.00960   0.01937   0.01306   0.00000
 285        6D+2        0.00000   0.00000   0.00000  -0.00000  -0.00548
 286        6D-2        0.00000   0.00000  -0.00000  -0.00000  -0.00150
 287 14  C  1S          0.00000   0.00000   0.00000   0.00000  -0.00617
 288        2S          0.00000   0.00000   0.00000   0.00000  -0.01051
 289        2PX        -0.00000  -0.00000  -0.00000  -0.00000  -0.00031
 290        2PY         0.00000   0.00000   0.00000   0.00000  -0.01039
 291        2PZ        -0.02171   0.00835   0.09811   0.03834   0.00000
 292        3S         -0.00000  -0.00000  -0.00000  -0.00000   0.03641
 293        3PX        -0.00000  -0.00000   0.00000   0.00000  -0.00317
 294        3PY         0.00000   0.00000   0.00000   0.00000  -0.01435
 295        3PZ        -0.03431   0.01889   0.15374   0.06625   0.00000
 296        4S          0.00000  -0.00000   0.00000  -0.00000   0.11788
 297        4PX        -0.00000  -0.00001  -0.00002  -0.00001   0.15170
 298        4PY         0.00000   0.00000  -0.00000   0.00000  -0.07924
 299        4PZ        -0.04343  -0.00450   0.30590   0.09017   0.00000
 300        5S          0.00002  -0.00011  -0.00055  -0.00041   5.20596
 301        5PX         0.00000  -0.00003   0.00009   0.00005   0.68985
 302        5PY        -0.00002   0.00003   0.00027   0.00019  -3.32770
 303        5PZ        -0.00655  -0.19638   0.43913   0.05780   0.00001
 304        6D 0       -0.00000  -0.00000   0.00000   0.00000  -0.00784
 305        6D+1        0.02489  -0.01271   0.01267   0.01470   0.00000
 306        6D-1        0.01493   0.02788   0.00946  -0.01795   0.00000
 307        6D+2        0.00000  -0.00000  -0.00000   0.00000  -0.00420
 308        6D-2       -0.00000  -0.00000  -0.00000  -0.00000   0.00291
 309 15  H  1S          0.00000  -0.00000  -0.00000  -0.00000   0.00751
 310        2S          0.00000  -0.00000   0.00000  -0.00000   0.00292
 311        3S         -0.00000   0.00000   0.00000   0.00000  -0.07863
 312        4S          0.00000  -0.00001  -0.00003  -0.00002  -0.63288
 313        5PX        -0.00000  -0.00000   0.00000   0.00000   0.00041
 314        5PY        -0.00000  -0.00000   0.00000  -0.00000   0.00524
 315        5PZ         0.00015   0.01027  -0.00125   0.01354   0.00000
 316 16  H  1S          0.00000   0.00000  -0.00000   0.00000  -0.00094
 317        2S          0.00000   0.00000  -0.00000  -0.00000  -0.00870
 318        3S          0.00000   0.00000  -0.00000  -0.00000  -0.04865
 319        4S          0.00000   0.00000  -0.00000   0.00000  -0.46989
 320        5PX         0.00000   0.00000   0.00000   0.00000  -0.00287
 321        5PY         0.00000   0.00000  -0.00000  -0.00000   0.00233
 322        5PZ         0.00883  -0.00430  -0.01032  -0.00493  -0.00000
 323 17  H  1S         -0.00000   0.00000  -0.00000   0.00000  -0.00076
 324        2S         -0.00000   0.00000   0.00000   0.00000  -0.01245
 325        3S         -0.00000  -0.00000  -0.00000  -0.00000  -0.05333
 326        4S         -0.00000   0.00000   0.00000   0.00000  -0.44820
 327        5PX        -0.00000   0.00000  -0.00000   0.00000  -0.00252
 328        5PY         0.00000   0.00000  -0.00000   0.00000  -0.00219
 329        5PZ         0.00088  -0.00442   0.01105  -0.00743   0.00000
 330 18  H  1S          0.00000   0.00000  -0.00000   0.00000   0.00725
 331        2S          0.00000   0.00000  -0.00000  -0.00000  -0.00070
 332        3S          0.00000   0.00000  -0.00001  -0.00000  -0.06869
 333        4S          0.00000   0.00000  -0.00001  -0.00000  -0.82748
 334        5PX         0.00000   0.00000  -0.00000  -0.00000   0.00152
 335        5PY         0.00000   0.00000   0.00000   0.00000  -0.00580
 336        5PZ        -0.00647   0.00876   0.00006   0.01337   0.00000
 337 19  H  1S          0.00000  -0.00000  -0.00000   0.00000   0.00911
 338        2S          0.00000  -0.00000   0.00000   0.00000  -0.00803
 339        3S         -0.00000   0.00000   0.00000   0.00000  -0.20709
 340        4S         -0.00000   0.00000   0.00001   0.00000  -1.72936
 341        5PX         0.00000   0.00000   0.00000   0.00000  -0.00053
 342        5PY         0.00000   0.00000  -0.00000   0.00000  -0.00668
 343        5PZ         0.01425   0.00541   0.00207   0.00211   0.00000
 344 20  H  1S         -0.00000  -0.00000  -0.00000  -0.00000   0.00732
 345        2S         -0.00000  -0.00000  -0.00000  -0.00000   0.00351
 346        3S         -0.00000  -0.00000  -0.00000  -0.00000  -0.03442
 347        4S         -0.00000  -0.00000  -0.00001  -0.00001  -0.57453
 348        5PX         0.00000   0.00000   0.00000   0.00000  -0.00170
 349        5PY        -0.00000  -0.00000   0.00000   0.00000  -0.00418
 350        5PZ        -0.00497   0.00917  -0.00543  -0.01143  -0.00000
 351 21  H  1S          0.00000  -0.00000  -0.00000   0.00000  -0.00063
 352        2S          0.00000   0.00000   0.00000   0.00000  -0.00931
 353        3S          0.00000   0.00000  -0.00000  -0.00000  -0.02811
 354        4S          0.00000   0.00000   0.00001   0.00000  -0.25211
 355        5PX         0.00000   0.00000  -0.00000   0.00000   0.00099
 356        5PY        -0.00000  -0.00000   0.00000   0.00000  -0.00138
 357        5PZ         0.00134  -0.00973  -0.00552   0.00710   0.00000
 358 22  H  1S         -0.00000  -0.00000   0.00000   0.00000  -0.00105
 359        2S         -0.00000  -0.00000  -0.00000  -0.00000  -0.00577
 360        3S         -0.00000  -0.00000  -0.00000  -0.00000  -0.02438
 361        4S         -0.00000  -0.00000  -0.00000  -0.00000  -0.26864
 362        5PX         0.00000   0.00000  -0.00000  -0.00000   0.00155
 363        5PY        -0.00000  -0.00000   0.00000  -0.00000   0.00140
 364        5PZ         0.00597   0.00009   0.01037   0.00374   0.00000
 365 23  H  1S          0.00000   0.00000  -0.00000  -0.00000   0.00663
 366        2S          0.00000   0.00000  -0.00000  -0.00000   0.00475
 367        3S          0.00000   0.00000   0.00000   0.00000  -0.07203
 368        4S          0.00000  -0.00000  -0.00003  -0.00002  -0.39381
 369        5PX        -0.00000  -0.00000  -0.00000  -0.00000  -0.00061
 370        5PY         0.00000   0.00000  -0.00000  -0.00000   0.00410
 371        5PZ         0.00015   0.01194  -0.00331  -0.01101  -0.00000
 372 24  H  1S          0.04203   0.03802  -0.00856   0.00210   0.00131
 373        2S          0.07360   0.09384  -0.02643   0.00361  -0.02126
[...]
 193        5PZ        -0.02801
 194        6D 0        0.00825
 195        6D+1        0.00850
 196        6D-1        0.01216
 197        6D+2        0.01210
 198        6D-2        0.01360
 199 10  C  1S          1.10550
 200        2S          0.88522
 201        2PX         0.24234
 202        2PY         0.24078
 203        2PZ         0.11471
 204        3S          0.80001
 205        3PX         0.55174
 206        3PY         0.54968
 207        3PZ         0.31067
 208        4S          0.41265
 209        4PX         0.15741
 210        4PY         0.34497
 211        4PZ         0.25635
 212        5S          0.03131
 213        5PX        -0.37915
 214        5PY         0.19846
 215        5PZ         0.04222
 216        6D 0        0.00298
 217        6D+1        0.01275
 218        6D-1        0.00359
 219        6D+2        0.02116
 220        6D-2        0.01512
 221 11  C  1S          1.10532
 222        2S          0.88549
 223        2PX         0.23771
 224        2PY         0.23177
 225        2PZ         0.15019
 226        3S          0.77048
 227        3PX         0.53699
 228        3PY         0.53142
 229        3PZ         0.39661
 230        4S          0.39638
 231        4PX         0.26242
 232        4PY         0.22497
 233        4PZ         0.31554
 234        5S          0.15717
 235        5PX        -0.26516
 236        5PY         0.62059
 237        5PZ         0.01137
 238        6D 0        0.00385
 239        6D+1        0.01071
 240        6D-1        0.00998
 241        6D+2        0.02267
 242        6D-2        0.02051
 243 12  C  1S          1.10521
 244        2S          0.88565
 245        2PX         0.23315
 246        2PY         0.22979
 247        2PZ         0.17366
 248        3S          0.75268
 249        3PX         0.52878
 250        3PY         0.52927
 251        3PZ         0.45810
 252        4S          0.38170
 253        4PX         0.15831
 254        4PY         0.19621
 255        4PZ         0.39657
 256        5S         -0.58226
 257        5PX        -0.46370
 258        5PY         0.30982
 259        5PZ        -0.05950
 260        6D 0        0.00447
 261        6D+1        0.00729
 262        6D-1        0.00822
 263        6D+2        0.02275
 264        6D-2        0.02212
 265 13  C  1S          1.10531
 266        2S          0.88559
 267        2PX         0.22709
 268        2PY         0.23615
 269        2PZ         0.15471
 270        3S          0.76529
 271        3PX         0.52912
 272        3PY         0.53110
 273        3PZ         0.40571
 274        4S          0.41580
 275        4PX         0.27337
 276        4PY         0.21333
 277        4PZ         0.33392
 278        5S          0.11559
 279        5PX        -0.29765
 280        5PY         0.62921
 281        5PZ         0.01658
 282        6D 0        0.00396
 283        6D+1        0.00902
 284        6D-1        0.01125
 285        6D+2        0.02039
 286        6D-2        0.02091
 287 14  C  1S          1.10520
 288        2S          0.88560
 289        2PX         0.22880
 290        2PY         0.23659
 291        2PZ         0.17506
 292        3S          0.75245
 293        3PX         0.52371
 294        3PY         0.53406
 295        3PZ         0.46179
 296        4S          0.36395
 297        4PX         0.14272
 298        4PY         0.19174
 299        4PZ         0.39492
 300        5S         -0.49816
 301        5PX        -0.47111
 302        5PY         0.29645
 303        5PZ        -0.06193
 304        6D 0        0.00445
 305        6D+1        0.00747
 306        6D-1        0.00973
 307        6D+2        0.02287
 308        6D-2        0.02283
 309 15  H  1S          0.27318
 310        2S          0.46339
 311        3S          0.03055
 312        4S         -0.03067
 313        5PX         0.00340
 314        5PY         0.01506
 315        5PZ         0.00456
 316 16  H  1S          0.27312
 317        2S          0.46121
 318        3S          0.00933
 319        4S         -0.02948
 320        5PX         0.01251
 321        5PY         0.00652
 322        5PZ         0.00361
 323 17  H  1S          0.27329
 324        2S          0.46271
 325        3S          0.01771
 326        4S         -0.02972
 327        5PX         0.01241
 328        5PY         0.00624
 329        5PZ         0.00444
 330 18  H  1S          0.27378
 331        2S          0.46477
 332        3S          0.03183
 333        4S         -0.01983
 334        5PX         0.00348
 335        5PY         0.01531
 336        5PZ         0.00424
 337 19  H  1S          0.27270
 338        2S          0.45404
 339        3S          0.01748
 340        4S          0.04266
 341        5PX         0.00339
 342        5PY         0.01637
 343        5PZ         0.00290
 344 20  H  1S          0.27341
 345        2S          0.46515
 346        3S          0.03828
 347        4S         -0.01951
 348        5PX         0.00343
 349        5PY         0.01492
 350        5PZ         0.00459
 351 21  H  1S          0.27309
 352        2S          0.46330
 353        3S          0.02183
 354        4S         -0.02738
 355        5PX         0.01158
 356        5PY         0.00675
 357        5PZ         0.00453
 358 22  H  1S          0.27379
 359        2S          0.46339
 360        3S          0.01572
 361        4S         -0.02711
 362        5PX         0.01260
 363        5PY         0.00641
 364        5PZ         0.00400
 365 23  H  1S          0.27372
 366        2S          0.46413
 367        3S          0.03547
 368        4S         -0.03234
 369        5PX         0.00331
 370        5PY         0.01463
 371        5PZ         0.00474
 372 24  H  1S          0.26302
 373        2S          0.42804
 374        3S          0.01142
 375        4S          0.02730
 376        5PX         0.00342
 377        5PY         0.00771
 378        5PZ         0.00919
 379 25  H  1S          0.26302
 380        2S          0.42804
 381        3S          0.01142
 382        4S          0.02730
 383        5PX         0.00342
 384        5PY         0.00771
 385        5PZ         0.00919
          Condensed to atoms (all electrons):
               1          2          3          4          5          6
     1  C    8.296731   0.491362  -0.620061   1.757067  -0.011954  -0.082559
     2  C    0.491362   7.191601   0.449631  -1.054925  -0.038667  -0.013455
     3  C   -0.620061   0.449631   6.623524   0.725139  -0.107898   0.016338
     4  C    1.757067  -1.054925   0.725139  11.790812  -0.373551  -0.144177
     5  C   -0.011954  -0.038667  -0.107898  -0.373551  10.266240   0.853700
     6  C   -0.082559  -0.013455   0.016338  -0.144177   0.853700   6.589326
     7  C   -0.030104  -0.000682  -0.013476   0.021478  -1.143713   0.174224
     8  C    0.401208  -0.002384  -0.104492  -0.077713   2.166984  -0.373805
     9  C   -1.084824  -0.902670   0.285702   0.120818  -0.424737   0.306042
    10  C   -1.174038   0.163267  -0.253333  -2.747386  -2.326142  -0.466374
    11  C    0.357821  -0.722626   0.809153  -0.511735  -1.329965  -0.064998
    12  C   -1.831659   1.047554  -1.354459  -1.727359  -0.170354  -0.329267
    13  C    0.229687  -0.200493  -0.257301  -1.597724  -0.148676   1.209631
    14  C   -1.189150  -0.288656  -0.081938  -0.563584  -1.541885  -1.543945
    15  H    0.366899  -0.105707  -0.003615   0.026122   0.006279   0.001176
    16  H   -0.019326   0.380338  -0.021848   0.016956  -0.001608  -0.000340
    17  H   -0.017925  -0.024455   0.381007  -0.067621   0.000147   0.000398
    18  H    0.046996   0.003059  -0.084445   0.472993   0.005755  -0.005104
    19  H   -0.042190  -0.007136   0.048899  -0.089071  -0.052263   0.052937
    20  H    0.006667   0.002013  -0.005199   0.006206   0.444876  -0.083833
    21  H   -0.001256  -0.000399   0.000390   0.000382  -0.064806   0.366382
    22  H    0.000376   0.000306  -0.000303  -0.001314   0.009934  -0.013946
    23  H    0.006743  -0.002189   0.000998   0.004324   0.028176   0.003580
    24  H    0.037686   0.015845  -0.001426  -0.011466  -0.012298  -0.001691
    25  H    0.037671   0.015842  -0.001427  -0.011468  -0.012295  -0.001694
               7          8          9         10         11         12
     1  C   -0.030104   0.401208  -1.084824  -1.174038   0.357821  -1.831659
     2  C   -0.000682  -0.002384  -0.902670   0.163267  -0.722626   1.047554
     3  C   -0.013476  -0.104492   0.285702  -0.253333   0.809153  -1.354459
     4  C    0.021478  -0.077713   0.120818  -2.747386  -0.511735  -1.727359
     5  C   -1.143713   2.166984  -0.424737  -2.326142  -1.329965  -0.170354
     6  C    0.174224  -0.373805   0.306042  -0.466374  -0.064998  -0.329267
     7  C    7.166710   0.016412  -0.759951   0.363600  -0.337979  -0.050764
     8  C    0.016412   8.896832  -1.133261  -1.359204   0.257479  -0.977164
     9  C   -0.759951  -1.133261   9.620816   0.217905   1.523813  -2.207900
    10  C    0.363600  -1.359204   0.217905   9.064401  -0.235979   2.355449
    11  C   -0.337979   0.257479   1.523813  -0.235979  14.664871  -4.042851
    12  C   -0.050764  -0.977164  -2.207900   2.355449  -4.042851  16.336134
    13  C   -1.077193   0.328264   1.479046  -0.620651   1.043080  -4.566373
    14  C    1.801807  -2.535278  -1.610468   2.482007  -4.855485   3.046056
    15  H   -0.002897   0.004605   0.089159  -0.007867  -0.033297  -0.010203
    16  H    0.000396   0.001132   0.003047  -0.009922   0.027334  -0.033100
    17  H   -0.000368  -0.001361  -0.004433   0.018618  -0.020284   0.078814
    18  H    0.002138   0.007046  -0.021141   0.005909  -0.011133  -0.045960
    19  H   -0.008876  -0.047333   0.072465   0.419297   0.075170  -0.098497
    20  H    0.003216   0.052365  -0.026329   0.018959  -0.011878  -0.003096
    21  H   -0.005429  -0.034396  -0.006548   0.020782  -0.006189   0.004816
    22  H    0.375140  -0.017474   0.003262  -0.008034   0.002023  -0.007113
    23  H   -0.109755   0.369384   0.092871  -0.011322   0.009292   0.003693
    24  H    0.012414   0.027038   0.355993   0.005262   0.025669  -0.059072
    25  H    0.012412   0.027029   0.356008   0.005265   0.025671  -0.059052
              13         14         15         16         17         18
     1  C    0.229687  -1.189150   0.366899  -0.019326  -0.017925   0.046996
     2  C   -0.200493  -0.288656  -0.105707   0.380338  -0.024455   0.003059
     3  C   -0.257301  -0.081938  -0.003615  -0.021848   0.381007  -0.084445
     4  C   -1.597724  -0.563584   0.026122   0.016956  -0.067621   0.472993
     5  C   -0.148676  -1.541885   0.006279  -0.001608   0.000147   0.005755
     6  C    1.209631  -1.543945   0.001176  -0.000340   0.000398  -0.005104
     7  C   -1.077193   1.801807  -0.002897   0.000396  -0.000368   0.002138
     8  C    0.328264  -2.535278   0.004605   0.001132  -0.001361   0.007046
     9  C    1.479046  -1.610468   0.089159   0.003047  -0.004433  -0.021141
    10  C   -0.620651   2.482007  -0.007867  -0.009922   0.018618   0.005909
    11  C    1.043080  -4.855485  -0.033297   0.027334  -0.020284  -0.011133
    12  C   -4.566373   3.046056  -0.010203  -0.033100   0.078814  -0.045960
    13  C   14.079487  -3.318763  -0.003930   0.003742  -0.006234  -0.012204
    14  C   -3.318763  15.732457   0.008082  -0.010629   0.005220  -0.026107
    15  H   -0.003930   0.008082   0.432693  -0.008608   0.001564   0.000278
    16  H    0.003742  -0.010629  -0.008608   0.413442  -0.006745   0.001990
    17  H   -0.006234   0.005220   0.001564  -0.006745   0.419707  -0.010248
    18  H   -0.012204  -0.026107   0.000278   0.001990  -0.010248   0.448339
    19  H    0.083961  -0.031991   0.000395  -0.000553   0.001679  -0.005911
    20  H   -0.003997  -0.064484  -0.000120   0.000019  -0.000164   0.001259
    21  H   -0.031418   0.101459   0.000017  -0.000007   0.000010  -0.000121
    22  H    0.023470  -0.029314  -0.000123   0.000007  -0.000006   0.000012
    23  H   -0.028649  -0.040184   0.000554  -0.000126   0.000011  -0.000103
    24  H   -0.000497  -0.058021  -0.000995   0.000616  -0.000132   0.000138
    25  H   -0.000504  -0.058012  -0.000995   0.000616  -0.000132   0.000138
              19         20         21         22         23         24
     1  C   -0.042190   0.006667  -0.001256   0.000376   0.006743   0.037686
     2  C   -0.007136   0.002013  -0.000399   0.000306  -0.002189   0.015845
     3  C    0.048899  -0.005199   0.000390  -0.000303   0.000998  -0.001426
     4  C   -0.089071   0.006206   0.000382  -0.001314   0.004324  -0.011466
     5  C   -0.052263   0.444876  -0.064806   0.009934   0.028176  -0.012298
     6  C    0.052937  -0.083833   0.366382  -0.013946   0.003580  -0.001691
     7  C   -0.008876   0.003216  -0.005429   0.375140  -0.109755   0.012414
     8  C   -0.047333   0.052365  -0.034396  -0.017474   0.369384   0.027038
     9  C    0.072465  -0.026329  -0.006548   0.003262   0.092871   0.355993
    10  C    0.419297   0.018959   0.020782  -0.008034  -0.011322   0.005262
    11  C    0.075170  -0.011878  -0.006189   0.002023   0.009292   0.025669
    12  C   -0.098497  -0.003096   0.004816  -0.007113   0.003693  -0.059072
    13  C    0.083961  -0.003997  -0.031418   0.023470  -0.028649  -0.000497
    14  C   -0.031991  -0.064484   0.101459  -0.029314  -0.040184  -0.058021
    15  H    0.000395  -0.000120   0.000017  -0.000123   0.000554  -0.000995
    16  H   -0.000553   0.000019  -0.000007   0.000007  -0.000126   0.000616
    17  H    0.001679  -0.000164   0.000010  -0.000006   0.000011  -0.000132
    18  H   -0.005911   0.001259  -0.000121   0.000012  -0.000103   0.000138
    19  H    0.443350  -0.006800   0.001158  -0.000510   0.000236   0.000572
    20  H   -0.006800   0.458231  -0.009957   0.001854   0.000013   0.000224
    21  H    0.001158  -0.009957   0.423848  -0.006054   0.001341  -0.000146
    22  H   -0.000510   0.001854  -0.006054   0.424516  -0.009201   0.000642
    23  H    0.000236   0.000013   0.001341  -0.009201   0.445523  -0.000770
    24  H    0.000572   0.000224  -0.000146   0.000642  -0.000770   0.493037
    25  H    0.000572   0.000224  -0.000146   0.000642  -0.000770  -0.078517
              25
     1  C    0.037671
     2  C    0.015842
     3  C   -0.001427
     4  C   -0.011468
     5  C   -0.012295
     6  C   -0.001694
     7  C    0.012412
     8  C    0.027029
     9  C    0.356008
    10  C    0.005265
    11  C    0.025671
    12  C   -0.059052
    13  C   -0.000504
    14  C   -0.058012
    15  H   -0.000995
    16  H    0.000616
    17  H   -0.000132
    18  H    0.000138
    19  H    0.000572
    20  H    0.000224
    21  H   -0.000146
    22  H    0.000642
    23  H   -0.000770
    24  H   -0.078517
    25  H    0.493030
 Mulliken charges:
               1
     1  C    0.068132
     2  C   -0.396371
     3  C   -0.429560
     4  C    0.036798
     5  C   -0.021279
     6  C   -0.448546
     7  C   -0.408759
     8  C    0.108086
     9  C   -0.344686
    10  C    0.079530
    11  C   -0.636977
    12  C    0.701724
    13  C   -0.605760
    14  C    0.670805
    15  H    0.240536
    16  H    0.263178
    17  H    0.252934
    18  H    0.226427
    19  H    0.190442
    20  H    0.219732
    21  H    0.246289
    22  H    0.251209
    23  H    0.236332
    24  H    0.249895
    25  H    0.249892
 Sum of Mulliken charges =   1.00000
 Mulliken charges with hydrogens summed into heavy atoms:
               1
     1  C    0.308668
     2  C   -0.133194
     3  C   -0.176627
     4  C    0.263224
     5  C    0.198453
     6  C   -0.202257
     7  C   -0.157550
     8  C    0.344418
     9  C    0.155101
    10  C    0.269972
    11  C   -0.636977
    12  C    0.701724
    13  C   -0.605760
    14  C    0.670805
 Electronic spatial extent (au):  <R**2>=           2868.4754
 Charge=              1.0000 electrons
 Dipole moment (field-independent basis, Debye):
    X=              1.2596    Y=              0.1618    Z=              0.0000  Tot=              1.2699
 Quadrupole moment (field-independent basis, Debye-Ang):
   XX=            -30.7175   YY=            -56.2035   ZZ=            -84.2577
   XY=              0.1027   XZ=              0.0001   YZ=             -0.0000
 Traceless Quadrupole moment (field-independent basis, Debye-Ang):
   XX=             26.3421   YY=              0.8561   ZZ=            -27.1982
   XY=              0.1027   XZ=              0.0001   YZ=             -0.0000
 Octapole moment (field-independent basis, Debye-Ang**2):
  XXX=             14.0040  YYY=              5.2962  ZZZ=              0.0000  XYY=              2.9514
  XXY=             -5.3949  XXZ=             -0.0000  XZZ=              1.8336  YZZ=             -3.1446
  YYZ=              0.0000  XYZ=             -0.0003
 Hexadecapole moment (field-independent basis, Debye-Ang**3):
 XXXX=          -2126.0079 YYYY=           -611.6703 ZZZZ=            -99.6683 XXXY=             -2.8769
 XXXZ=             -0.0006 YYYX=              1.1537 YYYZ=             -0.0001 ZZZX=             -0.0001
 ZZZY=             -0.0000 XXYY=           -509.0375 XXZZ=           -594.1580 YYZZ=           -146.4630
 XXYZ=              0.0001 YYXZ=              0.0006 ZZXY=              0.5867
 N-N= 7.794682146187D+02 E-N=-2.795192849208D+03  KE= 5.373854335843D+02
 Orbital energies and kinetic energies (alpha):
                                 1                 2
  43         O                -0.542163          1.568089
  44         O                -0.523351          1.038846
  45         O                -0.474194          1.138291
  46         O                -0.460664          1.148552
  47         O                -0.435833          1.153889
  48         V                -0.261343          1.267887
  49         V                -0.147388          1.108994
  50         V                -0.140750          1.307710
  51         V                -0.128142          1.277819
  52         V                -0.111838          0.204439
 Total kinetic energy from orbitals= 5.373854335843D+02
 Unable to Open any file for archive entry.
 1\1\GINC-GADI-CPU-CLX-0957\SP\RM062X\6-311++G(d,p)\C14H11(1+)\TS1578\1
 4-Jul-2022\0\\#n M062X/6-311++G(d,p) SP pop=reg formcheck\\SP_-14\\1,1
 \C,0,2.4724949241,1.3725127616,0.\C,0,3.6822414936,0.6708940829,0.\C,0
 ,3.6775636028,-0.7308071686,0.\C,0,2.4997881288,-1.4143667747,0.\C,0,-
 2.4380318712,-1.3905259869,0.\C,0,-3.7071491588,-0.6829819737,0.\C,0,-
 3.737391268,0.6930114403,0.\C,0,-2.5237669799,1.3730872384,0.\C,0,-0.0
 119203939,1.4656746656,0.\C,0,0.0449528108,-1.4243863808,0.\C,0,1.2795
 563972,0.7052824005,0.\C,0,1.2519059171,-0.7264760033,0.\C,0,-1.249539
 9836,0.6698084571,0.\C,0,-1.2293577021,-0.7203003775,0.\H,0,2.48697732
 46,2.457411904,0.\H,0,4.6205704473,1.2125894173,0.\H,0,4.6168439967,-1
 .2693187649,0.\H,0,2.4888136356,-2.4980014403,0.\H,0,0.0383463275,-2.5
 072827616,0.\H,0,-2.4583663644,-2.4758840829,0.\H,0,-4.6225887649,-1.2
 635739967,0.\H,0,-4.6732786951,1.2329833443,0.\H,0,-2.5030626754,2.458
 7044768,0.\H,0,-0.066208453,2.1568236192,-0.8633391424\H,0,-0.06635207
 22,2.1568236192,0.8633391424\\Version=ES64L-G16RevC.01\State=1-A\HF=-5
 39.7502956\RMSD=3.544e-09\Dipole=0.4950288,-0.0676621,-0.0000006\Quadr
 upole=19.5822149,0.6389507,-20.2211655,-0.2301662,-0.0000974,-0.000003
 3\PG=C01 [X(C14H11)]\\@
 The archive entry for this job was punched.


 HE THAT WALD REACHE THE SWEITE ROSE
 SULD NOW AND THEN BE SCRATCHED WT THE SCHARPE BREERES.
 -- PROVERBS AND REASONS OF THE YEAR 1585
           AS REPRINTED IN PAISLEY MAGAZINE 1828.
 FChkPn:  Coordinates translated and rotated.
 FChkPn:  Coordinates match /B/ after translation and rotation.
 Job cpu time:       0 days  0 hours 21 minutes 11.6 seconds.
 Elapsed time:       0 days  0 hours  2 minutes 59.7 seconds.
 File lengths (MBytes):  RWF=     80 Int=      0 D2E=      0 Chk=     10 Scr=      1
 Normal termination of Gaussian 16 at Thu Jul 14 17:21:57 2022.
