 Entering Gaussian System, Link 0=g16
 Initial command:
 /apps/gaussian/g16c01/g16/l1.exe "/jobfs/51152907.gadi-pbs/Gau-213095.inp" -scrdir="/jobfs/51152907.gadi-pbs/"
 Entering Link 1 = /apps/gaussian/g16c01/g16/l1.exe PID=    213096.
  
 Copyright (c) 1988-2019, Gaussian, Inc.  All Rights Reserved.
  
 This is part of the Gaussian(R) 16 program.  It is based on
 the Gaussian(R) 09 system (copyright 2009, Gaussian, Inc.),
 the Gaussian(R) 03 system (copyright 2003, Gaussian, Inc.),
 the Gaussian(R) 98 system (copyright 1998, Gaussian, Inc.),
 the Gaussian(R) 94 system (copyright 1995, Gaussian, Inc.),
 the Gaussian 92(TM) system (copyright 1992, Gaussian, Inc.),
 the Gaussian 90(TM) system (copyright 1990, Gaussian, Inc.),
 the Gaussian 88(TM) system (copyright 1988, Gaussian, Inc.),
 the Gaussian 86(TM) system (copyright 1986, Carnegie Mellon
 University), and the Gaussian 82(TM) system (copyright 1983,
 Carnegie Mellon University). Gaussian is a federally registered
 trademark of Gaussian, Inc.
  
 This software contains proprietary and confidential information,
 including trade secrets, belonging to Gaussian, Inc.
  
 This software is provided under written license and may be
 used, copied, transmitted, or stored only in accord with that
 written license.
  
 The following legend is applicable only to US Government
 contracts under FAR:
  
                    RESTRICTED RIGHTS LEGEND
  
 Use, reproduction and disclosure by the US Government is
 subject to restrictions as set forth in subparagraphs (a)
 and (c) of the Commercial Computer Software - Restricted
 Rights clause in FAR 52.227-19.
  
 Gaussian, Inc.
 340 Quinnipiac St., Bldg. 40, Wallingford CT 06492
  
  
 ---------------------------------------------------------------
 Warning -- This program may not be used in any manner that
 competes with the business of Gaussian, Inc. or will provide
 assistance to any competitor of Gaussian, Inc.  The licensee
 of this program is prohibited from giving any competitor of
 Gaussian, Inc. access to this program.  By using this program,
 the user acknowledges that Gaussian, Inc. is engaged in the
 business of creating and licensing software in the field of
 computational chemistry and represents and warrants to the
 licensee that it is not a competitor of Gaussian, Inc. and that
 it will not use this program in any manner prohibited above.
 ---------------------------------------------------------------
  

 Cite this work as:
 Gaussian 16, Revision C.01,
 M. J. Frisch, G. W. Trucks, H. B. Schlegel, G. E. Scuseria, 
 M. A. Robb, J. R. Cheeseman, G. Scalmani, V. Barone, 
 G. A. Petersson, H. Nakatsuji, X. Li, M. Caricato, A. V. Marenich, 
 J. Bloino, B. G. Janesko, R. Gomperts, B. Mennucci, H. P. Hratchian, 
 J. V. Ortiz, A. F. Izmaylov, J. L. Sonnenberg, D. Williams-Young, 
 F. Ding, F. Lipparini, F. Egidi, J. Goings, B. Peng, A. Petrone, 
 T. Henderson, D. Ranasinghe, V. G. Zakrzewski, J. Gao, N. Rega, 
 G. Zheng, W. Liang, M. Hada, M. Ehara, K. Toyota, R. Fukuda, 
 J. Hasegawa, M. Ishida, T. Nakajima, Y. Honda, O. Kitao, H. Nakai, 
 T. Vreven, K. Throssell, J. A. Montgomery, Jr., J. E. Peralta, 
 F. Ogliaro, M. J. Bearpark, J. J. Heyd, E. N. Brothers, K. N. Kudin, 
 V. N. Staroverov, T. A. Keith, R. Kobayashi, J. Normand, 
 K. Raghavachari, A. P. Rendell, J. C. Burant, S. S. Iyengar, 
 J. Tomasi, M. Cossi, J. M. Millam, M. Klene, C. Adamo, R. Cammi, 
 J. W. Ochterski, R. L. Martin, K. Morokuma, O. Farkas, 
 J. B. Foresman, and D. J. Fox, Gaussian, Inc., Wallingford CT, 2019.
 
 ******************************************
 Gaussian 16:  ES64L-G16RevC.01  3-Jul-2019
                14-Jul-2022 
 ******************************************
 %NProcShared=8
 Will use up to    8 processors via shared memory.
 %mem = 32GB
 %Chk=check_sp_12
 -------------------------------------------
 #n M062X/6-311++G(d,p) SP pop=reg formcheck
 -------------------------------------------
 1/38=1,172=1/1;
 2/12=2,17=6,18=5,40=1/2;
 3/5=4,6=6,7=1111,11=2,25=1,30=1,74=-55/1,2,3;
 4//1;
 5/5=2,38=5/2;
 6/28=1/1;
 99/5=1,9=1/99;
 ------
 SP_-12
 ------
 Symbolic Z-matrix:
 Charge =  1 Multiplicity = 1
 C                     2.47621   1.37255   0. 
 C                     3.6862    0.67251   0. 
 C                     3.6797   -0.72742   0. 
 C                     2.49538  -1.41268   0. 
 C                    -2.44244  -1.39225   0. 
 C                    -3.70506  -0.68643   0. 
 C                    -3.73347   0.69147   0. 
 C                    -2.52016   1.37305   0. 
 C                    -0.01022   1.46582   0. 
 C                     0.03853  -1.42441   0. 
 C                     1.27742   0.70272   0. 
 C                     1.25029  -0.72605   0. 
 C                    -1.25169   0.67231   0. 
 C                    -1.23096  -0.72075   0. 
 H                     2.48813   2.45751   0. 
 H                     4.62437   1.21407   0. 
 H                     4.61727  -1.26893   0. 
 H                     2.48664  -2.49646   0. 
 H                     0.03287  -2.50732   0. 
 H                    -2.46054  -2.4775    0. 
 H                    -4.6222   -1.264     0. 
 H                    -4.66954   1.23155   0. 
 H                    -2.50191   2.45862   0. 
 H                    -0.05675   2.1568   -0.8634 
 H                    -0.05687   2.1568    0.8634 
 
                          Input orientation:                          
 ---------------------------------------------------------------------
 Center     Atomic      Atomic             Coordinates (Angstroms)
 Number     Number       Type             X           Y           Z
 ---------------------------------------------------------------------
      1          6           0        2.476209    1.372554    0.000000
      2          6           0        3.686201    0.672515    0.000000
      3          6           0        3.679697   -0.727422    0.000000
      4          6           0        2.495377   -1.412684    0.000000
      5          6           0       -2.442443   -1.392249    0.000000
      6          6           0       -3.705056   -0.686429    0.000000
      7          6           0       -3.733473    0.691473    0.000000
      8          6           0       -2.520156    1.373046    0.000000
      9          6           0       -0.010217    1.465818    0.000000
     10          6           0        0.038531   -1.424407    0.000000
     11          6           0        1.277423    0.702718    0.000000
     12          6           0        1.250285   -0.726045    0.000000
     13          6           0       -1.251694    0.672312    0.000000
     14          6           0       -1.230958   -0.720752    0.000000
     15          1           0        2.488126    2.457514    0.000000
     16          1           0        4.624366    1.214067    0.000000
     17          1           0        4.617275   -1.268929    0.000000
     18          1           0        2.486639   -2.496463    0.000000
     19          1           0        0.032868   -2.507324    0.000000
     20          1           0       -2.460541   -2.477505    0.000000
     21          1           0       -4.622199   -1.264005    0.000000
     22          1           0       -4.669545    1.231547    0.000000
     23          1           0       -2.501914    2.458622    0.000000
     24          1           0       -0.056750    2.156803   -0.863401
     25          1           0       -0.056873    2.156803    0.863401
 ---------------------------------------------------------------------
                    Distance matrix (angstroms):
                    1          2          3          4          5
     1  C    0.000000
     2  C    1.397904   0.000000
     3  C    2.420389   1.399952   0.000000
     4  C    2.785304   2.401274   1.368283   0.000000
     5  C    5.642452   6.467112   6.158133   4.937862   0.000000
     6  C    6.515170   7.515146   7.384868   6.242822   1.446504
     7  C    6.246920   7.419698   7.547738   6.574652   2.451256
     8  C    4.996365   6.245768   6.546002   5.737235   2.766387
     9  C    2.488175   3.780588   4.292525   3.816252   3.752902
    10  C    3.710156   4.207443   3.707274   2.456874   2.481182
    11  C    1.373233   2.408968   2.795751   2.440971   4.269226
    12  C    2.430433   2.808854   2.429413   1.421875   3.752342
    13  C    3.793099   4.937896   5.126195   4.288094   2.383337
    14  C    4.257348   5.110738   4.910660   3.790032   1.385137
    15  H    1.085026   2.149792   3.400538   3.870206   6.255493
    16  H    2.153996   1.083250   2.159115   3.381186   7.532110
    17  H    3.400235   2.153161   1.082719   2.126762   7.060795
    18  H    3.869031   3.388417   2.133751   1.083814   5.051251
    19  H    4.585124   4.843368   4.058006   2.694844   2.714877
    20  H    6.260547   6.906886   6.384773   5.069020   1.085406
    21  H    7.572241   8.531097   8.319219   7.119129   2.183525
    22  H    7.147144   8.374426   8.575978   7.637281   3.441553
    23  H    5.095218   6.440726   6.954365   6.321387   3.851331
    24  H    2.788617   4.118040   4.798464   4.472142   4.362656
    25  H    2.788729   4.118152   4.798560   4.472212   4.362588
                    6          7          8          9         10
     6  C    0.000000
     7  C    1.378194   0.000000
     8  C    2.376011   1.391646   0.000000
     9  C    4.275980   3.802925   2.511652   0.000000
    10  C    3.815633   4.324923   3.791124   2.890636   0.000000
    11  C    5.172507   5.010908   3.856286   1.496776   2.461608
    12  C    4.955500   5.181428   4.315369   2.528464   1.398591
    13  C    2.804489   2.481852   1.449146   1.473403   2.461891
    14  C    2.474336   2.873492   2.458866   2.504256   1.451459
    15  H    6.945494   6.467395   5.124350   2.687970   4.590189
    16  H    8.543487   8.374161   7.146291   4.641416   5.290692
    17  H    8.342692   8.577771   7.610713   5.375177   4.581383
    18  H    6.450838   6.989472   6.327803   4.683371   2.672552
    19  H    4.157853   4.941419   4.644912   3.973376   1.082932
    20  H    2.181002   3.415080   3.851013   4.642616   2.711895
    21  H    1.083856   2.147959   3.372332   5.359320   4.663489
    22  H    2.146828   1.080699   2.154041   4.665213   5.405559
    23  H    3.367328   2.153963   1.085729   2.682202   4.640234
    24  H    4.705270   4.051042   2.725455   1.106836   3.685051
    25  H    4.705175   4.050930   2.725344   1.106841   3.685055
                   11         12         13         14         15
    11  C    0.000000
    12  C    1.429021   0.000000
    13  C    2.529300   2.866235   0.000000
    14  C    2.884136   2.481249   1.393218   0.000000
    15  H    2.131927   3.415743   4.144057   4.892133   0.000000
    16  H    3.385780   3.892102   5.900982   6.166712   2.471777
    17  H    3.878402   3.410475   6.181684   5.873868   4.291812
    18  H    3.420082   2.159386   4.900639   4.119912   4.953977
    19  H    3.442860   2.157558   3.429312   2.188400   5.538764
    20  H    4.907768   4.103394   3.373819   2.144308   6.988829
    21  H    6.218805   5.897073   3.887110   3.434478   8.025362
    22  H    5.970434   6.235106   3.463300   3.954156   7.261904
    23  H    4.167323   4.921494   2.180357   3.423996   4.990040
    24  H    2.154029   3.280947   2.092144   3.225608   2.704123
    25  H    2.154105   3.280996   2.092074   3.225563   2.704239
                   16         17         18         19         20
    16  H    0.000000
    17  H    2.483006   0.000000
    18  H    4.282278   2.458953   0.000000
    19  H    5.910211   4.748727   2.453795   0.000000
    20  H    7.988968   7.180260   4.947216   2.493588   0.000000
    21  H    9.572868   9.239475   7.214882   4.818246   2.478981
    22  H    9.293927   9.617557   8.069016   6.007649   4.317032
    23  H    7.234140   8.036012   7.031253   5.575459   4.936301
    24  H    4.852531   5.858977   5.372818   4.744215   5.291548
    25  H    4.852650   5.859075   5.372876   4.744217   5.291492
                   21         22         23         24         25
    21  H    0.000000
    22  H    2.496001   0.000000
    23  H    4.284106   2.490851   0.000000
    24  H    5.769810   4.783245   2.610628   0.000000
    25  H    5.769713   4.783126   2.610513   1.726801   0.000000
 Stoichiometry    C14H11(1+)
 Framework group  C1[X(C14H11)]
 Deg. of freedom    69
 Full point group                 C1      NOp   1
 Largest Abelian subgroup         C1      NOp   1
 Largest concise Abelian subgroup C1      NOp   1
                         Standard orientation:                         
 ---------------------------------------------------------------------
 Center     Atomic      Atomic             Coordinates (Angstroms)
 Number     Number       Type             X           Y           Z
 ---------------------------------------------------------------------
      1          6           0        2.467293   -1.381081    0.000000
      2          6           0        3.682127   -0.689477    0.000000
      3          6           0        3.685363    0.710471    0.000000
      4          6           0        2.505839    1.403956    0.000000
      5          6           0       -2.432004    1.417875    0.000000
      6          6           0       -3.699497    0.720856    0.000000
      7          6           0       -3.737499   -0.656814    0.000000
      8          6           0       -2.528954   -1.346813    0.000000
      9          6           0       -0.019721   -1.457045    0.000000
     10          6           0        0.049134    1.432771    0.000000
     11          6           0        1.273197   -0.702921    0.000000
     12          6           0        1.256000    0.725996    0.000000
     13          6           0       -1.255647   -0.654920    0.000000
     14          6           0       -1.225220    0.737965    0.000000
     15          1           0        2.471663   -2.466098    0.000000
     16          1           0        4.616502   -1.237543    0.000000
     17          1           0        4.626685    1.245442    0.000000
     18          1           0        2.504641    2.487769    0.000000
     19          1           0        0.051006    2.515702    0.000000
     20          1           0       -2.442551    2.503231    0.000000
     21          1           0       -4.612599    1.304799    0.000000
     22          1           0       -4.677306   -1.190363    0.000000
     23          1           0       -2.518264   -2.432489    0.000000
     24          1           0       -0.071060   -2.147689    0.863401
     25          1           0       -0.071183   -2.147688   -0.863401
 ---------------------------------------------------------------------
 Rotational constants (GHZ):           2.1259988           0.4425547           0.3671034
 Standard basis: 6-311++G(d,p) (5D, 7F)
 There are   399 symmetry adapted cartesian basis functions of A   symmetry.
 There are   385 symmetry adapted basis functions of A   symmetry.
   385 basis functions,   603 primitive gaussians,   399 cartesian basis functions
    47 alpha electrons       47 beta electrons
       nuclear repulsion energy       779.4383714165 Hartrees.
 NAtoms=   25 NActive=   25 NUniq=   25 SFac= 1.00D+00 NAtFMM=   60 NAOKFM=F Big=F
 Integral buffers will be    131072 words long.
 Raffenetti 2 integral format.
 Two-electron integral symmetry is turned on.
 One-electron integrals computed using PRISM.
 NBasis=   385 RedAO= T EigKep=  1.15D-06  NBF=   385
 NBsUse=   379 1.00D-06 EigRej=  8.63D-07 NBFU=   379
 ExpMin= 3.60D-02 ExpMax= 4.56D+03 ExpMxC= 6.82D+02 IAcc=3 IRadAn=         5 AccDes= 0.00D+00
 Harris functional with IExCor= 1009 and IRadAn=       5 diagonalized for initial guess.
 HarFok:  IExCor= 1009 AccDes= 0.00D+00 IRadAn=         5 IDoV= 1 UseB2=F ITyADJ=14
 ICtDFT=  3500011 ScaDFX=  1.000000  1.000000  1.000000  1.000000
 FoFCou: FMM=F IPFlag=           0 FMFlag=      100000 FMFlg1=           0
         NFxFlg=           0 DoJE=T BraDBF=F KetDBF=T FulRan=T
         wScrn=  0.000000 ICntrl=       500 IOpCl=  0 I1Cent=   200000004 NGrid=           0
         NMat0=    1 NMatS0=      1 NMatT0=    0 NMatD0=    1 NMtDS0=    0 NMtDT0=    0
 Petite list used in FoFCou.
 Requested convergence on RMS density matrix=1.00D-08 within 128 cycles.
 Requested convergence on MAX density matrix=1.00D-06.
 Requested convergence on             energy=1.00D-06.
 No special actions if energy rises.
 SCF Done:  E(RM062X) =  -539.752619038     A.U. after   15 cycles
            NFock= 15  Conv=0.98D-08     -V/T= 2.0044

 **********************************************************************

            Population analysis using the SCF Density.

 **********************************************************************

 Orbital symmetries:
       Occupied  (A) (A) (A) (A) (A) (A) (A) (A) (A) (A) (A) (A)
                 (A) (A) (A) (A) (A) (A) (A) (A) (A) (A) (A) (A)
                 (A) (A) (A) (A) (A) (A) (A) (A) (A) (A) (A) (A)
                 (A) (A) (A) (A) (A) (A) (A) (A) (A) (A) (A)
       Virtual   (A) (A) (A) (A) (A) (A) (A) (A) (A) (A) (A) (A)
                 (A) (A) (A) (A) (A) (A) (A) (A) (A) (A) (A) (A)
                 (A) (A) (A) (A) (A) (A) (A) (A) (A) (A) (A) (A)
                 (A) (A) (A) (A) (A) (A) (A) (A) (A) (A) (A) (A)
                 (A) (A) (A) (A) (A) (A) (A) (A) (A) (A) (A) (A)
                 (A) (A) (A) (A) (A) (A) (A) (A) (A) (A) (A) (A)
                 (A) (A) (A) (A) (A) (A) (A) (A) (A) (A) (A) (A)
                 (A) (A) (A) (A) (A) (A) (A) (A) (A) (A) (A) (A)
                 (A) (A) (A) (A) (A) (A) (A) (A) (A) (A) (A) (A)
                 (A) (A) (A) (A) (A) (A) (A) (A) (A) (A) (A) (A)
                 (A) (A) (A) (A) (A) (A) (A) (A) (A) (A) (A) (A)
                 (A) (A) (A) (A) (A) (A) (A) (A) (A) (A) (A) (A)
                 (A) (A) (A) (A) (A) (A) (A) (A) (A) (A) (A) (A)
                 (A) (A) (A) (A) (A) (A) (A) (A) (A) (A) (A) (A)
                 (A) (A) (A) (A) (A) (A) (A) (A) (A) (A) (A) (A)
                 (A) (A) (A) (A) (A) (A) (A) (A) (A) (A) (A) (A)
                 (A) (A) (A) (A) (A) (A) (A) (A) (A) (A) (A) (A)
                 (A) (A) (A) (A) (A) (A) (A) (A) (A) (A) (A) (A)
                 (A) (A) (A) (A) (A) (A) (A) (A) (A) (A) (A) (A)
                 (A) (A) (A) (A) (A) (A) (A) (A) (A) (A) (A) (A)
                 (A) (A) (A) (A) (A) (A) (A) (A) (A) (A) (A) (A)
                 (A) (A) (A) (A) (A) (A) (A) (A) (A) (A) (A) (A)
                 (A) (A) (A) (A) (A) (A) (A) (A) (A) (A) (A) (A)
                 (A) (A) (A) (A) (A) (A) (A) (A) (A) (A) (A) (A)
                 (A) (A) (A) (A) (A) (A) (A) (A) (A) (A) (A) (A)
                 (A) (A) (A) (A) (A) (A) (A) (A) (A) (A) (A) (A)
                 (A) (A) (A) (A) (A) (A) (A) (A) (A) (A) (A) (A)
                 (A) (A) (A) (A) (A) (A) (A) (A)
 The electronic state is 1-A.
 Alpha  occ. eigenvalues --  -10.77675 -10.73851 -10.72950 -10.72797 -10.72194
 Alpha  occ. eigenvalues --  -10.72066 -10.71916 -10.71075 -10.70958 -10.70308
 Alpha  occ. eigenvalues --  -10.70094 -10.69996 -10.69846 -10.69450  -1.16324
 Alpha  occ. eigenvalues --   -1.12278  -1.06760  -1.05707  -1.01154  -1.00281
 Alpha  occ. eigenvalues --   -0.95491  -0.90933  -0.86313  -0.85758  -0.83724
 Alpha  occ. eigenvalues --   -0.78261  -0.75986  -0.74235  -0.69757  -0.69176
 Alpha  occ. eigenvalues --   -0.68265  -0.67982  -0.67964  -0.65159  -0.64164
 Alpha  occ. eigenvalues --   -0.62643  -0.61601  -0.60316  -0.59198  -0.59158
 Alpha  occ. eigenvalues --   -0.56829  -0.55423  -0.54335  -0.52334  -0.47228
 Alpha  occ. eigenvalues --   -0.46056  -0.43768
 Alpha virt. eigenvalues --   -0.26126  -0.14731  -0.14093  -0.12822  -0.11179
 Alpha virt. eigenvalues --   -0.10091  -0.09259  -0.07962  -0.07958  -0.07489
 Alpha virt. eigenvalues --   -0.07204  -0.07150  -0.05660  -0.05584  -0.05371
 Alpha virt. eigenvalues --   -0.03838  -0.03644  -0.03290  -0.03158  -0.02159
 Alpha virt. eigenvalues --   -0.01340  -0.00953   0.00172   0.00571   0.00634
 Alpha virt. eigenvalues --    0.01067   0.01496   0.01907   0.02115   0.02296
 Alpha virt. eigenvalues --    0.02436   0.02656   0.02717   0.03196   0.03441
 Alpha virt. eigenvalues --    0.04211   0.04479   0.04712   0.05000   0.05355
 Alpha virt. eigenvalues --    0.06032   0.06246   0.06566   0.07038   0.07254
 Alpha virt. eigenvalues --    0.07877   0.08013   0.08324   0.08583   0.08874
 Alpha virt. eigenvalues --    0.09455   0.09531   0.09880   0.10675   0.10877
 Alpha virt. eigenvalues --    0.11105   0.12040   0.12206   0.12626   0.12985
 Alpha virt. eigenvalues --    0.13441   0.13514   0.13959   0.14199   0.15784
 Alpha virt. eigenvalues --    0.16249   0.16396   0.17308   0.17425   0.17712
 Alpha virt. eigenvalues --    0.18040   0.18976   0.19324   0.19593   0.19816
 Alpha virt. eigenvalues --    0.21439   0.21530   0.22528   0.23038   0.23499
 Alpha virt. eigenvalues --    0.23845   0.24507   0.25301   0.26853   0.27476
 Alpha virt. eigenvalues --    0.28723   0.29249   0.29808   0.31258   0.35488
 Alpha virt. eigenvalues --    0.36164   0.38130   0.39206   0.40997   0.41311
 Alpha virt. eigenvalues --    0.41825   0.42155   0.43019   0.43590   0.44417
 Alpha virt. eigenvalues --    0.44578   0.44915   0.45825   0.46144   0.47901
 Alpha virt. eigenvalues --    0.48420   0.48727   0.49068   0.50564   0.51014
 Alpha virt. eigenvalues --    0.51052   0.51966   0.52143   0.52582   0.54063
 Alpha virt. eigenvalues --    0.54111   0.54520   0.55619   0.55914   0.57518
 Alpha virt. eigenvalues --    0.58185   0.58855   0.61427   0.62118   0.62263
 Alpha virt. eigenvalues --    0.63010   0.63437   0.64691   0.65058   0.67322
 Alpha virt. eigenvalues --    0.70167   0.70374   0.70994   0.72399   0.72801
 Alpha virt. eigenvalues --    0.75529   0.75879   0.76360   0.76699   0.77112
 Alpha virt. eigenvalues --    0.77781   0.77957   0.78193   0.79951   0.80270
 Alpha virt. eigenvalues --    0.81118   0.81528   0.82302   0.82844   0.85125
 Alpha virt. eigenvalues --    0.86957   0.88063   0.88193   0.89150   0.90556
 Alpha virt. eigenvalues --    0.90922   0.91353   0.93194   0.94435   0.96272
 Alpha virt. eigenvalues --    0.96706   1.00204   1.01131   1.01428   1.02720
 Alpha virt. eigenvalues --    1.03085   1.03179   1.04699   1.05832   1.08660
 Alpha virt. eigenvalues --    1.19482   1.22881   1.24015   1.24277   1.28722
 Alpha virt. eigenvalues --    1.29279   1.32050   1.34099   1.35685   1.35821
 Alpha virt. eigenvalues --    1.39169   1.39611   1.40620   1.42794   1.43258
 Alpha virt. eigenvalues --    1.43264   1.43975   1.46095   1.46144   1.46454
 Alpha virt. eigenvalues --    1.47537   1.47829   1.51517   1.53432   1.55347
 Alpha virt. eigenvalues --    1.55479   1.56111   1.56374   1.57606   1.61110
 Alpha virt. eigenvalues --    1.62822   1.63303   1.64120   1.65921   1.67997
 Alpha virt. eigenvalues --    1.68072   1.68489   1.69592   1.74155   1.75635
 Alpha virt. eigenvalues --    1.76810   1.77995   1.79314   1.79724   1.80926
 Alpha virt. eigenvalues --    1.82558   1.82849   1.83293   1.83683   1.83921
 Alpha virt. eigenvalues --    1.84348   1.85290   1.86156   1.88240   1.91149
 Alpha virt. eigenvalues --    1.91927   1.93646   1.95223   1.97393   1.97822
 Alpha virt. eigenvalues --    1.99569   2.02007   2.04090   2.06958   2.11343
 Alpha virt. eigenvalues --    2.11769   2.13963   2.14794   2.18599   2.20746
 Alpha virt. eigenvalues --    2.22238   2.27939   2.29717   2.33823   2.34288
 Alpha virt. eigenvalues --    2.35730   2.38176   2.39392   2.41807   2.44114
 Alpha virt. eigenvalues --    2.45676   2.45769   2.48715   2.52467   2.53105
 Alpha virt. eigenvalues --    2.54208   2.56708   2.57796   2.58458   2.59309
 Alpha virt. eigenvalues --    2.59953   2.61242   2.61900   2.63528   2.63555
 Alpha virt. eigenvalues --    2.64762   2.64964   2.65106   2.65651   2.67485
 Alpha virt. eigenvalues --    2.67802   2.70559   2.70785   2.73237   2.74659
 Alpha virt. eigenvalues --    2.76126   2.77478   2.79499   2.82344   2.83040
 Alpha virt. eigenvalues --    2.83958   2.86071   2.91806   2.96811   2.99115
 Alpha virt. eigenvalues --    2.99855   3.04289   3.08250   3.10393   3.13371
 Alpha virt. eigenvalues --    3.19678   3.21304   3.25475   3.28044   3.30103
 Alpha virt. eigenvalues --    3.31964   3.34137   3.43378   3.45551   3.46115
 Alpha virt. eigenvalues --    3.47395   3.48962   3.55879   3.65508   3.66354
 Alpha virt. eigenvalues --    3.67353   3.93266   3.93547   3.94894   3.95961
 Alpha virt. eigenvalues --    4.03415   4.06018   4.07148   4.11960   4.34914
 Alpha virt. eigenvalues --    4.60175   4.68513   4.70482  23.44996  23.59624
 Alpha virt. eigenvalues --   23.78969  23.81016  23.83982  23.88454  23.91109
 Alpha virt. eigenvalues --   23.94244  23.94951  23.96430  24.02742  24.05526
 Alpha virt. eigenvalues --   24.10287  24.12303
     Molecular Orbital Coefficients:
                          43        44        45        46        47
                           O         O         O         O         O
     Eigenvalues --    -0.54335  -0.52334  -0.47228  -0.46056  -0.43768
   1 1   C  1S         -0.00060   0.00000  -0.00000   0.00000   0.00000
   2        2S         -0.00098   0.00000  -0.00000   0.00000   0.00000
   3        2PX        -0.06126   0.00000  -0.00000  -0.00000   0.00000
   4        2PY        -0.03530   0.00000  -0.00000   0.00000  -0.00000
   5        2PZ         0.00000   0.07238  -0.12664   0.03374   0.04793
   6        3S          0.00143  -0.00000   0.00000  -0.00000  -0.00000
   7        3PX        -0.08583   0.00000  -0.00000  -0.00000   0.00000
   8        3PY        -0.05150   0.00000  -0.00000  -0.00000  -0.00000
   9        3PZ         0.00000   0.11665  -0.20705   0.05528   0.07936
  10        4S         -0.01317  -0.00000  -0.00000  -0.00000  -0.00000
  11        4PX        -0.06577  -0.00000  -0.00000  -0.00000   0.00000
  12        4PY        -0.06221  -0.00000  -0.00000  -0.00000  -0.00000
  13        4PZ         0.00000   0.09688  -0.17818   0.05151   0.07190
  14        5S          0.08377   0.00001  -0.00003  -0.00002  -0.00004
  15        5PX         0.06235  -0.00001   0.00005   0.00003   0.00004
  16        5PY        -0.00080  -0.00000   0.00001   0.00000   0.00001
  17        5PZ         0.00000   0.00228  -0.04471   0.00480   0.00277
  18        6D 0        0.00022  -0.00000  -0.00000  -0.00000   0.00000
  19        6D+1       -0.00000   0.00887   0.00940   0.01454   0.00004
  20        6D-1        0.00000   0.00728  -0.00865   0.00243   0.00371
  21        6D+2       -0.01277   0.00000  -0.00000  -0.00000   0.00000
  22        6D-2       -0.00931   0.00000  -0.00000   0.00000   0.00000
  23 2   C  1S          0.00180  -0.00000   0.00000   0.00000  -0.00000
  24        2S          0.00297  -0.00000   0.00000   0.00000  -0.00000
  25        2PX         0.05912  -0.00000   0.00000   0.00000  -0.00000
  26        2PY         0.04374  -0.00000   0.00000   0.00000  -0.00000
  27        2PZ        -0.00000   0.10073  -0.01478   0.09552   0.01846
  28        3S         -0.00982   0.00000  -0.00000  -0.00000   0.00000
  29        3PX         0.08440  -0.00000   0.00000   0.00000  -0.00000
  30        3PY         0.06195  -0.00000   0.00000   0.00000  -0.00000
  31        3PZ        -0.00000   0.16619  -0.02467   0.15729   0.03002
  32        4S          0.02171   0.00000   0.00000   0.00000  -0.00000
  33        4PX         0.05209  -0.00000  -0.00000  -0.00000  -0.00000
  34        4PY         0.03531  -0.00000   0.00000   0.00000   0.00000
  35        4PZ        -0.00000   0.12719  -0.02028   0.13503   0.02857
  36        5S         -0.02501  -0.00000  -0.00001  -0.00001  -0.00001
  37        5PX         0.01737  -0.00000   0.00001   0.00001   0.00001
  38        5PY         0.04872  -0.00000   0.00003   0.00002   0.00002
  39        5PZ        -0.00000  -0.00059   0.01249   0.00267   0.01488
  40        6D 0       -0.00020  -0.00000  -0.00000  -0.00000   0.00000
  41        6D+1       -0.00000  -0.00892   0.01248  -0.00424  -0.00511
  42        6D-1       -0.00000   0.00526   0.01950   0.00596  -0.00651
  43        6D+2       -0.00325  -0.00000   0.00000   0.00000  -0.00000
  44        6D-2       -0.01051   0.00000  -0.00000  -0.00000   0.00000
  45 3   C  1S         -0.00150   0.00000   0.00000   0.00000  -0.00000
  46        2S         -0.00250   0.00000   0.00000   0.00000  -0.00000
  47        2PX        -0.05389   0.00000  -0.00000  -0.00000   0.00000
  48        2PY        -0.03240   0.00000  -0.00000  -0.00000   0.00000
  49        2PZ        -0.00000   0.07381   0.11233   0.06633  -0.03362
  50        3S          0.00891  -0.00000  -0.00000  -0.00000   0.00000
  51        3PX        -0.07748   0.00000  -0.00000  -0.00000   0.00000
  52        3PY        -0.04701   0.00000  -0.00000  -0.00000  -0.00000
  53        3PZ        -0.00000   0.12022   0.18452   0.10813  -0.05521
  54        4S         -0.01386  -0.00000  -0.00000  -0.00000  -0.00000
  55        4PX        -0.06561   0.00000   0.00000   0.00000   0.00000
  56        4PY        -0.03587   0.00000   0.00000   0.00000   0.00000
  57        4PZ        -0.00000   0.09577   0.15717   0.09712  -0.04862
  58        5S         -0.04567   0.00001  -0.00004  -0.00002  -0.00003
  59        5PX        -0.00855  -0.00000  -0.00000  -0.00000  -0.00000
  60        5PY         0.04211  -0.00000   0.00002   0.00001   0.00001
  61        5PZ         0.00000   0.01062  -0.00146   0.02064  -0.01637
  62        6D 0       -0.00040   0.00000  -0.00000   0.00000   0.00000
  63        6D+1        0.00000  -0.00284  -0.01373   0.00128   0.00444
  64        6D-1       -0.00000  -0.01112   0.00781  -0.01210  -0.00420
  65        6D+2       -0.00969   0.00000  -0.00000  -0.00000   0.00000
  66        6D-2       -0.01428   0.00000  -0.00000  -0.00000   0.00000
  67 4   C  1S          0.00416  -0.00000   0.00000   0.00000  -0.00000
  68        2S          0.00689  -0.00000   0.00000   0.00000  -0.00000
  69        2PX         0.07190  -0.00000   0.00000   0.00000  -0.00000
  70        2PY         0.03742  -0.00000   0.00000   0.00000  -0.00000
  71        2PZ        -0.00000   0.00736   0.12912  -0.02431  -0.04400
  72        3S         -0.02216   0.00000  -0.00000  -0.00000   0.00000
  73        3PX         0.10266  -0.00000   0.00000   0.00000  -0.00000
  74        3PY         0.05436  -0.00000   0.00000   0.00000  -0.00000
  75        3PZ        -0.00000   0.01046   0.21143  -0.03992  -0.07100
  76        4S          0.02480   0.00000   0.00000   0.00000   0.00000
  77        4PX         0.04636  -0.00000   0.00000  -0.00000  -0.00000
  78        4PY         0.03877  -0.00000  -0.00000  -0.00000  -0.00000
  79        4PZ        -0.00000   0.01601   0.18697  -0.02961  -0.07472
  80        5S          0.20778   0.00001   0.00003   0.00001   0.00001
  81        5PX        -0.07821  -0.00000  -0.00002  -0.00001  -0.00001
  82        5PY        -0.04396  -0.00000  -0.00000  -0.00000  -0.00000
  83        5PZ        -0.00000  -0.01788   0.03461  -0.02957  -0.00335
  84        6D 0       -0.00066  -0.00000  -0.00000  -0.00000   0.00000
  85        6D+1        0.00000   0.01452   0.00917   0.01710  -0.00322
  86        6D-1        0.00000  -0.00289  -0.00836   0.00061   0.00241
  87        6D+2       -0.01077   0.00000  -0.00000  -0.00000   0.00000
  88        6D-2       -0.00778   0.00000  -0.00000   0.00000  -0.00000
  89 5   C  1S          0.00272   0.00000  -0.00000   0.00000   0.00000
  90        2S          0.00452   0.00000  -0.00000   0.00000   0.00000
  91        2PX         0.07030  -0.00000   0.00000   0.00000  -0.00000
  92        2PY         0.03378   0.00000  -0.00000   0.00000   0.00000
  93        2PZ        -0.00000   0.01577  -0.04975   0.05133  -0.12273
  94        3S         -0.01390  -0.00000   0.00000  -0.00000  -0.00000
  95        3PX         0.10033  -0.00000   0.00000   0.00000  -0.00000
  96        3PY         0.04877   0.00000  -0.00000   0.00000   0.00000
  97        3PZ        -0.00000   0.02473  -0.08200   0.08314  -0.20009
  98        4S         -0.03116  -0.00000   0.00000   0.00000   0.00000
  99        4PX         0.07452  -0.00000   0.00000   0.00000  -0.00000
 100        4PY         0.05108   0.00000  -0.00000  -0.00000  -0.00000
 101        4PZ        -0.00000   0.02804  -0.06617   0.06482  -0.19579
 102        5S         -0.17618  -0.00001   0.00000   0.00000   0.00001
 103        5PX        -0.11431  -0.00000   0.00001   0.00001   0.00001
 104        5PY         0.03550   0.00000  -0.00000  -0.00000  -0.00000
 105        5PZ        -0.00000  -0.01183  -0.02461   0.03229  -0.02977
 106        6D 0        0.00003   0.00000   0.00000   0.00000  -0.00000
 107        6D+1       -0.00000  -0.01196   0.00075   0.01698   0.01082
 108        6D-1        0.00000  -0.00344   0.00308  -0.00262   0.00631
 109        6D+2       -0.00822  -0.00000   0.00000  -0.00000  -0.00000
 110        6D-2       -0.00926   0.00000  -0.00000  -0.00000  -0.00000
 111 6   C  1S         -0.00025  -0.00000  -0.00000   0.00000   0.00000
 112        2S         -0.00041  -0.00000  -0.00000   0.00000   0.00000
 113        2PX        -0.06976   0.00000  -0.00000  -0.00000   0.00000
 114        2PY        -0.03428  -0.00000  -0.00000  -0.00000  -0.00000
 115        2PZ        -0.00000   0.07873  -0.03480  -0.06076  -0.11724
 116        3S         -0.00089   0.00000   0.00000  -0.00000  -0.00000
 117        3PX        -0.10102   0.00000  -0.00000  -0.00000   0.00000
 118        3PY        -0.04898  -0.00000  -0.00000  -0.00000  -0.00000
 119        3PZ        -0.00000   0.12793  -0.05734  -0.09808  -0.19266
 120        4S          0.02397   0.00000  -0.00000  -0.00000  -0.00000
 121        4PX        -0.06737   0.00000  -0.00000  -0.00000  -0.00000
 122        4PY        -0.01887  -0.00000   0.00000   0.00000   0.00000
 123        4PZ        -0.00000   0.09911  -0.04962  -0.08515  -0.17317
 124        5S         -0.02964  -0.00001  -0.00005  -0.00003  -0.00004
 125        5PX        -0.03732  -0.00000  -0.00000   0.00000   0.00000
 126        5PY        -0.06023   0.00000   0.00002   0.00001   0.00002
 127        5PZ         0.00000   0.00666   0.01398  -0.01679  -0.01445
 128        6D 0       -0.00002  -0.00000   0.00000   0.00000  -0.00000
 129        6D+1       -0.00000   0.00335  -0.00488   0.00371  -0.01194
 130        6D-1       -0.00000  -0.01141  -0.00280   0.01516  -0.00601
 131        6D+2       -0.00383  -0.00000   0.00000  -0.00000  -0.00000
 132        6D-2       -0.01361   0.00000  -0.00000  -0.00000   0.00000
 133 7   C  1S         -0.00277   0.00000  -0.00000  -0.00000   0.00000
 134        2S         -0.00461   0.00000  -0.00000  -0.00000   0.00000
 135        2PX         0.07368  -0.00000   0.00000   0.00000  -0.00000
 136        2PY         0.02654   0.00000  -0.00000  -0.00000   0.00000
 137        2PZ        -0.00000   0.10268   0.00513  -0.11084   0.00458
 138        3S          0.01571  -0.00000   0.00000   0.00000  -0.00000
 139        3PX         0.10678  -0.00000   0.00000   0.00000  -0.00000
 140        3PY         0.03794   0.00000  -0.00000  -0.00000   0.00000
 141        3PZ        -0.00000   0.16893   0.00906  -0.18215   0.00794
 142        4S         -0.00863  -0.00000   0.00000   0.00000   0.00000
 143        4PX         0.08314  -0.00000   0.00000   0.00000   0.00000
 144        4PY         0.03374   0.00000   0.00000   0.00000   0.00000
 145        4PZ        -0.00000   0.12598   0.00586  -0.15320   0.00713
 146        5S          0.11010   0.00000   0.00001  -0.00000   0.00000
 147        5PX         0.04779   0.00000  -0.00000  -0.00000  -0.00001
 148        5PY        -0.06750   0.00000   0.00003   0.00002   0.00003
 149        5PZ         0.00000   0.00290  -0.01817  -0.00551  -0.00395
 150        6D 0       -0.00019   0.00000   0.00000   0.00000  -0.00000
 151        6D+1        0.00000   0.00957   0.00392  -0.00745   0.01190
 152        6D-1       -0.00000   0.00577  -0.00631  -0.00404  -0.02066
 153        6D+2       -0.00958   0.00000  -0.00000  -0.00000   0.00000
 154        6D-2       -0.01805   0.00000  -0.00000  -0.00000   0.00000
 155 8   C  1S          0.00292  -0.00000   0.00000   0.00000  -0.00000
 156        2S          0.00482  -0.00000   0.00000   0.00000  -0.00000
 157        2PX        -0.08962   0.00000  -0.00000  -0.00000   0.00000
 158        2PY        -0.03095  -0.00000  -0.00000   0.00000   0.00000
 159        2PZ         0.00000   0.07572   0.04229  -0.06150   0.12276
 160        3S         -0.01555   0.00000  -0.00000  -0.00000   0.00000
 161        3PX        -0.12909   0.00000  -0.00000  -0.00000   0.00000
 162        3PY        -0.04469  -0.00000  -0.00000  -0.00000   0.00000
 163        3PZ         0.00000   0.12156   0.06845  -0.09966   0.20093
 164        4S          0.02106   0.00000  -0.00000  -0.00000  -0.00000
 165        4PX        -0.06780  -0.00000  -0.00000  -0.00000   0.00000
 166        4PY        -0.03445   0.00000  -0.00000  -0.00000  -0.00000
 167        4PZ         0.00000   0.09993   0.05995  -0.08973   0.18263
 168        5S         -0.12177  -0.00000  -0.00005  -0.00003  -0.00003
 169        5PX         0.11275  -0.00000  -0.00005  -0.00003  -0.00004
 170        5PY        -0.02111   0.00000   0.00000   0.00000   0.00000
 171        5PZ         0.00000  -0.00110   0.02676  -0.00847   0.04019
 172        6D 0       -0.00026   0.00000   0.00000  -0.00000  -0.00000
 173        6D+1        0.00000  -0.00829   0.00378   0.01481   0.00974
 174        6D-1        0.00000   0.00786   0.00198  -0.00445   0.00709
 175        6D+2       -0.00851  -0.00000   0.00000   0.00000  -0.00000
 176        6D-2       -0.01023   0.00000  -0.00000  -0.00000   0.00000
 177 9   C  1S          0.00349  -0.00000  -0.00000  -0.00000  -0.00000
 178        2S          0.00581  -0.00000  -0.00000  -0.00000  -0.00000
 179        2PX        -0.08289   0.00000  -0.00000  -0.00000   0.00000
 180        2PY        -0.03534  -0.00000  -0.00000  -0.00000  -0.00000
 181        2PZ         0.00001  -0.00683   0.02950   0.00307  -0.05398
 182        3S         -0.01878   0.00000   0.00000   0.00000   0.00000
 183        3PX        -0.12426   0.00000  -0.00000  -0.00000   0.00000
 184        3PY        -0.05224  -0.00000  -0.00000  -0.00000  -0.00000
 185        3PZ         0.00001  -0.00795   0.04483   0.00498  -0.08251
 186        4S          0.00104  -0.00000   0.00002   0.00001   0.00002
 187        4PX        -0.09040  -0.00000  -0.00000  -0.00000  -0.00000
 188        4PY        -0.05371  -0.00000  -0.00000  -0.00000  -0.00000
 189        4PZ         0.00001  -0.04344   0.04311   0.00497  -0.08448
 190        5S          0.01808  -0.00000   0.00005   0.00003   0.00004
 191        5PX         0.27605   0.00000   0.00001   0.00000  -0.00000
 192        5PY        -0.00304  -0.00000   0.00001   0.00001   0.00001
 193        5PZ         0.00000  -0.06867  -0.04499  -0.00662   0.08040
 194        6D 0        0.00389  -0.00000   0.00000  -0.00000  -0.00000
 195        6D+1        0.00000  -0.00051  -0.01419  -0.00926  -0.00774
 196        6D-1       -0.00000   0.00041  -0.00771  -0.00048   0.01664
 197        6D+2       -0.00988   0.00000  -0.00000  -0.00000   0.00000
 198        6D-2       -0.00849   0.00000  -0.00000  -0.00000   0.00000
 199 10  C  1S          0.00651  -0.00000  -0.00000  -0.00000  -0.00000
 200        2S          0.01080  -0.00000  -0.00000  -0.00000  -0.00000
 201        2PX         0.07151  -0.00000   0.00000   0.00000  -0.00000
 202        2PY         0.03328  -0.00000   0.00000   0.00000  -0.00000
 203        2PZ        -0.00000  -0.10342  -0.00781  -0.00767   0.01486
 204        3S         -0.03302   0.00000   0.00000   0.00000   0.00000
 205        3PX         0.10323  -0.00000   0.00000   0.00000  -0.00000
 206        3PY         0.04818  -0.00000   0.00000   0.00000   0.00000
 207        3PZ        -0.00000  -0.16850  -0.01330  -0.01227   0.02525
 208        4S         -0.03489   0.00000  -0.00001  -0.00000  -0.00001
 209        4PX         0.08421   0.00000   0.00000   0.00000  -0.00000
 210        4PY         0.05732  -0.00000   0.00000   0.00000   0.00000
 211        4PZ        -0.00000  -0.13957  -0.00943  -0.00907   0.01827
 212        5S          0.01365  -0.00000   0.00004   0.00003   0.00004
 213        5PX        -0.26172  -0.00001  -0.00001  -0.00000   0.00001
 214        5PY         0.00678   0.00000   0.00000  -0.00000   0.00000
 215        5PZ        -0.00000  -0.01422   0.02583   0.00623  -0.05321
 216        6D 0       -0.00097  -0.00000   0.00000   0.00000   0.00000
 217        6D+1       -0.00000  -0.00313   0.00474  -0.02353  -0.00013
 218        6D-1        0.00000   0.00926   0.00184   0.00071  -0.00378
 219        6D+2       -0.01168  -0.00000  -0.00000  -0.00000  -0.00000
 220        6D-2       -0.00836   0.00000  -0.00000  -0.00000   0.00000
 221 11  C  1S          0.00219  -0.00000   0.00000   0.00000  -0.00000
 222        2S          0.00363  -0.00000   0.00000   0.00000  -0.00000
 223        2PX         0.07076  -0.00000   0.00000   0.00000  -0.00000
 224        2PY         0.05953  -0.00000   0.00000   0.00000  -0.00000
 225        2PZ         0.00000   0.00034  -0.11458  -0.06059   0.02302
 226        3S         -0.01056   0.00000  -0.00000   0.00000   0.00000
 227        3PX         0.10464  -0.00000   0.00000   0.00000  -0.00000
 228        3PY         0.08806  -0.00000   0.00000   0.00000  -0.00000
 229        3PZ         0.00000  -0.00103  -0.18652  -0.10129   0.03734
 230        4S         -0.02400   0.00000  -0.00001  -0.00000   0.00000
 231        4PX         0.10207  -0.00000   0.00001   0.00000  -0.00000
 232        4PY         0.06118  -0.00000   0.00001   0.00000  -0.00000
 233        4PZ         0.00000   0.01354  -0.18359  -0.08514   0.03615
 234        5S          0.04878   0.00000  -0.00008  -0.00004  -0.00006
 235        5PX         0.10176   0.00001   0.00003   0.00002   0.00001
 236        5PY         0.23062   0.00002  -0.00006  -0.00004  -0.00008
 237        5PZ        -0.00000   0.01404   0.06794  -0.00869  -0.05089
 238        6D 0       -0.00036  -0.00000  -0.00000  -0.00000   0.00000
 239        6D+1       -0.00000   0.00984  -0.01442   0.00429   0.00850
 240        6D-1       -0.00000  -0.01190   0.00646  -0.01301   0.00183
 241        6D+2       -0.00908  -0.00000  -0.00000  -0.00000  -0.00000
 242        6D-2       -0.01592   0.00000  -0.00000  -0.00000   0.00000
 243 12  C  1S         -0.00152  -0.00000  -0.00000  -0.00000   0.00000
 244        2S         -0.00254  -0.00000  -0.00000  -0.00000   0.00000
 245        2PX        -0.06389   0.00000  -0.00000  -0.00000   0.00000
 246        2PY        -0.05392   0.00000  -0.00000  -0.00000   0.00000
 247        2PZ        -0.00000  -0.07729   0.01138  -0.10725   0.00209
 248        3S          0.00737   0.00000   0.00000   0.00000  -0.00000
 249        3PX        -0.09253   0.00000  -0.00000  -0.00000   0.00000
 250        3PY        -0.07857   0.00000  -0.00000  -0.00000   0.00000
 251        3PZ        -0.00000  -0.12666   0.01756  -0.17621   0.00090
 252        4S         -0.01588  -0.00000   0.00000  -0.00000   0.00000
 253        4PX        -0.10079   0.00000  -0.00001  -0.00000  -0.00000
 254        4PY        -0.08214  -0.00000  -0.00000   0.00000   0.00000
 255        4PZ        -0.00000  -0.11501   0.02530  -0.17551   0.01349
 256        5S         -0.18996  -0.00001   0.00010   0.00006   0.00010
 257        5PX        -0.23147  -0.00002  -0.00002  -0.00001   0.00001
 258        5PY         0.16157   0.00001  -0.00005  -0.00003  -0.00005
 259        5PZ         0.00000   0.01797  -0.06455   0.01801   0.05283
 260        6D 0       -0.00011  -0.00000  -0.00000  -0.00000  -0.00000
 261        6D+1       -0.00000   0.01242   0.01265  -0.00010  -0.00619
 262        6D-1       -0.00000  -0.00527   0.01857   0.00312  -0.00467
 263        6D+2       -0.00955   0.00000  -0.00000  -0.00000   0.00000
 264        6D-2       -0.01499   0.00000  -0.00000  -0.00000   0.00000
 265 13  C  1S          0.00112   0.00000  -0.00000  -0.00000   0.00000
 266        2S          0.00189   0.00000  -0.00000  -0.00000   0.00000
 267        2PX         0.07796  -0.00000   0.00000   0.00000  -0.00000
 268        2PY         0.04945   0.00000  -0.00000   0.00000   0.00000
 269        2PZ         0.00000   0.00782   0.04338   0.05385   0.11616
 270        3S         -0.00637  -0.00000   0.00000   0.00000  -0.00000
 271        3PX         0.11423  -0.00000   0.00000   0.00000  -0.00000
 272        3PY         0.07096   0.00000  -0.00000   0.00000   0.00000
 273        3PZ         0.00000   0.01243   0.07050   0.08938   0.18954
 274        4S         -0.01028  -0.00000  -0.00000  -0.00000  -0.00001
 275        4PX         0.11093  -0.00000  -0.00000  -0.00000  -0.00001
 276        4PY         0.07398   0.00000   0.00000   0.00000   0.00001
 277        4PZ         0.00000   0.02389   0.07421   0.07022   0.19831
 278        5S         -0.08871  -0.00000  -0.00008  -0.00004  -0.00006
 279        5PX         0.11911   0.00001  -0.00001  -0.00001  -0.00002
 280        5PY        -0.19071  -0.00001  -0.00009  -0.00005  -0.00005
 281        5PZ        -0.00000   0.01796  -0.00099   0.02172  -0.06908
 282        6D 0        0.00030   0.00000   0.00000  -0.00000  -0.00000
 283        6D+1        0.00000  -0.00927  -0.00174   0.00698  -0.01389
 284        6D-1       -0.00000  -0.00917  -0.00717   0.01486  -0.00148
 285        6D+2       -0.00962   0.00000  -0.00000  -0.00000  -0.00000
 286        6D-2       -0.01506   0.00000  -0.00000   0.00000   0.00000
 287 14  C  1S         -0.00302  -0.00000   0.00000  -0.00000  -0.00000
 288        2S         -0.00511  -0.00000   0.00000  -0.00000  -0.00000
 289        2PX        -0.06221   0.00000  -0.00000  -0.00000   0.00000
 290        2PY        -0.04479  -0.00000   0.00000  -0.00000  -0.00000
 291        2PZ        -0.00000  -0.05109  -0.02168   0.11411   0.00911
 292        3S          0.01491  -0.00000  -0.00000   0.00000   0.00000
 293        3PX        -0.09010   0.00000  -0.00000  -0.00000   0.00000
 294        3PY        -0.06519  -0.00000   0.00000  -0.00000  -0.00000
 295        3PZ        -0.00000  -0.08418  -0.03315   0.18718   0.01462
 296        4S          0.00848   0.00000  -0.00000  -0.00000  -0.00000
 297        4PX        -0.07271   0.00000   0.00001   0.00000   0.00001
 298        4PY        -0.02909   0.00000   0.00000   0.00000  -0.00000
 299        4PZ        -0.00000  -0.07692  -0.04558   0.18335   0.01427
 300        5S          0.18850   0.00001   0.00012   0.00007   0.00009
 301        5PX        -0.27030  -0.00002  -0.00002  -0.00001   0.00000
 302        5PY        -0.14901  -0.00001  -0.00006  -0.00003  -0.00003
 303        5PZ         0.00000   0.01228   0.00436  -0.03275   0.07386
 304        6D 0        0.00006   0.00000  -0.00000  -0.00000   0.00000
 305        6D+1       -0.00000  -0.01245   0.00345  -0.00387   0.01408
 306        6D-1       -0.00000  -0.00451  -0.00790  -0.00175  -0.02015
 307        6D+2       -0.00989  -0.00000   0.00000   0.00000  -0.00000
 308        6D-2       -0.01684   0.00000  -0.00000  -0.00000   0.00000
 309 15  H  1S          0.03864  -0.00000   0.00000   0.00000  -0.00000
 310        2S          0.05434  -0.00000   0.00000  -0.00000  -0.00000
 311        3S          0.02254   0.00000  -0.00000  -0.00000  -0.00000
 312        4S         -0.00832  -0.00000   0.00001   0.00000   0.00001
 313        5PX        -0.00363   0.00000  -0.00000  -0.00000   0.00000
 314        5PY         0.00217  -0.00000  -0.00000  -0.00000   0.00000
 315        5PZ         0.00000   0.00465  -0.00872   0.00243   0.00315
 316 16  H  1S          0.02663  -0.00000   0.00000   0.00000  -0.00000
 317        2S          0.03904  -0.00000   0.00000   0.00000  -0.00000
 318        3S          0.01775   0.00000   0.00000   0.00000  -0.00000
 319        4S          0.00762  -0.00000   0.00000   0.00000  -0.00000
 320        5PX         0.00036   0.00000  -0.00000  -0.00000  -0.00000
 321        5PY         0.00413  -0.00000   0.00000   0.00000  -0.00000
 322        5PZ        -0.00000   0.00642  -0.00103   0.00651   0.00122
 323 17  H  1S         -0.06092   0.00000  -0.00000  -0.00000   0.00000
 324        2S         -0.08887   0.00000  -0.00000  -0.00000   0.00000
 325        3S         -0.03384  -0.00000  -0.00000  -0.00000   0.00000
 326        4S         -0.00500  -0.00000  -0.00000  -0.00000  -0.00000
 327        5PX         0.00365  -0.00000   0.00000   0.00000  -0.00000
 328        5PY         0.00197  -0.00000   0.00000   0.00000  -0.00000
 329        5PZ        -0.00000   0.00471   0.00772   0.00451  -0.00245
 330 18  H  1S          0.03478  -0.00000   0.00000   0.00000  -0.00000
 331        2S          0.05163  -0.00000   0.00000   0.00000  -0.00000
 332        3S          0.02645  -0.00000   0.00000   0.00000   0.00000
 333        4S          0.01825  -0.00000   0.00000   0.00000   0.00000
 334        5PX         0.00340  -0.00000   0.00000   0.00000  -0.00000
 335        5PY        -0.00164   0.00000  -0.00000  -0.00000  -0.00000
 336        5PZ        -0.00000  -0.00010   0.00897  -0.00189  -0.00290
 337 19  H  1S          0.03018   0.00000   0.00000   0.00000   0.00000
 338        2S          0.04386  -0.00000   0.00000   0.00000  -0.00000
 339        3S          0.02123   0.00000  -0.00000  -0.00000  -0.00000
 340        4S          0.00290  -0.00000  -0.00000   0.00000  -0.00000
 341        5PX         0.00378  -0.00000   0.00000   0.00000  -0.00000
 342        5PY        -0.00078   0.00000   0.00000   0.00000   0.00000
 343        5PZ        -0.00000  -0.00646  -0.00029  -0.00045   0.00050
 344 20  H  1S          0.03075   0.00000  -0.00000   0.00000   0.00000
 345        2S          0.04507   0.00000   0.00000   0.00000   0.00000
 346        3S          0.01996   0.00000   0.00000   0.00000   0.00000
 347        4S         -0.01429   0.00000   0.00000   0.00000   0.00000
 348        5PX         0.00435  -0.00000   0.00000  -0.00000  -0.00000
 349        5PY        -0.00209  -0.00000  -0.00000  -0.00000  -0.00000
 350        5PZ        -0.00000   0.00052  -0.00369   0.00371  -0.00875
 351 21  H  1S          0.04008  -0.00000   0.00000   0.00000  -0.00000
 352        2S          0.05719  -0.00000   0.00000  -0.00000  -0.00000
 353        3S          0.02296  -0.00000   0.00000   0.00000  -0.00000
 354        4S          0.00581   0.00000  -0.00000  -0.00000  -0.00000
 355        5PX         0.00039  -0.00000   0.00000  -0.00000  -0.00000
 356        5PY        -0.00472   0.00000  -0.00000  -0.00000   0.00000
 357        5PZ        -0.00000   0.00501  -0.00239  -0.00405  -0.00844
 358 22  H  1S         -0.07282   0.00000  -0.00000  -0.00000   0.00000
 359        2S         -0.10608   0.00000  -0.00000   0.00000   0.00000
 360        3S         -0.04084  -0.00000   0.00000   0.00000   0.00000
 361        4S         -0.00727   0.00000   0.00000   0.00000   0.00000
 362        5PX        -0.00395   0.00000   0.00000   0.00000  -0.00000
 363        5PY        -0.00307   0.00000  -0.00000  -0.00000   0.00000
 364        5PZ        -0.00000   0.00662   0.00044  -0.00762   0.00035
 365 23  H  1S          0.02831   0.00000   0.00000  -0.00000   0.00000
 366        2S          0.04124   0.00000   0.00000  -0.00000   0.00000
 367        3S          0.01766   0.00000  -0.00000  -0.00000  -0.00000
 368        4S          0.01189   0.00000   0.00001   0.00000   0.00000
 369        5PX        -0.00427   0.00000  -0.00000  -0.00000   0.00000
 370        5PY         0.00132   0.00000   0.00000  -0.00000  -0.00000
 371        5PZ         0.00000   0.00484   0.00318  -0.00429   0.00866
 372 24  H  1S          0.02228  -0.00373   0.02697   0.00267  -0.05064
 373        2S          0.03225   0.00355   0.04189   0.00392  -0.08083
 374        3S          0.01395   0.02506   0.03332   0.00274  -0.06793
 375        4S         -0.00181   0.04512   0.01797   0.00112  -0.03641
 376        5PX        -0.00401  -0.00006  -0.00200  -0.00052  -0.00182
 377        5PY        -0.00017   0.00084   0.00184   0.00017  -0.00282
 378        5PZ        -0.00214   0.00014  -0.00077  -0.00001   0.00146
 379 25  H  1S          0.02227   0.00373  -0.02697  -0.00267   0.05064
 380        2S          0.03225  -0.00355  -0.04189  -0.00393   0.08083
 381        3S          0.01395  -0.02506  -0.03334  -0.00275   0.06791
 382        4S         -0.00181  -0.04512  -0.01798  -0.00113   0.03640
 383        5PX        -0.00401   0.00006   0.00200   0.00052   0.00182
 384        5PY        -0.00017  -0.00084  -0.00184  -0.00017   0.00282
 385        5PZ         0.00214   0.00014  -0.00077  -0.00001   0.00146
                          48        49        50        51        52
                           V         V         V         V         V
     Eigenvalues --    -0.26126  -0.14731  -0.14093  -0.12822  -0.11179
   1 1   C  1S         -0.00000   0.00000  -0.00000   0.00000  -0.00718
   2        2S         -0.00000   0.00000  -0.00000   0.00000  -0.01216
   3        2PX        -0.00000  -0.00000  -0.00000  -0.00000   0.00358
   4        2PY         0.00000   0.00000  -0.00000   0.00000  -0.01681
   5        2PZ        -0.00499   0.08720  -0.01020   0.11583   0.00000
   6        3S         -0.00000  -0.00000   0.00000  -0.00000   0.03910
   7        3PX        -0.00000   0.00000   0.00000   0.00000   0.00334
   8        3PY         0.00000   0.00000  -0.00000   0.00000  -0.02450
   9        3PZ        -0.00709   0.13414  -0.01576   0.18406   0.00000
  10        4S         -0.00000  -0.00000   0.00001   0.00000   0.04784
  11        4PX        -0.00000  -0.00001  -0.00000  -0.00001   0.02652
  12        4PY        -0.00000  -0.00000   0.00000   0.00000  -0.08478
  13        4PZ        -0.00525   0.25700  -0.04360   0.33606   0.00000
  14        5S         -0.00001   0.00004   0.00014   0.00013  -1.91748
  15        5PX         0.00001  -0.00009  -0.00020  -0.00017   1.22064
  16        5PY         0.00000  -0.00001  -0.00002  -0.00002  -0.50279
  17        5PZ         0.01176   0.19142  -0.06229   0.38958   0.00001
  18        6D 0       -0.00000  -0.00000   0.00000  -0.00000  -0.00617
  19        6D+1        0.02050   0.00010  -0.02722   0.00364  -0.00000
  20        6D-1       -0.00186  -0.00832   0.00025  -0.01001   0.00000
  21        6D+2       -0.00000  -0.00000  -0.00000  -0.00000   0.00188
  22        6D-2       -0.00000  -0.00000  -0.00000  -0.00000  -0.00162
  23 2   C  1S          0.00000   0.00000   0.00000   0.00000  -0.00606
  24        2S          0.00000   0.00000   0.00000   0.00000  -0.01008
  25        2PX         0.00000  -0.00000   0.00000  -0.00000   0.00976
  26        2PY         0.00000   0.00000   0.00000  -0.00000  -0.00161
  27        2PZ         0.09951  -0.04283  -0.09706  -0.04768  -0.00000
  28        3S         -0.00000  -0.00000  -0.00000  -0.00000   0.02963
  29        3PX         0.00000  -0.00000   0.00000  -0.00000   0.01562
  30        3PY         0.00000   0.00000   0.00000  -0.00000  -0.00432
  31        3PZ         0.16288  -0.06712  -0.15449  -0.07502  -0.00000
  32        4S          0.00000   0.00001  -0.00000   0.00000   0.13203
  33        4PX        -0.00000  -0.00000   0.00000  -0.00000   0.00793
  34        4PY         0.00000  -0.00000  -0.00000  -0.00000   0.00978
  35        4PZ         0.19197  -0.12048  -0.26054  -0.13524  -0.00000
  36        5S          0.00000   0.00004   0.00005   0.00005   0.17574
  37        5PX         0.00000  -0.00002  -0.00005  -0.00004   0.41132
  38        5PY         0.00001  -0.00005  -0.00011  -0.00009   0.47611
  39        5PZ         0.06182  -0.09878  -0.21939  -0.14338  -0.00001
  40        6D 0       -0.00000  -0.00000   0.00000  -0.00000  -0.00432
  41        6D+1        0.00218  -0.01130   0.00189  -0.01599  -0.00000
  42        6D-1        0.00045  -0.01496   0.01691  -0.02118  -0.00000
  43        6D+2        0.00000   0.00000  -0.00000   0.00000  -0.00241
  44        6D-2       -0.00000  -0.00000  -0.00000  -0.00000   0.00488
  45 3   C  1S          0.00000   0.00000  -0.00000   0.00000  -0.00521
  46        2S          0.00000   0.00000  -0.00000   0.00000  -0.00865
  47        2PX        -0.00000   0.00000  -0.00000  -0.00000   0.01017
  48        2PY         0.00000   0.00000  -0.00000   0.00000   0.00177
  49        2PZ         0.00718  -0.05136   0.10339  -0.07034   0.00000
  50        3S         -0.00000  -0.00000  -0.00000  -0.00000   0.02536
  51        3PX        -0.00000   0.00000  -0.00000  -0.00000   0.01673
  52        3PY         0.00000   0.00000   0.00000   0.00000   0.00376
  53        3PZ         0.01397  -0.08067   0.16429  -0.11054   0.00000
  54        4S         -0.00000  -0.00000   0.00001   0.00000   0.09655
  55        4PX         0.00000   0.00000  -0.00000  -0.00000   0.02178
  56        4PY         0.00000   0.00000  -0.00000  -0.00000   0.02359
  57        4PZ         0.00719  -0.15083   0.28306  -0.20566   0.00000
  58        5S         -0.00002   0.00006   0.00013   0.00009   0.35406
  59        5PX         0.00000   0.00001   0.00002   0.00002  -0.00124
  60        5PY         0.00001  -0.00003  -0.00008  -0.00006   0.52218
  61        5PZ         0.00019  -0.11608   0.22893  -0.21496   0.00000
  62        6D 0       -0.00000  -0.00000   0.00000   0.00000  -0.00453
  63        6D+1        0.01090  -0.01015  -0.00003  -0.01489  -0.00000
  64        6D-1       -0.01735   0.01290   0.01431   0.01715   0.00000
  65        6D+2       -0.00000  -0.00000   0.00000   0.00000  -0.00320
  66        6D-2       -0.00000   0.00000  -0.00000   0.00000  -0.00454
  67 4   C  1S          0.00000   0.00000  -0.00000   0.00000  -0.00759
  68        2S          0.00000   0.00000  -0.00000   0.00000  -0.01279
  69        2PX         0.00000   0.00000  -0.00000  -0.00000   0.00372
  70        2PY         0.00000   0.00000  -0.00000  -0.00000   0.01935
  71        2PZ        -0.08587   0.08198  -0.00016   0.11148   0.00000
  72        3S         -0.00000  -0.00000   0.00000  -0.00000   0.03874
  73        3PX         0.00000   0.00000  -0.00000   0.00000   0.00390
  74        3PY         0.00000   0.00000  -0.00000  -0.00000   0.02657
  75        3PZ        -0.13944   0.12585   0.00075   0.17712   0.00000
  76        4S          0.00000  -0.00000  -0.00001  -0.00000   0.20982
  77        4PX         0.00000   0.00000   0.00000   0.00000  -0.04912
  78        4PY        -0.00000   0.00000   0.00001   0.00000   0.04774
  79        4PZ        -0.16388   0.25644  -0.00211   0.32059   0.00000
  80        5S         -0.00000   0.00001  -0.00010  -0.00006   1.55400
  81        5PX        -0.00000   0.00001   0.00008   0.00006  -0.96860
  82        5PY        -0.00000   0.00000   0.00001   0.00000   0.75539
  83        5PZ        -0.04238   0.25458   0.05276   0.38031   0.00000
  84        6D 0       -0.00000  -0.00000   0.00000   0.00000  -0.00603
  85        6D+1        0.00048  -0.00494   0.02971  -0.00472   0.00000
  86        6D-1        0.00353   0.00707   0.00016   0.01075   0.00000
  87        6D+2       -0.00000  -0.00000   0.00000  -0.00000   0.00190
  88        6D-2        0.00000   0.00000  -0.00000   0.00000   0.00233
  89 5   C  1S         -0.00000  -0.00000   0.00000  -0.00000  -0.00571
  90        2S         -0.00000  -0.00000   0.00000   0.00000  -0.00960
  91        2PX         0.00000   0.00000   0.00000   0.00000  -0.00402
  92        2PY        -0.00000  -0.00000  -0.00000  -0.00000   0.01536
  93        2PZ        -0.07087   0.08720  -0.05029  -0.10352  -0.00000
  94        3S          0.00000   0.00000  -0.00000  -0.00000   0.02839
  95        3PX         0.00000   0.00000  -0.00000   0.00000  -0.00431
  96        3PY        -0.00000  -0.00000   0.00000  -0.00000   0.02068
  97        3PZ        -0.11464   0.13296  -0.07990  -0.16457  -0.00000
  98        4S          0.00000  -0.00000  -0.00001  -0.00000   0.19873
  99        4PX         0.00000   0.00000  -0.00000  -0.00000   0.04675
 100        4PY        -0.00000   0.00000   0.00001   0.00000   0.02111
 101        4PZ        -0.13050   0.25482  -0.15187  -0.27833  -0.00000
 102        5S          0.00001  -0.00002  -0.00002  -0.00001   1.80997
 103        5PX         0.00000  -0.00001  -0.00004  -0.00003   0.77979
 104        5PY         0.00000   0.00000   0.00000   0.00000   0.55462
 105        5PZ        -0.02898   0.22519  -0.18087  -0.29636  -0.00000
 106        6D 0        0.00000   0.00000  -0.00000   0.00000  -0.00531
 107        6D+1       -0.00201   0.01597   0.02055  -0.00460   0.00000
 108        6D-1        0.00371   0.00714  -0.00203  -0.00804  -0.00000
 109        6D+2        0.00000   0.00000   0.00000  -0.00000   0.00051
 110        6D-2        0.00000   0.00000  -0.00000  -0.00000  -0.00213
 111 6   C  1S         -0.00000  -0.00000   0.00000   0.00000  -0.00350
 112        2S         -0.00000  -0.00000   0.00000   0.00000  -0.00579
 113        2PX         0.00000   0.00000   0.00000  -0.00000  -0.00637
 114        2PY        -0.00000  -0.00000   0.00000   0.00000   0.00021
 115        2PZ         0.01346  -0.09855  -0.05556   0.06871  -0.00000
 116        3S          0.00000   0.00000  -0.00000  -0.00000   0.01644
 117        3PX         0.00000   0.00000   0.00000   0.00000  -0.01175
 118        3PY        -0.00000  -0.00000   0.00000   0.00000   0.00116
 119        3PZ         0.02291  -0.15449  -0.08828   0.10755  -0.00000
 120        4S          0.00000   0.00001   0.00000   0.00000   0.05780
 121        4PX         0.00000   0.00000   0.00000   0.00000  -0.01198
 122        4PY        -0.00000  -0.00000  -0.00000  -0.00000   0.01999
 123        4PZ         0.01687  -0.26221  -0.15030   0.18206  -0.00000
 124        5S          0.00001   0.00002   0.00020   0.00014   0.11477
 125        5PX         0.00000   0.00000  -0.00001  -0.00001   0.01432
 126        5PY         0.00000  -0.00001  -0.00008  -0.00006   0.33997
 127        5PZ         0.00361  -0.19616  -0.11131   0.17852  -0.00000
 128        6D 0        0.00000   0.00000   0.00000  -0.00000  -0.00356
 129        6D+1       -0.00874   0.01004  -0.00725  -0.01356  -0.00000
 130        6D-1       -0.01250   0.00677  -0.01813  -0.01341  -0.00000
 131        6D+2        0.00000   0.00000   0.00000   0.00000  -0.00208
 132        6D-2       -0.00000   0.00000   0.00000  -0.00000   0.00313
 133 7   C  1S         -0.00000   0.00000   0.00000   0.00000  -0.00416
 134        2S         -0.00000   0.00000   0.00000   0.00000  -0.00688
 135        2PX         0.00000  -0.00000  -0.00000   0.00000  -0.00568
 136        2PY        -0.00000   0.00000   0.00000  -0.00000  -0.00036
 137        2PZ         0.07109  -0.00587   0.09963   0.03798   0.00000
 138        3S          0.00000   0.00000  -0.00000  -0.00000   0.01961
 139        3PX         0.00000  -0.00000  -0.00000   0.00000  -0.00983
 140        3PY        -0.00000   0.00000  -0.00000  -0.00000  -0.00213
 141        3PZ         0.11652  -0.00801   0.15856   0.05976   0.00000
 142        4S         -0.00000  -0.00001   0.00000   0.00000   0.10094
 143        4PX        -0.00000  -0.00000  -0.00000  -0.00000   0.00591
 144        4PY         0.00000  -0.00000  -0.00000  -0.00000   0.01173
 145        4PZ         0.13423  -0.02177   0.26251   0.10364   0.00000
 146        5S         -0.00001  -0.00002  -0.00000   0.00001   0.62620
 147        5PX        -0.00000  -0.00000   0.00003   0.00002  -0.14395
 148        5PY         0.00000  -0.00001  -0.00012  -0.00009   0.32741
 149        5PZ         0.04165  -0.01382   0.20871   0.11321   0.00001
 150        6D 0        0.00000   0.00000  -0.00000   0.00000  -0.00326
 151        6D+1       -0.00168   0.01261  -0.00355  -0.01359  -0.00000
 152        6D-1        0.00150  -0.02302  -0.00722   0.01893   0.00000
 153        6D+2       -0.00000  -0.00000   0.00000   0.00000  -0.00205
 154        6D-2       -0.00000  -0.00000   0.00000   0.00000  -0.00347
 155 8   C  1S         -0.00000  -0.00000   0.00000   0.00000  -0.00540
 156        2S         -0.00000  -0.00000   0.00000   0.00000  -0.00915
 157        2PX        -0.00000   0.00000   0.00000   0.00000  -0.00349
 158        2PY        -0.00000  -0.00000   0.00000   0.00000  -0.01428
 159        2PZ        -0.00473   0.10158  -0.02194  -0.09976  -0.00000
 160        3S          0.00000   0.00000  -0.00000  -0.00000   0.03015
 161        3PX        -0.00000   0.00000  -0.00000  -0.00000  -0.00348
 162        3PY        -0.00000  -0.00000   0.00000   0.00000  -0.02104
 163        3PZ        -0.00760   0.15601  -0.03310  -0.15748  -0.00000
 164        4S          0.00000   0.00001   0.00000   0.00000   0.01613
 165        4PX        -0.00000  -0.00001   0.00001   0.00001  -0.02555
 166        4PY         0.00000   0.00000   0.00000   0.00000  -0.07660
 167        4PZ        -0.00798   0.28829  -0.05952  -0.27532  -0.00000
 168        5S         -0.00000   0.00002   0.00019   0.00016  -1.58382
 169        5PX        -0.00000   0.00000   0.00021   0.00016  -0.70659
 170        5PY         0.00000   0.00000  -0.00001  -0.00001  -0.43663
 171        5PZ         0.00898   0.21582  -0.01182  -0.32251  -0.00001
 172        6D 0        0.00000   0.00000   0.00000  -0.00000  -0.00510
 173        6D+1       -0.01488  -0.01020  -0.02294   0.00305  -0.00000
 174        6D-1       -0.00186  -0.00860   0.00258   0.00778  -0.00000
 175        6D+2        0.00000   0.00000  -0.00000  -0.00000   0.00136
 176        6D-2       -0.00000   0.00000   0.00000   0.00000   0.00102
 177 9   C  1S         -0.00000   0.00000   0.00000   0.00000  -0.01398
 178        2S         -0.00000   0.00000   0.00000   0.00000  -0.02350
 179        2PX        -0.00000   0.00000  -0.00000   0.00000  -0.00147
 180        2PY        -0.00000   0.00000   0.00000   0.00000  -0.03074
 181        2PZ         0.02870  -0.01311   0.00461  -0.00152   0.00000
 182        3S          0.00000   0.00000  -0.00000   0.00000   0.06145
 183        3PX        -0.00000   0.00000  -0.00000   0.00000  -0.00243
 184        3PY         0.00000   0.00000   0.00000   0.00000  -0.04655
 185        3PZ         0.03832  -0.02011   0.00654  -0.00235   0.00000
 186        4S          0.00000  -0.00001  -0.00006  -0.00002   0.43220
 187        4PX         0.00000  -0.00000   0.00001   0.00000  -0.01461
 188        4PY        -0.00000   0.00000   0.00001   0.00000  -0.02443
 189        4PZ         0.07594  -0.10552   0.04227  -0.00054   0.00000
 190        5S          0.00001  -0.00005  -0.00021  -0.00018   0.84339
 191        5PX         0.00001  -0.00003  -0.00002  -0.00001   0.28242
 192        5PY         0.00000  -0.00001  -0.00003  -0.00003  -0.46985
 193        5PZ         0.13045  -0.42494   0.14564  -0.01791   0.00000
 194        6D 0        0.00000   0.00000   0.00000  -0.00000  -0.00873
 195        6D+1       -0.00238   0.00544   0.02391  -0.01329   0.00000
 196        6D-1       -0.01945  -0.02885   0.00453  -0.00180  -0.00000
 197        6D+2       -0.00000  -0.00000   0.00000   0.00000   0.00244
 198        6D-2       -0.00000  -0.00000   0.00000  -0.00000   0.00039
 199 10  C  1S         -0.00000  -0.00000   0.00000   0.00000  -0.01059
 200        2S         -0.00000  -0.00000   0.00000   0.00000  -0.01803
 201        2PX         0.00000   0.00000  -0.00000   0.00000  -0.00110
 202        2PY        -0.00000   0.00000   0.00000  -0.00000   0.02359
 203        2PZ         0.17164   0.01758   0.02154   0.01072   0.00000
 204        3S          0.00000  -0.00000  -0.00000  -0.00000   0.06008
 205        3PX         0.00000   0.00000  -0.00000   0.00000  -0.00175
 206        3PY         0.00000  -0.00000  -0.00000  -0.00000   0.03306
 207        3PZ         0.27923   0.02581   0.03549   0.01691   0.00000
 208        4S         -0.00000   0.00001   0.00002   0.00001   0.06875
 209        4PX         0.00000   0.00000  -0.00000  -0.00000   0.00577
 210        4PY         0.00000  -0.00000  -0.00001  -0.00000   0.20599
 211        4PZ         0.34676   0.07648   0.05844   0.03720   0.00000
 212        5S          0.00001  -0.00004  -0.00017  -0.00014   1.56394
 213        5PX        -0.00000  -0.00003   0.00004   0.00002   0.26561
 214        5PY         0.00000  -0.00000  -0.00002  -0.00000   1.94289
 215        5PZ         0.09780   0.33072  -0.00046   0.07749   0.00000
 216        6D 0        0.00000  -0.00000  -0.00000  -0.00000  -0.00744
 217        6D+1        0.00085  -0.00564  -0.02998  -0.00703  -0.00000
 218        6D-1        0.00082   0.01305  -0.00084   0.00244   0.00000
 219        6D+2       -0.00000   0.00000   0.00000  -0.00000   0.00103
 220        6D-2       -0.00000  -0.00000   0.00000   0.00000  -0.00022
 221 11  C  1S          0.00000   0.00000  -0.00000   0.00000  -0.00650
 222        2S          0.00000   0.00000  -0.00000   0.00000  -0.01117
 223        2PX         0.00000   0.00000  -0.00000   0.00000   0.00177
 224        2PY         0.00000   0.00000  -0.00000   0.00000   0.00986
 225        2PZ        -0.09552  -0.05331   0.10781  -0.07807   0.00000
 226        3S         -0.00000  -0.00000  -0.00000  -0.00000   0.04410
 227        3PX         0.00000   0.00000  -0.00000   0.00000   0.00211
 228        3PY         0.00000   0.00000  -0.00000   0.00000   0.01486
 229        3PZ        -0.15392  -0.08249   0.16899  -0.12716   0.00000
 230        4S         -0.00001  -0.00001   0.00001  -0.00000   0.00636
 231        4PX         0.00001   0.00000  -0.00002  -0.00001   0.10821
 232        4PY         0.00001  -0.00000  -0.00001   0.00000  -0.00609
 233        4PZ        -0.20155  -0.13782   0.31720  -0.22278   0.00000
 234        5S         -0.00002   0.00003   0.00031   0.00021  -4.09757
 235        5PX         0.00000   0.00001  -0.00012  -0.00009   1.19459
 236        5PY        -0.00001   0.00012   0.00027   0.00023  -2.34882
 237        5PZ        -0.12146   0.13182   0.33107  -0.24200   0.00000
 238        6D 0       -0.00000  -0.00000   0.00000  -0.00000  -0.00805
 239        6D+1       -0.00433   0.01594  -0.00407   0.01614   0.00000
 240        6D-1       -0.00377  -0.01681  -0.01662  -0.01855  -0.00000
 241        6D+2       -0.00000  -0.00000   0.00000  -0.00000  -0.00564
 242        6D-2       -0.00000   0.00000  -0.00000   0.00000   0.00141
 243 12  C  1S         -0.00000  -0.00000   0.00000   0.00000  -0.00711
 244        2S         -0.00000  -0.00000   0.00000   0.00000  -0.01213
 245        2PX        -0.00000  -0.00000   0.00000   0.00000   0.00162
 246        2PY        -0.00000  -0.00000   0.00000  -0.00000  -0.01039
 247        2PZ        -0.01280  -0.03500  -0.11444  -0.05419  -0.00000
 248        3S          0.00000   0.00000  -0.00000   0.00000   0.04187
 249        3PX        -0.00000  -0.00000  -0.00000  -0.00000   0.00489
 250        3PY        -0.00000  -0.00000   0.00000  -0.00000  -0.01440
 251        3PZ        -0.02155  -0.04885  -0.18302  -0.09055  -0.00000
 252        4S          0.00000   0.00000  -0.00000  -0.00000   0.16086
 253        4PX        -0.00000   0.00000   0.00002   0.00001  -0.12839
 254        4PY        -0.00000  -0.00000   0.00000   0.00000  -0.09029
 255        4PZ        -0.02712  -0.13925  -0.33420  -0.14531  -0.00000
 256        5S          0.00002  -0.00010  -0.00040  -0.00031   4.97839
 257        5PX         0.00000  -0.00004   0.00007   0.00003  -0.37143
 258        5PY        -0.00000   0.00007   0.00021   0.00016  -4.10173
 259        5PZ         0.00953  -0.37734  -0.37149  -0.19866  -0.00001
 260        6D 0        0.00000   0.00000   0.00000   0.00000  -0.00881
 261        6D+1       -0.02743   0.01243  -0.00314   0.01353   0.00000
 262        6D-1        0.01744   0.01831  -0.01657   0.02197  -0.00000
 263        6D+2       -0.00000   0.00000  -0.00000   0.00000  -0.00502
 264        6D-2       -0.00000  -0.00000   0.00000  -0.00000  -0.00178
 265 13  C  1S         -0.00000  -0.00000   0.00000  -0.00000  -0.00559
 266        2S         -0.00000  -0.00000   0.00000  -0.00000  -0.00962
 267        2PX         0.00000   0.00000  -0.00000   0.00000  -0.00285
 268        2PY        -0.00000  -0.00000   0.00000  -0.00000   0.00924
 269        2PZ        -0.07927  -0.10601  -0.07585   0.06965  -0.00000
 270        3S          0.00000   0.00000  -0.00000   0.00000   0.03869
 271        3PX         0.00000   0.00000  -0.00000   0.00000  -0.00429
 272        3PY        -0.00000  -0.00000   0.00000  -0.00000   0.01291
 273        3PZ        -0.12774  -0.16442  -0.11877   0.11358  -0.00000
 274        4S          0.00001   0.00001   0.00001   0.00000  -0.02717
 275        4PX         0.00000   0.00001   0.00002   0.00001  -0.12668
 276        4PY        -0.00000  -0.00001  -0.00001  -0.00000   0.01232
 277        4PZ        -0.16505  -0.28051  -0.24105   0.18303  -0.00000
 278        5S         -0.00000   0.00007   0.00029   0.00021  -3.48440
 279        5PX        -0.00000   0.00004   0.00006   0.00006  -0.67616
 280        5PY        -0.00001   0.00001   0.00035   0.00026  -2.17376
 281        5PZ        -0.09961  -0.03384  -0.38645   0.24252  -0.00001
 282        6D 0        0.00000   0.00000   0.00000  -0.00000  -0.00751
 283        6D+1        0.00415  -0.01804   0.00393   0.01304   0.00000
 284        6D-1       -0.00522  -0.01005   0.01926   0.01362   0.00000
 285        6D+2        0.00000   0.00000   0.00000  -0.00000  -0.00548
 286        6D-2        0.00000   0.00000  -0.00000  -0.00000  -0.00151
 287 14  C  1S          0.00000   0.00000   0.00000   0.00000  -0.00625
 288        2S          0.00000   0.00000   0.00000   0.00000  -0.01064
 289        2PX        -0.00000  -0.00000  -0.00000  -0.00000  -0.00039
 290        2PY         0.00000   0.00000   0.00000   0.00000  -0.01040
 291        2PZ        -0.02121   0.00630   0.09977   0.04034   0.00000
 292        3S         -0.00000  -0.00000  -0.00000  -0.00000   0.03686
 293        3PX        -0.00000  -0.00000   0.00000   0.00000  -0.00327
 294        3PY         0.00000   0.00000   0.00000   0.00000  -0.01436
 295        3PZ        -0.03362   0.01576   0.15649   0.06936   0.00000
 296        4S          0.00000  -0.00000   0.00000  -0.00000   0.12171
 297        4PX        -0.00000  -0.00001  -0.00002  -0.00001   0.15054
 298        4PY         0.00000   0.00000  -0.00000   0.00000  -0.08023
 299        4PZ        -0.04257  -0.01146   0.30971   0.09676   0.00000
 300        5S          0.00001  -0.00008  -0.00047  -0.00035   5.22330
 301        5PX         0.00000  -0.00003   0.00007   0.00004   0.66754
 302        5PY        -0.00001   0.00002   0.00023   0.00016  -3.41085
 303        5PZ        -0.00537  -0.20836   0.43864   0.07206   0.00001
 304        6D 0       -0.00000  -0.00000   0.00000   0.00000  -0.00795
 305        6D+1        0.02516  -0.01300   0.01154   0.01475   0.00000
 306        6D-1        0.01515   0.02734   0.01020  -0.01816   0.00000
 307        6D+2        0.00000  -0.00000  -0.00000   0.00000  -0.00428
 308        6D-2       -0.00000  -0.00000  -0.00000  -0.00000   0.00284
 309 15  H  1S          0.00000  -0.00000  -0.00000  -0.00000   0.00747
 310        2S          0.00000  -0.00000   0.00000  -0.00000   0.00311
 311        3S         -0.00000   0.00000   0.00000   0.00000  -0.07793
 312        4S          0.00000  -0.00001  -0.00002  -0.00002  -0.61461
 313        5PX        -0.00000  -0.00000   0.00000   0.00000   0.00043
 314        5PY        -0.00000  -0.00000   0.00000  -0.00000   0.00514
 315        5PZ         0.00017   0.01044  -0.00116   0.01337   0.00000
 316 16  H  1S          0.00000   0.00000  -0.00000   0.00000  -0.00095
 317        2S          0.00000   0.00000  -0.00000  -0.00000  -0.00843
 318        3S          0.00000   0.00000  -0.00000  -0.00000  -0.04657
 319        4S          0.00000   0.00000  -0.00000   0.00000  -0.45321
 320        5PX         0.00000   0.00000   0.00000   0.00000  -0.00275
 321        5PY         0.00000   0.00000   0.00000  -0.00000   0.00224
 322        5PZ         0.00861  -0.00406  -0.01036  -0.00495  -0.00000
 323 17  H  1S         -0.00000   0.00000  -0.00000   0.00000  -0.00075
 324        2S         -0.00000   0.00000   0.00000   0.00000  -0.01217
 325        3S         -0.00000  -0.00000  -0.00000  -0.00000  -0.05120
 326        4S         -0.00000   0.00000   0.00000   0.00000  -0.43195
 327        5PX        -0.00000   0.00000  -0.00000   0.00000  -0.00238
 328        5PY         0.00000   0.00000  -0.00000   0.00000  -0.00213
 329        5PZ         0.00091  -0.00483   0.01087  -0.00733   0.00000
 330 18  H  1S          0.00000   0.00000  -0.00000   0.00000   0.00731
 331        2S          0.00000   0.00000  -0.00000  -0.00000  -0.00033
 332        3S          0.00000   0.00000  -0.00000  -0.00000  -0.06636
 333        4S          0.00000   0.00000  -0.00001  -0.00000  -0.81243
 334        5PX         0.00000   0.00000  -0.00000  -0.00000   0.00154
 335        5PY         0.00000   0.00000   0.00000   0.00000  -0.00569
 336        5PZ        -0.00638   0.00890   0.00027   0.01327   0.00000
 337 19  H  1S          0.00000  -0.00000  -0.00000   0.00000   0.00913
 338        2S          0.00000  -0.00000   0.00000   0.00000  -0.00810
 339        3S         -0.00000   0.00000   0.00000   0.00000  -0.20807
 340        4S         -0.00000   0.00000   0.00001   0.00000  -1.73801
 341        5PX         0.00000   0.00000   0.00000   0.00000  -0.00046
 342        5PY         0.00000   0.00000  -0.00000   0.00000  -0.00673
 343        5PZ         0.01430   0.00528   0.00175   0.00183   0.00000
 344 20  H  1S         -0.00000  -0.00000  -0.00000  -0.00000   0.00736
 345        2S         -0.00000  -0.00000  -0.00000  -0.00000   0.00329
 346        3S         -0.00000  -0.00000  -0.00000  -0.00000  -0.03689
 347        4S         -0.00000  -0.00000  -0.00001  -0.00000  -0.59471
 348        5PX         0.00000   0.00000   0.00000   0.00000  -0.00170
 349        5PY        -0.00000  -0.00000   0.00000   0.00000  -0.00430
 350        5PZ        -0.00508   0.00923  -0.00503  -0.01162  -0.00000
 351 21  H  1S          0.00000  -0.00000  -0.00000   0.00000  -0.00064
 352        2S          0.00000   0.00000   0.00000   0.00000  -0.00949
 353        3S          0.00000   0.00000  -0.00000  -0.00000  -0.02958
 354        4S          0.00000   0.00000   0.00001   0.00000  -0.26368
 355        5PX         0.00000   0.00000  -0.00000   0.00000   0.00108
 356        5PY        -0.00000  -0.00000   0.00000   0.00000  -0.00143
 357        5PZ         0.00131  -0.00953  -0.00599   0.00708   0.00000
 358 22  H  1S         -0.00000  -0.00000   0.00000   0.00000  -0.00104
 359        2S         -0.00000  -0.00000  -0.00000  -0.00000  -0.00593
 360        3S         -0.00000  -0.00000  -0.00000  -0.00000  -0.02580
 361        4S         -0.00000  -0.00000  -0.00000  -0.00000  -0.28067
 362        5PX         0.00000   0.00000  -0.00000  -0.00000   0.00162
 363        5PY        -0.00000  -0.00000   0.00000  -0.00000   0.00145
 364        5PZ         0.00616  -0.00014   0.01043   0.00392   0.00000
 365 23  H  1S          0.00000   0.00000  -0.00000  -0.00000   0.00671
 366        2S          0.00000   0.00000  -0.00000  -0.00000   0.00468
 367        3S          0.00000  -0.00000   0.00000   0.00000  -0.07232
 368        4S         -0.00000  -0.00000  -0.00002  -0.00002  -0.40915
 369        5PX        -0.00000  -0.00000  -0.00000  -0.00000  -0.00060
 370        5PY         0.00000   0.00000  -0.00000  -0.00000   0.00417
 371        5PZ         0.00016   0.01188  -0.00293  -0.01121  -0.00000
 372 24  H  1S          0.04205   0.03817  -0.00764   0.00176   0.00129
 373        2S          0.07357   0.09452  -0.02345   0.00294  -0.02137
[...]
 190        5S          0.34482
 191        5PX        -0.26872
 192        5PY         0.03719
 193        5PZ        -0.02791
 194        6D 0        0.00827
 195        6D+1        0.00849
 196        6D-1        0.01217
 197        6D+2        0.01210
 198        6D-2        0.01358
 199 10  C  1S          1.10550
 200        2S          0.88522
 201        2PX         0.24233
 202        2PY         0.24076
 203        2PZ         0.11449
 204        3S          0.80019
 205        3PX         0.55188
 206        3PY         0.54983
 207        3PZ         0.31022
 208        4S          0.41244
 209        4PX         0.15717
 210        4PY         0.34529
 211        4PZ         0.25626
 212        5S          0.03222
 213        5PX        -0.38136
 214        5PY         0.19868
 215        5PZ         0.04221
 216        6D 0        0.00298
 217        6D+1        0.01276
 218        6D-1        0.00358
 219        6D+2        0.02115
 220        6D-2        0.01513
 221 11  C  1S          1.10532
 222        2S          0.88550
 223        2PX         0.23690
 224        2PY         0.23199
 225        2PZ         0.15044
 226        3S          0.77017
 227        3PX         0.53655
 228        3PY         0.53143
 229        3PZ         0.39718
 230        4S          0.39786
 231        4PX         0.26319
 232        4PY         0.22422
 233        4PZ         0.31688
 234        5S          0.15532
 235        5PX        -0.26755
 236        5PY         0.62201
 237        5PZ         0.01172
 238        6D 0        0.00386
 239        6D+1        0.01058
 240        6D-1        0.01006
 241        6D+2        0.02248
 242        6D-2        0.02054
 243 12  C  1S          1.10521
 244        2S          0.88565
 245        2PX         0.23282
 246        2PY         0.23022
 247        2PZ         0.17369
 248        3S          0.75268
 249        3PX         0.52849
 250        3PY         0.52969
 251        3PZ         0.45828
 252        4S          0.38081
 253        4PX         0.15693
 254        4PY         0.19588
 255        4PZ         0.39661
 256        5S         -0.57821
 257        5PX        -0.46432
 258        5PY         0.30977
 259        5PZ        -0.05969
 260        6D 0        0.00447
 261        6D+1        0.00729
 262        6D-1        0.00832
 263        6D+2        0.02273
 264        6D-2        0.02218
 265 13  C  1S          1.10531
 266        2S          0.88559
 267        2PX         0.22779
 268        2PY         0.23574
 269        2PZ         0.15434
 270        3S          0.76569
 271        3PX         0.52979
 272        3PY         0.53116
 273        3PZ         0.40502
 274        4S          0.41453
 275        4PX         0.27259
 276        4PY         0.21428
 277        4PZ         0.33267
 278        5S          0.11930
 279        5PX        -0.29531
 280        5PY         0.63050
 281        5PZ         0.01617
 282        6D 0        0.00396
 283        6D+1        0.00913
 284        6D-1        0.01114
 285        6D+2        0.02053
 286        6D-2        0.02088
 287 14  C  1S          1.10520
 288        2S          0.88561
 289        2PX         0.22908
 290        2PY         0.23605
 291        2PZ         0.17490
 292        3S          0.75248
 293        3PX         0.52413
 294        3PY         0.53380
 295        3PZ         0.46146
 296        4S          0.36558
 297        4PX         0.14354
 298        4PY         0.19205
 299        4PZ         0.39521
 300        5S         -0.50636
 301        5PX        -0.47056
 302        5PY         0.29924
 303        5PZ        -0.06177
 304        6D 0        0.00445
 305        6D+1        0.00744
 306        6D-1        0.00961
 307        6D+2        0.02284
 308        6D-2        0.02279
 309 15  H  1S          0.27323
 310        2S          0.46343
 311        3S          0.03089
 312        4S         -0.03076
 313        5PX         0.00339
 314        5PY         0.01503
 315        5PZ         0.00457
 316 16  H  1S          0.27317
 317        2S          0.46137
 318        3S          0.00980
 319        4S         -0.02932
 320        5PX         0.01251
 321        5PY         0.00652
 322        5PZ         0.00364
 323 17  H  1S          0.27330
 324        2S          0.46273
 325        3S          0.01797
 326        4S         -0.02956
 327        5PX         0.01235
 328        5PY         0.00627
 329        5PZ         0.00444
 330 18  H  1S          0.27376
 331        2S          0.46478
 332        3S          0.03227
 333        4S         -0.01976
 334        5PX         0.00347
 335        5PY         0.01528
 336        5PZ         0.00427
 337 19  H  1S          0.27270
 338        2S          0.45398
 339        3S          0.01735
 340        4S          0.04260
 341        5PX         0.00339
 342        5PY         0.01638
 343        5PZ         0.00290
 344 20  H  1S          0.27344
 345        2S          0.46511
 346        3S          0.03781
 347        4S         -0.01946
 348        5PX         0.00343
 349        5PY         0.01495
 350        5PZ         0.00456
 351 21  H  1S          0.27313
 352        2S          0.46324
 353        3S          0.02152
 354        4S         -0.02755
 355        5PX         0.01164
 356        5PY         0.00671
 357        5PZ         0.00453
 358 22  H  1S          0.27375
 359        2S          0.46325
 360        3S          0.01530
 361        4S         -0.02729
 362        5PX         0.01259
 363        5PY         0.00642
 364        5PZ         0.00397
 365 23  H  1S          0.27369
 366        2S          0.46408
 367        3S          0.03512
 368        4S         -0.03218
 369        5PX         0.00331
 370        5PY         0.01466
 371        5PZ         0.00473
 372 24  H  1S          0.26317
 373        2S          0.42804
 374        3S          0.01138
 375        4S          0.02732
 376        5PX         0.00342
 377        5PY         0.00771
 378        5PZ         0.00920
 379 25  H  1S          0.26316
 380        2S          0.42804
 381        3S          0.01138
 382        4S          0.02732
 383        5PX         0.00342
 384        5PY         0.00771
 385        5PZ         0.00920
          Condensed to atoms (all electrons):
               1          2          3          4          5          6
     1  C    8.328861   0.467267  -0.609751   1.787101  -0.014146  -0.084138
     2  C    0.467267   7.176735   0.437011  -1.056745  -0.035903  -0.013571
     3  C   -0.609751   0.437011   6.612346   0.730918  -0.109523   0.016347
     4  C    1.787101  -1.056745   0.730918  11.659990  -0.370900  -0.140378
     5  C   -0.014146  -0.035903  -0.109523  -0.370900  10.353118   0.841246
     6  C   -0.084138  -0.013571   0.016347  -0.140378   0.841246   6.581085
     7  C   -0.027965  -0.000217  -0.013590   0.015231  -1.132057   0.203187
     8  C    0.400722  -0.004366  -0.102950  -0.069939   2.138355  -0.400491
     9  C   -1.091556  -0.885435   0.286618   0.070261  -0.397091   0.303794
    10  C   -1.186941   0.175375  -0.266731  -2.720019  -2.357368  -0.448851
    11  C    0.345808  -0.747206   0.834737  -0.473429  -1.349601  -0.081150
    12  C   -1.861567   1.087133  -1.354144  -1.704444  -0.189508  -0.309590
    13  C    0.226641  -0.204437  -0.245681  -1.581388  -0.163382   1.179507
    14  C   -1.171360  -0.275844  -0.098016  -0.525770  -1.547663  -1.517403
    15  H    0.366982  -0.105742  -0.003280   0.026363   0.006214   0.001160
    16  H   -0.019295   0.380120  -0.021223   0.016407  -0.001597  -0.000337
    17  H   -0.018768  -0.023625   0.380127  -0.067509   0.000170   0.000397
    18  H    0.047372   0.003086  -0.084550   0.470037   0.005824  -0.005079
    19  H   -0.042798  -0.007181   0.049107  -0.085588  -0.054128   0.052539
    20  H    0.006736   0.002013  -0.005167   0.006163   0.446097  -0.083895
    21  H   -0.001261  -0.000399   0.000391   0.000384  -0.065149   0.367564
    22  H    0.000427   0.000315  -0.000306  -0.001351   0.010380  -0.014418
    23  H    0.006553  -0.002268   0.001008   0.004561   0.028115   0.002852
    24  H    0.037083   0.015663  -0.001449  -0.011560  -0.012248  -0.001674
    25  H    0.037071   0.015660  -0.001449  -0.011563  -0.012245  -0.001676
               7          8          9         10         11         12
     1  C   -0.027965   0.400722  -1.091556  -1.186941   0.345808  -1.861567
     2  C   -0.000217  -0.004366  -0.885435   0.175375  -0.747206   1.087133
     3  C   -0.013590  -0.102950   0.286618  -0.266731   0.834737  -1.354144
     4  C    0.015231  -0.069939   0.070261  -2.720019  -0.473429  -1.704444
     5  C   -1.132057   2.138355  -0.397091  -2.357368  -1.349601  -0.189508
     6  C    0.203187  -0.400491   0.303794  -0.448851  -0.081150  -0.309590
     7  C    7.150806   0.064933  -0.762360   0.345981  -0.321081  -0.072816
     8  C    0.064933   8.836860  -1.133690  -1.345348   0.247137  -0.986893
     9  C   -0.762360  -1.133690   9.598700   0.224611   1.539883  -2.168705
    10  C    0.345981  -1.345348   0.224611   9.068565  -0.258802   2.355820
    11  C   -0.321081   0.247137   1.539883  -0.258802  14.612030  -3.995704
    12  C   -0.072816  -0.986893  -2.168705   2.355820  -3.995704  16.267770
    13  C   -1.051209   0.321434   1.499094  -0.591190   1.051492  -4.597334
    14  C    1.730830  -2.461550  -1.655582   2.466118  -4.844921   3.055996
    15  H   -0.002865   0.004730   0.089436  -0.008151  -0.032853  -0.012342
    16  H    0.000392   0.001074   0.003182  -0.009810   0.027276  -0.033188
    17  H   -0.000371  -0.001351  -0.004608   0.018835  -0.021241   0.080587
    18  H    0.002112   0.007068  -0.021682   0.007097  -0.010692  -0.046658
    19  H   -0.008643  -0.047251   0.072831   0.419577   0.074801  -0.093698
    20  H    0.003263   0.051951  -0.026099   0.018214  -0.011773  -0.004540
    21  H   -0.007354  -0.032890  -0.006452   0.020786  -0.006206   0.004894
    22  H    0.375683  -0.017713   0.003360  -0.008220   0.002194  -0.007397
    23  H   -0.109123   0.369052   0.092537  -0.011097   0.008058   0.004223
    24  H    0.012702   0.027921   0.355974   0.005244   0.023943  -0.059207
    25  H    0.012699   0.027915   0.355984   0.005246   0.023945  -0.059191
              13         14         15         16         17         18
     1  C    0.226641  -1.171360   0.366982  -0.019295  -0.018768   0.047372
     2  C   -0.204437  -0.275844  -0.105742   0.380120  -0.023625   0.003086
     3  C   -0.245681  -0.098016  -0.003280  -0.021223   0.380127  -0.084550
     4  C   -1.581388  -0.525770   0.026363   0.016407  -0.067509   0.470037
     5  C   -0.163382  -1.547663   0.006214  -0.001597   0.000170   0.005824
     6  C    1.179507  -1.517403   0.001160  -0.000337   0.000397  -0.005079
     7  C   -1.051209   1.730830  -0.002865   0.000392  -0.000371   0.002112
     8  C    0.321434  -2.461550   0.004730   0.001074  -0.001351   0.007068
     9  C    1.499094  -1.655582   0.089436   0.003182  -0.004608  -0.021682
    10  C   -0.591190   2.466118  -0.008151  -0.009810   0.018835   0.007097
    11  C    1.051492  -4.844921  -0.032853   0.027276  -0.021241  -0.010692
    12  C   -4.597334   3.055996  -0.012342  -0.033188   0.080587  -0.046658
    13  C   14.123334  -3.383346  -0.003182   0.003646  -0.006227  -0.012076
    14  C   -3.383346  15.760565   0.007927  -0.010393   0.005199  -0.024176
    15  H   -0.003182   0.007927   0.433494  -0.008675   0.001551   0.000268
    16  H    0.003646  -0.010393  -0.008675   0.414289  -0.006729   0.001977
    17  H   -0.006227   0.005199   0.001551  -0.006729   0.420093  -0.010244
    18  H   -0.012076  -0.024176   0.000268   0.001977  -0.010244   0.448978
    19  H    0.082587  -0.036709   0.000380  -0.000550   0.001637  -0.005924
    20  H   -0.004522  -0.062723  -0.000119   0.000019  -0.000161   0.001257
    21  H   -0.031006   0.100240   0.000016  -0.000007   0.000010  -0.000124
    22  H    0.023983  -0.029970  -0.000123   0.000007  -0.000006   0.000012
    23  H   -0.028809  -0.037962   0.000557  -0.000126   0.000011  -0.000104
    24  H    0.001447  -0.058364  -0.000987   0.000619  -0.000133   0.000143
    25  H    0.001442  -0.058357  -0.000986   0.000618  -0.000133   0.000143
              19         20         21         22         23         24
     1  C   -0.042798   0.006736  -0.001261   0.000427   0.006553   0.037083
     2  C   -0.007181   0.002013  -0.000399   0.000315  -0.002268   0.015663
     3  C    0.049107  -0.005167   0.000391  -0.000306   0.001008  -0.001449
     4  C   -0.085588   0.006163   0.000384  -0.001351   0.004561  -0.011560
     5  C   -0.054128   0.446097  -0.065149   0.010380   0.028115  -0.012248
     6  C    0.052539  -0.083895   0.367564  -0.014418   0.002852  -0.001674
     7  C   -0.008643   0.003263  -0.007354   0.375683  -0.109123   0.012702
     8  C   -0.047251   0.051951  -0.032890  -0.017713   0.369052   0.027921
     9  C    0.072831  -0.026099  -0.006452   0.003360   0.092537   0.355974
    10  C    0.419577   0.018214   0.020786  -0.008220  -0.011097   0.005244
    11  C    0.074801  -0.011773  -0.006206   0.002194   0.008058   0.023943
    12  C   -0.093698  -0.004540   0.004894  -0.007397   0.004223  -0.059207
    13  C    0.082587  -0.004522  -0.031006   0.023983  -0.028809   0.001447
    14  C   -0.036709  -0.062723   0.100240  -0.029970  -0.037962  -0.058364
    15  H    0.000380  -0.000119   0.000016  -0.000123   0.000557  -0.000987
    16  H   -0.000550   0.000019  -0.000007   0.000007  -0.000126   0.000619
    17  H    0.001637  -0.000161   0.000010  -0.000006   0.000011  -0.000133
    18  H   -0.005924   0.001257  -0.000124   0.000012  -0.000104   0.000143
    19  H    0.442923  -0.006685   0.001190  -0.000512   0.000242   0.000571
    20  H   -0.006685   0.457486  -0.010007   0.001860   0.000041   0.000218
    21  H    0.001190  -0.010007   0.423668  -0.006139   0.001361  -0.000145
    22  H   -0.000512   0.001860  -0.006139   0.423813  -0.009184   0.000641
    23  H    0.000242   0.000041   0.001361  -0.009184   0.444501  -0.000793
    24  H    0.000571   0.000218  -0.000145   0.000641  -0.000793   0.493210
    25  H    0.000571   0.000218  -0.000146   0.000641  -0.000793  -0.078589
              25
     1  C    0.037071
     2  C    0.015660
     3  C   -0.001449
     4  C   -0.011563
     5  C   -0.012245
     6  C   -0.001676
     7  C    0.012699
     8  C    0.027915
     9  C    0.355984
    10  C    0.005246
    11  C    0.023945
    12  C   -0.059191
    13  C    0.001442
    14  C   -0.058357
    15  H   -0.000986
    16  H    0.000618
    17  H   -0.000133
    18  H    0.000143
    19  H    0.000571
    20  H    0.000218
    21  H   -0.000146
    22  H    0.000641
    23  H   -0.000793
    24  H   -0.078589
    25  H    0.493205
 Mulliken charges:
               1
     1  C    0.070920
     2  C   -0.397440
     3  C   -0.430800
     4  C    0.033167
     5  C   -0.017009
     6  C   -0.447026
     7  C   -0.408167
     8  C    0.105281
     9  C   -0.343007
    10  C    0.081060
    11  C   -0.636645
    12  C    0.700502
    13  C   -0.610816
    14  C    0.673235
    15  H    0.240223
    16  H    0.262303
    17  H    0.252489
    18  H    0.225935
    19  H    0.190712
    20  H    0.220154
    21  H    0.246780
    22  H    0.252023
    23  H    0.236586
    24  H    0.249771
    25  H    0.249769
 Sum of Mulliken charges =   1.00000
 Mulliken charges with hydrogens summed into heavy atoms:
               1
     1  C    0.311144
     2  C   -0.135137
     3  C   -0.178310
     4  C    0.259102
     5  C    0.203145
     6  C   -0.200247
     7  C   -0.156144
     8  C    0.341867
     9  C    0.156533
    10  C    0.271772
    11  C   -0.636645
    12  C    0.700502
    13  C   -0.610816
    14  C    0.673235
 Electronic spatial extent (au):  <R**2>=           2868.4835
 Charge=              1.0000 electrons
 Dipole moment (field-independent basis, Debye):
    X=              1.0818    Y=              0.1715    Z=              0.0000  Tot=              1.0953
 Quadrupole moment (field-independent basis, Debye-Ang):
   XX=            -30.7630   YY=            -56.1963   ZZ=            -84.2630
   XY=              0.0887   XZ=              0.0001   YZ=             -0.0000
 Traceless Quadrupole moment (field-independent basis, Debye-Ang):
   XX=             26.3111   YY=              0.8778   ZZ=            -27.1889
   XY=              0.0887   XZ=              0.0001   YZ=             -0.0000
 Octapole moment (field-independent basis, Debye-Ang**2):
  XXX=             12.0297  YYY=              5.3183  ZZZ=              0.0000  XYY=              2.5341
  XXY=             -5.3379  XXZ=             -0.0000  XZZ=              1.5736  YZZ=             -3.1409
  YYZ=              0.0000  XYZ=             -0.0003
 Hexadecapole moment (field-independent basis, Debye-Ang**3):
 XXXX=          -2126.5235 YYYY=           -611.6358 ZZZZ=            -99.6782 XXXY=             -2.4708
 XXXZ=             -0.0005 YYYX=              0.9936 YYYZ=             -0.0001 ZZZX=             -0.0001
 ZZZY=             -0.0000 XXYY=           -509.1045 XXZZ=           -594.2223 YYZZ=           -146.4654
 XXYZ=              0.0000 YYXZ=              0.0005 ZZXY=              0.5036
 N-N= 7.794383714165D+02 E-N=-2.795125170406D+03  KE= 5.373735986406D+02
 Orbital energies and kinetic energies (alpha):
                                 1                 2
  43         O                -0.543350          1.571928
  44         O                -0.523339          1.038597
  45         O                -0.472276          1.135298
  46         O                -0.460561          1.149185
  47         O                -0.437683          1.155681
  48         V                -0.261260          1.267626
  49         V                -0.147315          1.106159
  50         V                -0.140934          1.310382
  51         V                -0.128221          1.279033
  52         V                -0.111794          0.204396
 Total kinetic energy from orbitals= 5.373735986406D+02
 Unable to Open any file for archive entry.
 1\1\GINC-GADI-CPU-CLX-0957\SP\RM062X\6-311++G(d,p)\C14H11(1+)\TS1578\1
 4-Jul-2022\0\\#n M062X/6-311++G(d,p) SP pop=reg formcheck\\SP_-12\\1,1
 \C,0,2.4762085064,1.3725537957,0.\C,0,3.6862012803,0.6725149282,0.\C,0
 ,3.6796973738,-0.7274218588,0.\C,0,2.4953769676,-1.4126843783,0.\C,0,-
 2.4424430324,-1.3922494173,0.\C,0,-3.7050564218,-0.6864288346,0.\C,0,-
 3.7334725154,0.6914726631,0.\C,0,-2.5201559828,1.3730462043,0.\C,0,-0.
 0102174805,1.4658182848,0.\C,0,0.0385309807,-1.4244068978,0.\C,0,1.277
 4226262,0.7027177719,0.\C,0,1.2502850718,-0.7260451457,0.\C,0,-1.25169
 42716,0.6723115347,0.\C,0,-1.2309580304,-0.7207517522,0.\H,0,2.4881262
 782,2.4575144891,0.\H,0,4.6243660977,1.2140666434,0.\H,0,4.6172748543,
 -1.2689289413,0.\H,0,2.4866388305,-2.4964626631,0.\H,0,0.0328682807,-2
 .5073237957,0.\H,0,-2.4605411695,-2.4775049282,0.\H,0,-4.6221989413,-1
 .2640048543,0.\H,0,-4.6695445958,1.2315471522,0.\H,0,-2.5019137218,2.4
 586224087,0.\H,0,-0.0567501026,2.1568031022,-0.8634006935\H,0,-0.05687
 32048,2.1568031022,0.8634006935\\Version=ES64L-G16RevC.01\State=1-A\HF
 =-539.752619\RMSD=9.767e-09\Dipole=0.4251311,-0.0704429,-0.0000004\Qua
 drupole=19.5598395,0.6544394,-20.2142789,-0.1974656,-0.0000835,-0.0000
 024\PG=C01 [X(C14H11)]\\@
 The archive entry for this job was punched.


 THERE IS NO SCIENCE WITHOUT FANCY, NOR ART WITHOUT FACTS.
     -- VLADIMIR NABAKOV
 FChkPn:  Coordinates translated and rotated.
 FChkPn:  Coordinates match /B/ after translation and rotation.
 Job cpu time:       0 days  0 hours 19 minutes 32.6 seconds.
 Elapsed time:       0 days  0 hours  2 minutes 48.3 seconds.
 File lengths (MBytes):  RWF=     80 Int=      0 D2E=      0 Chk=     10 Scr=      1
 Normal termination of Gaussian 16 at Thu Jul 14 17:16:09 2022.
