 Entering Gaussian System, Link 0=g16
 Initial command:
 /apps/gaussian/g16c01/g16/l1.exe "/jobfs/51152907.gadi-pbs/Gau-209524.inp" -scrdir="/jobfs/51152907.gadi-pbs/"
 Entering Link 1 = /apps/gaussian/g16c01/g16/l1.exe PID=    209525.
  
 Copyright (c) 1988-2019, Gaussian, Inc.  All Rights Reserved.
  
 This is part of the Gaussian(R) 16 program.  It is based on
 the Gaussian(R) 09 system (copyright 2009, Gaussian, Inc.),
 the Gaussian(R) 03 system (copyright 2003, Gaussian, Inc.),
 the Gaussian(R) 98 system (copyright 1998, Gaussian, Inc.),
 the Gaussian(R) 94 system (copyright 1995, Gaussian, Inc.),
 the Gaussian 92(TM) system (copyright 1992, Gaussian, Inc.),
 the Gaussian 90(TM) system (copyright 1990, Gaussian, Inc.),
 the Gaussian 88(TM) system (copyright 1988, Gaussian, Inc.),
 the Gaussian 86(TM) system (copyright 1986, Carnegie Mellon
 University), and the Gaussian 82(TM) system (copyright 1983,
 Carnegie Mellon University). Gaussian is a federally registered
 trademark of Gaussian, Inc.
  
 This software contains proprietary and confidential information,
 including trade secrets, belonging to Gaussian, Inc.
  
 This software is provided under written license and may be
 used, copied, transmitted, or stored only in accord with that
 written license.
  
 The following legend is applicable only to US Government
 contracts under FAR:
  
                    RESTRICTED RIGHTS LEGEND
  
 Use, reproduction and disclosure by the US Government is
 subject to restrictions as set forth in subparagraphs (a)
 and (c) of the Commercial Computer Software - Restricted
 Rights clause in FAR 52.227-19.
  
 Gaussian, Inc.
 340 Quinnipiac St., Bldg. 40, Wallingford CT 06492
  
  
 ---------------------------------------------------------------
 Warning -- This program may not be used in any manner that
 competes with the business of Gaussian, Inc. or will provide
 assistance to any competitor of Gaussian, Inc.  The licensee
 of this program is prohibited from giving any competitor of
 Gaussian, Inc. access to this program.  By using this program,
 the user acknowledges that Gaussian, Inc. is engaged in the
 business of creating and licensing software in the field of
 computational chemistry and represents and warrants to the
 licensee that it is not a competitor of Gaussian, Inc. and that
 it will not use this program in any manner prohibited above.
 ---------------------------------------------------------------
  

 Cite this work as:
 Gaussian 16, Revision C.01,
 M. J. Frisch, G. W. Trucks, H. B. Schlegel, G. E. Scuseria, 
 M. A. Robb, J. R. Cheeseman, G. Scalmani, V. Barone, 
 G. A. Petersson, H. Nakatsuji, X. Li, M. Caricato, A. V. Marenich, 
 J. Bloino, B. G. Janesko, R. Gomperts, B. Mennucci, H. P. Hratchian, 
 J. V. Ortiz, A. F. Izmaylov, J. L. Sonnenberg, D. Williams-Young, 
 F. Ding, F. Lipparini, F. Egidi, J. Goings, B. Peng, A. Petrone, 
 T. Henderson, D. Ranasinghe, V. G. Zakrzewski, J. Gao, N. Rega, 
 G. Zheng, W. Liang, M. Hada, M. Ehara, K. Toyota, R. Fukuda, 
 J. Hasegawa, M. Ishida, T. Nakajima, Y. Honda, O. Kitao, H. Nakai, 
 T. Vreven, K. Throssell, J. A. Montgomery, Jr., J. E. Peralta, 
 F. Ogliaro, M. J. Bearpark, J. J. Heyd, E. N. Brothers, K. N. Kudin, 
 V. N. Staroverov, T. A. Keith, R. Kobayashi, J. Normand, 
 K. Raghavachari, A. P. Rendell, J. C. Burant, S. S. Iyengar, 
 J. Tomasi, M. Cossi, J. M. Millam, M. Klene, C. Adamo, R. Cammi, 
 J. W. Ochterski, R. L. Martin, K. Morokuma, O. Farkas, 
 J. B. Foresman, and D. J. Fox, Gaussian, Inc., Wallingford CT, 2019.
 
 ******************************************
 Gaussian 16:  ES64L-G16RevC.01  3-Jul-2019
                14-Jul-2022 
 ******************************************
 %NProcShared=8
 Will use up to    8 processors via shared memory.
 %mem = 32GB
 %Chk=check_sp_1
 -------------------------------------------
 #n M062X/6-311++G(d,p) SP pop=reg formcheck
 -------------------------------------------
 1/38=1,172=1/1;
 2/12=2,17=6,18=5,40=1/2;
 3/5=4,6=6,7=1111,11=2,25=1,30=1,74=-55/1,2,3;
 4//1;
 5/5=2,38=5/2;
 6/28=1/1;
 99/5=1,9=1/99;
 -----
 SP_-1
 -----
 Symbolic Z-matrix:
 Charge =  1 Multiplicity = 1
 C                     2.49663   1.37278   0. 
 C                     3.70798   0.68143   0. 
 C                     3.69143  -0.7088    0. 
 C                     2.47112  -1.40343   0. 
 C                    -2.4667   -1.40173   0. 
 C                    -3.69355  -0.70539   0. 
 C                    -3.71192   0.68301   0. 
 C                    -2.5003    1.37282   0. 
 C                    -0.00085   1.46661   0. 
 C                     0.00321  -1.42452   0. 
 C                     1.26569   0.68861   0. 
 C                     1.24137  -0.72368   0. 
 C                    -1.26354   0.68608   0. 
 C                    -1.23976  -0.72323   0. 
 H                     2.49445   2.45808   0. 
 H                     4.64524   1.22219   0. 
 H                     4.61964  -1.26678   0. 
 H                     2.47468  -2.488     0. 
 H                     0.00274  -2.50755   0. 
 H                    -2.4725   -2.48642   0. 
 H                    -4.62005  -1.26637   0. 
 H                    -4.64901   1.22365   0. 
 H                    -2.49559   2.45817   0. 
 H                    -0.00473   2.15669  -0.86374 
 H                    -0.00474   2.15669   0.86374 
 
                          Input orientation:                          
 ---------------------------------------------------------------------
 Center     Atomic      Atomic             Coordinates (Angstroms)
 Number     Number       Type             X           Y           Z
 ---------------------------------------------------------------------
      1          6           0        2.496633    1.372779    0.000000
      2          6           0        3.707980    0.681430    0.000000
      3          6           0        3.691433   -0.708803    0.000000
      4          6           0        2.471116   -1.403431    0.000000
      5          6           0       -2.466704   -1.401728    0.000000
      6          6           0       -3.693546   -0.705387    0.000000
      7          6           0       -3.711919    0.683009    0.000000
      8          6           0       -2.500295    1.372821    0.000000
      9          6           0       -0.000851    1.466608    0.000000
     10          6           0        0.003211   -1.424520    0.000000
     11          6           0        1.265687    0.688612    0.000000
     12          6           0        1.241370   -0.723675    0.000000
     13          6           0       -1.263543    0.686078    0.000000
     14          6           0       -1.239760   -0.723234    0.000000
     15          1           0        2.494446    2.458079    0.000000
     16          1           0        4.645242    1.222191    0.000000
     17          1           0        4.619645   -1.266785    0.000000
     18          1           0        2.474677   -2.487999    0.000000
     19          1           0        0.002739   -2.507549    0.000000
     20          1           0       -2.472503   -2.486420    0.000000
     21          1           0       -4.620055   -1.266375    0.000000
     22          1           0       -4.649007    1.223648    0.000000
     23          1           0       -2.495594    2.458171    0.000000
     24          1           0       -0.004729    2.156690   -0.863739
     25          1           0       -0.004739    2.156690    0.863739
 ---------------------------------------------------------------------
                    Distance matrix (angstroms):
                    1          2          3          4          5
     1  C    0.000000
     2  C    1.394749   0.000000
     3  C    2.400111   1.390331   0.000000
     4  C    2.776328   2.424145   1.404167   0.000000
     5  C    5.686177   6.516615   6.197000   4.937820   0.000000
     6  C    6.529709   7.530329   7.384980   6.204057   1.410685
     7  C    6.246752   7.419900   7.533045   6.525577   2.428310
     8  C    4.996929   6.246656   6.532278   5.694076   2.774752
     9  C    2.499247   3.791034   4.285485   3.787842   3.782563
    10  C    3.747271   4.261495   3.757025   2.467995   2.470020
    11  C    1.408302   2.442304   2.799467   2.414478   4.277881
    12  C    2.443524   2.838747   2.450108   1.405112   3.769559
    13  C    3.822366   4.971525   5.147570   4.279454   2.409675
    14  C    4.284146   5.143269   4.931214   3.772700   1.402051
    15  H    1.085301   2.151546   3.385545   3.861580   6.285787
    16  H    2.153880   1.082074   2.153715   3.408918   7.580550
    17  H    3.387400   2.150970   1.083015   2.152870   7.087634
    18  H    3.860841   3.400929   2.155466   1.084574   5.059371
    19  H    4.612641   4.888599   4.103895   2.704064   2.705733
    20  H    6.291719   6.945044   6.415140   5.060852   1.084707
    21  H    7.590282   8.552784   8.330169   7.092495   2.157600
    22  H    7.147196   8.374559   8.561385   7.589314   3.413949
    23  H    5.108856   6.452995   6.950470   6.291278   3.860007
    24  H    2.759959   4.087377   4.755913   4.421574   4.412449
    25  H    2.759969   4.087386   4.755921   4.421580   4.412444
                    6          7          8          9         10
     6  C    0.000000
     7  C    1.388518   0.000000
     8  C    2.396412   1.394228   0.000000
     9  C    4.284105   3.792895   2.501203   0.000000
    10  C    3.766055   4.271285   3.754019   2.891131   0.000000
    11  C    5.151430   4.977609   3.827632   1.486404   2.461539
    12  C    4.934951   5.149159   4.288981   2.518027   1.422751
    13  C    2.800195   2.448378   1.414628   1.484458   2.461562
    14  C    2.453851   2.844133   2.445894   2.516010   1.427157
    15  H    6.949731   6.455218   5.111284   2.685055   4.613114
    16  H    8.558677   8.374537   7.147125   4.652518   5.343551
    17  H    8.332125   8.556673   7.593488   5.368465   4.619128
    18  H    6.420646   6.951926   6.297324   4.665529   2.690564
    19  H    4.112216   4.896770   4.617624   3.974159   1.083030
    20  H    2.159404   3.403151   3.859340   4.662133   2.693843
    21  H    1.083109   2.150537   3.385075   5.367144   4.625970
    22  H    2.152691   1.081861   2.153883   4.654501   5.353123
    23  H    3.382778   2.151893   1.085361   2.684574   4.617284
    24  H    4.748147   4.081794   2.754696   1.105565   3.683907
    25  H    4.748139   4.081784   2.754686   1.105565   3.683907
                   11         12         13         14         15
    11  C    0.000000
    12  C    1.412497   0.000000
    13  C    2.529231   2.874369   0.000000
    14  C    2.875861   2.481130   1.409513   0.000000
    15  H    2.154265   3.419614   4.154812   4.905613   0.000000
    16  H    3.421418   3.920809   5.933056   6.198220   2.480593
    17  H    3.882346   3.421652   6.198836   5.884562   4.288482
    18  H    3.398900   2.152646   4.903984   4.112352   4.946118
    19  H    3.436639   2.171731   3.435510   2.174301   5.555724
    20  H    4.904578   4.110976   3.395045   2.151390   7.008469
    21  H    6.201930   5.886496   3.883072   3.423652   8.030421
    22  H    5.938844   6.203919   3.427878   3.925980   7.249326
    23  H    4.156751   4.908060   2.158301   3.420301   4.990040
    24  H    2.124913   3.255045   2.119754   3.250433   2.661345
    25  H    2.124919   3.255049   2.119748   3.250429   2.661354
                   16         17         18         19         20
    16  H    0.000000
    17  H    2.489108   0.000000
    18  H    4.298473   2.468248   0.000000
    19  H    5.955149   4.780723   2.472016   0.000000
    20  H    8.025963   7.196253   4.947180   2.475332   0.000000
    21  H    9.593680   9.239699   7.199138   4.786516   2.469917
    22  H    9.294249   9.597404   8.032634   5.963269   4.301369
    23  H    7.247013   8.031309   7.012004   5.558781   4.944645
    24  H    4.820951   5.818166   5.335414   4.743547   5.328641
    25  H    4.820961   5.818175   5.335419   4.743547   5.328637
                   21         22         23         24         25
    21  H    0.000000
    22  H    2.490191   0.000000
    23  H    4.287840   2.482183   0.000000
    24  H    5.810736   4.815177   2.653553   0.000000
    25  H    5.810728   4.815167   2.653544   1.727478   0.000000
 Stoichiometry    C14H11(1+)
 Framework group  C1[X(C14H11)]
 Deg. of freedom    69
 Full point group                 C1      NOp   1
 Largest Abelian subgroup         C1      NOp   1
 Largest concise Abelian subgroup C1      NOp   1
                         Standard orientation:                         
 ---------------------------------------------------------------------
 Center     Atomic      Atomic             Coordinates (Angstroms)
 Number     Number       Type             X           Y           Z
 ---------------------------------------------------------------------
      1          6           0        2.495895   -1.365556    0.000000
      2          6           0        3.707642   -0.674909    0.000000
      3          6           0        3.691901    0.715332    0.000000
      4          6           0        2.471987    1.410669    0.000000
      5          6           0       -2.465833    1.411829    0.000000
      6          6           0       -3.693079    0.716199    0.000000
      7          6           0       -3.712257   -0.672186    0.000000
      8          6           0       -2.501033   -1.362700    0.000000
      9          6           0       -0.001644   -1.457937    0.000000
     10          6           0        0.004095    1.433188    0.000000
     11          6           0        1.265345   -0.680676    0.000000
     12          6           0        1.241848    0.731626    0.000000
     13          6           0       -1.263883   -0.676675    0.000000
     14          6           0       -1.239282    0.732624    0.000000
     15          1           0        2.493078   -2.450854    0.000000
     16          1           0        4.644591   -1.216214    0.000000
     17          1           0        4.620436    1.272776    0.000000
     18          1           0        2.476178    2.495234    0.000000
     19          1           0        0.004251    2.516218    0.000000
     20          1           0       -2.471003    2.496523    0.000000
     21          1           0       -4.619262    1.277724    0.000000
     22          1           0       -4.649658   -1.212282    0.000000
     23          1           0       -2.496962   -2.448053    0.000000
     24          1           0       -0.005922   -2.148017    0.863739
     25          1           0       -0.005932   -2.148017   -0.863739
 ---------------------------------------------------------------------
 Rotational constants (GHZ):           2.1253334           0.4425703           0.3670949
 Standard basis: 6-311++G(d,p) (5D, 7F)
 There are   399 symmetry adapted cartesian basis functions of A   symmetry.
 There are   385 symmetry adapted basis functions of A   symmetry.
   385 basis functions,   603 primitive gaussians,   399 cartesian basis functions
    47 alpha electrons       47 beta electrons
       nuclear repulsion energy       779.3325021477 Hartrees.
 NAtoms=   25 NActive=   25 NUniq=   25 SFac= 1.00D+00 NAtFMM=   60 NAOKFM=F Big=F
 Integral buffers will be    131072 words long.
 Raffenetti 2 integral format.
 Two-electron integral symmetry is turned on.
 One-electron integrals computed using PRISM.
 NBasis=   385 RedAO= T EigKep=  1.15D-06  NBF=   385
 NBsUse=   379 1.00D-06 EigRej=  8.65D-07 NBFU=   379
 ExpMin= 3.60D-02 ExpMax= 4.56D+03 ExpMxC= 6.82D+02 IAcc=3 IRadAn=         5 AccDes= 0.00D+00
 Harris functional with IExCor= 1009 and IRadAn=       5 diagonalized for initial guess.
 HarFok:  IExCor= 1009 AccDes= 0.00D+00 IRadAn=         5 IDoV= 1 UseB2=F ITyADJ=14
 ICtDFT=  3500011 ScaDFX=  1.000000  1.000000  1.000000  1.000000
 FoFCou: FMM=F IPFlag=           0 FMFlag=      100000 FMFlg1=           0
         NFxFlg=           0 DoJE=T BraDBF=F KetDBF=T FulRan=T
         wScrn=  0.000000 ICntrl=       500 IOpCl=  0 I1Cent=   200000004 NGrid=           0
         NMat0=    1 NMatS0=      1 NMatT0=    0 NMatD0=    1 NMtDS0=    0 NMtDT0=    0
 Petite list used in FoFCou.
 Requested convergence on RMS density matrix=1.00D-08 within 128 cycles.
 Requested convergence on MAX density matrix=1.00D-06.
 Requested convergence on             energy=1.00D-06.
 No special actions if energy rises.
 SCF Done:  E(RM062X) =  -539.758968442     A.U. after   15 cycles
            NFock= 15  Conv=0.45D-08     -V/T= 2.0045

 **********************************************************************

            Population analysis using the SCF Density.

 **********************************************************************

 Orbital symmetries:
       Occupied  (A) (A) (A) (A) (A) (A) (A) (A) (A) (A) (A) (A)
                 (A) (A) (A) (A) (A) (A) (A) (A) (A) (A) (A) (A)
                 (A) (A) (A) (A) (A) (A) (A) (A) (A) (A) (A) (A)
                 (A) (A) (A) (A) (A) (A) (A) (A) (A) (A) (A)
       Virtual   (A) (A) (A) (A) (A) (A) (A) (A) (A) (A) (A) (A)
                 (A) (A) (A) (A) (A) (A) (A) (A) (A) (A) (A) (A)
                 (A) (A) (A) (A) (A) (A) (A) (A) (A) (A) (A) (A)
                 (A) (A) (A) (A) (A) (A) (A) (A) (A) (A) (A) (A)
                 (A) (A) (A) (A) (A) (A) (A) (A) (A) (A) (A) (A)
                 (A) (A) (A) (A) (A) (A) (A) (A) (A) (A) (A) (A)
                 (A) (A) (A) (A) (A) (A) (A) (A) (A) (A) (A) (A)
                 (A) (A) (A) (A) (A) (A) (A) (A) (A) (A) (A) (A)
                 (A) (A) (A) (A) (A) (A) (A) (A) (A) (A) (A) (A)
                 (A) (A) (A) (A) (A) (A) (A) (A) (A) (A) (A) (A)
                 (A) (A) (A) (A) (A) (A) (A) (A) (A) (A) (A) (A)
                 (A) (A) (A) (A) (A) (A) (A) (A) (A) (A) (A) (A)
                 (A) (A) (A) (A) (A) (A) (A) (A) (A) (A) (A) (A)
                 (A) (A) (A) (A) (A) (A) (A) (A) (A) (A) (A) (A)
                 (A) (A) (A) (A) (A) (A) (A) (A) (A) (A) (A) (A)
                 (A) (A) (A) (A) (A) (A) (A) (A) (A) (A) (A) (A)
                 (A) (A) (A) (A) (A) (A) (A) (A) (A) (A) (A) (A)
                 (A) (A) (A) (A) (A) (A) (A) (A) (A) (A) (A) (A)
                 (A) (A) (A) (A) (A) (A) (A) (A) (A) (A) (A) (A)
                 (A) (A) (A) (A) (A) (A) (A) (A) (A) (A) (A) (A)
                 (A) (A) (A) (A) (A) (A) (A) (A) (A) (A) (A) (A)
                 (A) (A) (A) (A) (A) (A) (A) (A) (A) (A) (A) (A)
                 (A) (A) (A) (A) (A) (A) (A) (A) (A) (A) (A) (A)
                 (A) (A) (A) (A) (A) (A) (A) (A) (A) (A) (A) (A)
                 (A) (A) (A) (A) (A) (A) (A) (A) (A) (A) (A) (A)
                 (A) (A) (A) (A) (A) (A) (A) (A) (A) (A) (A) (A)
                 (A) (A) (A) (A) (A) (A) (A) (A) (A) (A) (A) (A)
                 (A) (A) (A) (A) (A) (A) (A) (A)
 The electronic state is 1-A.
 Alpha  occ. eigenvalues --  -10.77775 -10.73390 -10.73302 -10.72592 -10.72518
 Alpha  occ. eigenvalues --  -10.71514 -10.71433 -10.71194 -10.71070 -10.71018
 Alpha  occ. eigenvalues --  -10.70101 -10.70062 -10.69761 -10.69715  -1.16223
 Alpha  occ. eigenvalues --   -1.12262  -1.06767  -1.05572  -1.01179  -1.00057
 Alpha  occ. eigenvalues --   -0.95678  -0.90942  -0.86287  -0.85786  -0.83736
 Alpha  occ. eigenvalues --   -0.78333  -0.75858  -0.74291  -0.69465  -0.69199
 Alpha  occ. eigenvalues --   -0.68420  -0.68100  -0.68001  -0.64663  -0.64222
 Alpha  occ. eigenvalues --   -0.62965  -0.61784  -0.59919  -0.59532  -0.59052
 Alpha  occ. eigenvalues --   -0.56871  -0.55201  -0.54787  -0.52330  -0.46557
 Alpha  occ. eigenvalues --   -0.45992  -0.44455
 Alpha virt. eigenvalues --   -0.26104  -0.14708  -0.14148  -0.12843  -0.11167
 Alpha virt. eigenvalues --   -0.10084  -0.09229  -0.08017  -0.07984  -0.07480
 Alpha virt. eigenvalues --   -0.07197  -0.07161  -0.05656  -0.05592  -0.05356
 Alpha virt. eigenvalues --   -0.03816  -0.03626  -0.03301  -0.03159  -0.02169
 Alpha virt. eigenvalues --   -0.01359  -0.00927   0.00178   0.00585   0.00632
 Alpha virt. eigenvalues --    0.01057   0.01507   0.01922   0.02176   0.02290
 Alpha virt. eigenvalues --    0.02433   0.02648   0.02661   0.03318   0.03339
 Alpha virt. eigenvalues --    0.04232   0.04481   0.04683   0.04989   0.05332
 Alpha virt. eigenvalues --    0.06037   0.06248   0.06581   0.07023   0.07241
 Alpha virt. eigenvalues --    0.07866   0.08078   0.08331   0.08487   0.08896
 Alpha virt. eigenvalues --    0.09504   0.09517   0.09960   0.10737   0.10916
 Alpha virt. eigenvalues --    0.11097   0.12128   0.12193   0.12887   0.12924
 Alpha virt. eigenvalues --    0.13335   0.13512   0.13979   0.14266   0.16134
 Alpha virt. eigenvalues --    0.16189   0.16263   0.17315   0.17565   0.17720
 Alpha virt. eigenvalues --    0.18042   0.18956   0.19163   0.19548   0.19661
 Alpha virt. eigenvalues --    0.21446   0.21526   0.22590   0.22996   0.23472
 Alpha virt. eigenvalues --    0.23705   0.24555   0.25255   0.26820   0.27469
 Alpha virt. eigenvalues --    0.28709   0.29233   0.29747   0.31257   0.35487
 Alpha virt. eigenvalues --    0.36095   0.38115   0.39216   0.41113   0.41446
 Alpha virt. eigenvalues --    0.41829   0.42260   0.43015   0.43546   0.44317
 Alpha virt. eigenvalues --    0.44698   0.44814   0.45882   0.46036   0.47962
 Alpha virt. eigenvalues --    0.48565   0.48802   0.49066   0.50434   0.51016
 Alpha virt. eigenvalues --    0.51385   0.51529   0.52118   0.52688   0.53889
 Alpha virt. eigenvalues --    0.54074   0.54545   0.55666   0.55712   0.57471
 Alpha virt. eigenvalues --    0.58195   0.58696   0.61357   0.62076   0.62196
 Alpha virt. eigenvalues --    0.63063   0.63440   0.64738   0.65018   0.67062
 Alpha virt. eigenvalues --    0.70257   0.70559   0.70734   0.72289   0.72708
 Alpha virt. eigenvalues --    0.75702   0.75869   0.76186   0.76876   0.77090
 Alpha virt. eigenvalues --    0.77707   0.77801   0.78127   0.79907   0.80268
 Alpha virt. eigenvalues --    0.81131   0.81601   0.82020   0.82844   0.85048
 Alpha virt. eigenvalues --    0.87006   0.88000   0.88564   0.89014   0.90339
 Alpha virt. eigenvalues --    0.90917   0.91212   0.93109   0.94436   0.96358
 Alpha virt. eigenvalues --    0.96517   1.00307   1.01109   1.01564   1.02548
 Alpha virt. eigenvalues --    1.03035   1.03644   1.04562   1.05251   1.08555
 Alpha virt. eigenvalues --    1.19430   1.23150   1.23856   1.25188   1.27829
 Alpha virt. eigenvalues --    1.29673   1.31762   1.34155   1.35630   1.35827
 Alpha virt. eigenvalues --    1.39174   1.39907   1.40724   1.42920   1.43116
 Alpha virt. eigenvalues --    1.43294   1.44801   1.45054   1.46170   1.46489
 Alpha virt. eigenvalues --    1.47433   1.47639   1.51420   1.53383   1.55272
 Alpha virt. eigenvalues --    1.55535   1.56074   1.56337   1.57552   1.61061
 Alpha virt. eigenvalues --    1.63154   1.63431   1.63687   1.65944   1.67908
 Alpha virt. eigenvalues --    1.68149   1.68490   1.69512   1.74091   1.75590
 Alpha virt. eigenvalues --    1.76802   1.77859   1.79796   1.79806   1.80368
 Alpha virt. eigenvalues --    1.82804   1.82870   1.83393   1.83640   1.83852
 Alpha virt. eigenvalues --    1.83979   1.85683   1.85776   1.88064   1.91086
 Alpha virt. eigenvalues --    1.91797   1.93782   1.94977   1.97300   1.97778
 Alpha virt. eigenvalues --    1.99526   2.01969   2.03887   2.06886   2.11436
 Alpha virt. eigenvalues --    2.11570   2.13725   2.14724   2.18560   2.20676
 Alpha virt. eigenvalues --    2.22251   2.28131   2.29514   2.33986   2.34382
 Alpha virt. eigenvalues --    2.35631   2.38300   2.39246   2.41805   2.44335
 Alpha virt. eigenvalues --    2.45691   2.45716   2.48820   2.52358   2.53031
 Alpha virt. eigenvalues --    2.54088   2.56667   2.57689   2.58343   2.59517
 Alpha virt. eigenvalues --    2.59801   2.61294   2.61907   2.63475   2.63586
 Alpha virt. eigenvalues --    2.64720   2.64990   2.65274   2.65398   2.67500
 Alpha virt. eigenvalues --    2.67783   2.70493   2.70819   2.73172   2.74662
 Alpha virt. eigenvalues --    2.76138   2.77839   2.79565   2.81902   2.82872
 Alpha virt. eigenvalues --    2.83929   2.86064   2.91766   2.96764   2.99193
 Alpha virt. eigenvalues --    2.99733   3.04326   3.09841   3.10569   3.12180
 Alpha virt. eigenvalues --    3.20128   3.22824   3.25982   3.27541   3.30055
 Alpha virt. eigenvalues --    3.32057   3.32550   3.42693   3.45155   3.45679
 Alpha virt. eigenvalues --    3.47467   3.48909   3.55797   3.65859   3.66065
 Alpha virt. eigenvalues --    3.66801   3.93645   3.94149   3.94700   3.95788
 Alpha virt. eigenvalues --    4.03446   4.06378   4.07096   4.12045   4.35155
 Alpha virt. eigenvalues --    4.60558   4.69161   4.70985  23.45152  23.60101
 Alpha virt. eigenvalues --   23.81485  23.84551  23.86955  23.88353  23.89731
 Alpha virt. eigenvalues --   23.91324  23.96502  23.98226  23.98555  23.99108
 Alpha virt. eigenvalues --   24.09144  24.09259
     Molecular Orbital Coefficients:
                          43        44        45        46        47
                           O         O         O         O         O
     Eigenvalues --    -0.54787  -0.52330  -0.46557  -0.45992  -0.44455
   1 1   C  1S         -0.00164  -0.00000   0.00000   0.00000   0.00000
   2        2S         -0.00269  -0.00000   0.00000   0.00000   0.00000
   3        2PX        -0.08859  -0.00000  -0.00000  -0.00000   0.00000
   4        2PY        -0.01725  -0.00000  -0.00000   0.00000  -0.00000
   5        2PZ         0.00000  -0.07425  -0.10588   0.02132   0.09119
   6        3S          0.00735   0.00000   0.00000  -0.00000  -0.00000
   7        3PX        -0.12538  -0.00000  -0.00000  -0.00000   0.00000
   8        3PY        -0.02520  -0.00000  -0.00000  -0.00000  -0.00000
   9        3PZ         0.00000  -0.11944  -0.17267   0.03464   0.14983
  10        4S         -0.01735   0.00000  -0.00000  -0.00000  -0.00000
  11        4PX        -0.08430   0.00000   0.00000   0.00000   0.00000
  12        4PY        -0.03542   0.00000  -0.00000  -0.00000   0.00000
  13        4PZ         0.00000  -0.09872  -0.15126   0.03301   0.13435
  14        5S          0.10921  -0.00000  -0.00000  -0.00000  -0.00000
  15        5PX         0.12808   0.00000   0.00000   0.00000   0.00000
  16        5PY         0.00929   0.00000   0.00000   0.00000   0.00000
  17        5PZ         0.00000  -0.00075  -0.04169  -0.00382   0.02098
  18        6D 0        0.00033   0.00000  -0.00000  -0.00000   0.00000
  19        6D+1       -0.00000  -0.00862   0.00456   0.01640  -0.00496
  20        6D-1        0.00000  -0.00757  -0.00657   0.00186   0.00614
  21        6D+2       -0.00594  -0.00000  -0.00000  -0.00000   0.00000
  22        6D-2       -0.01118  -0.00000   0.00000   0.00000   0.00000
  23 2   C  1S          0.00221   0.00000   0.00000   0.00000  -0.00000
  24        2S          0.00367   0.00000   0.00000   0.00000  -0.00000
  25        2PX         0.07869   0.00000   0.00000   0.00000  -0.00000
  26        2PY         0.02646   0.00000   0.00000   0.00000  -0.00000
  27        2PZ        -0.00000  -0.10191  -0.03155   0.09850   0.01400
  28        3S         -0.01255  -0.00000  -0.00000   0.00000   0.00000
  29        3PX         0.11306   0.00000   0.00000   0.00000  -0.00000
  30        3PY         0.03739   0.00000   0.00000   0.00000  -0.00000
  31        3PZ        -0.00000  -0.16791  -0.05247   0.16190   0.02293
  32        4S          0.02252  -0.00000   0.00000   0.00000  -0.00000
  33        4PX         0.07617   0.00000  -0.00000  -0.00000  -0.00000
  34        4PY         0.01428   0.00000   0.00000   0.00000   0.00000
  35        4PZ        -0.00000  -0.12702  -0.04306   0.13814   0.02122
  36        5S         -0.11600   0.00000  -0.00000  -0.00000  -0.00000
  37        5PX         0.04763  -0.00000   0.00000   0.00000   0.00000
  38        5PY         0.07674   0.00000   0.00000   0.00000   0.00000
  39        5PZ        -0.00000  -0.00097   0.01599   0.00814   0.00738
  40        6D 0       -0.00002   0.00000   0.00000   0.00000   0.00000
  41        6D+1       -0.00000   0.00926   0.01049  -0.00326  -0.00918
  42        6D-1       -0.00000  -0.00550   0.01379   0.00877  -0.01419
  43        6D+2        0.00093   0.00000   0.00000   0.00000  -0.00000
  44        6D-2       -0.01613  -0.00000   0.00000   0.00000   0.00000
  45 3   C  1S         -0.00072  -0.00000   0.00000   0.00000  -0.00000
  46        2S         -0.00121  -0.00000   0.00000   0.00000  -0.00000
  47        2PX        -0.07100  -0.00000   0.00000   0.00000   0.00000
  48        2PY        -0.01618  -0.00000  -0.00000  -0.00000   0.00000
  49        2PZ        -0.00000  -0.07621   0.07090   0.08394  -0.07914
  50        3S          0.00582   0.00000   0.00000  -0.00000   0.00000
  51        3PX        -0.10224  -0.00000   0.00000   0.00000   0.00000
  52        3PY        -0.02346  -0.00000  -0.00000  -0.00000   0.00000
  53        3PZ        -0.00000  -0.12401   0.11691   0.13676  -0.13010
  54        4S         -0.02499   0.00000  -0.00000  -0.00000   0.00000
  55        4PX        -0.07712  -0.00000   0.00000   0.00000  -0.00000
  56        4PY        -0.02468  -0.00000   0.00000   0.00000   0.00000
  57        4PZ        -0.00000  -0.09749   0.10061   0.12078  -0.11509
  58        5S         -0.02647  -0.00000  -0.00000  -0.00000  -0.00000
  59        5PX        -0.02756   0.00000  -0.00000  -0.00000   0.00000
  60        5PY         0.05978   0.00000   0.00000   0.00000  -0.00000
  61        5PZ         0.00000  -0.00883  -0.01099   0.01708  -0.01673
  62        6D 0       -0.00033  -0.00000   0.00000   0.00000   0.00000
  63        6D+1        0.00000   0.00308  -0.01083  -0.00021   0.00890
  64        6D-1       -0.00000   0.01128   0.00864  -0.01184  -0.00569
  65        6D+2       -0.00578  -0.00000  -0.00000  -0.00000   0.00000
  66        6D-2       -0.01737  -0.00000  -0.00000  -0.00000   0.00000
  67 4   C  1S          0.00104   0.00000   0.00000   0.00000  -0.00000
  68        2S          0.00173   0.00000   0.00000   0.00000  -0.00000
  69        2PX         0.08269   0.00000   0.00000   0.00000  -0.00000
  70        2PY         0.01681   0.00000   0.00000   0.00000  -0.00000
  71        2PZ        -0.00000  -0.01075   0.10839  -0.01072  -0.08821
  72        3S         -0.00642  -0.00000  -0.00000  -0.00000   0.00000
  73        3PX         0.11738   0.00000   0.00000   0.00000  -0.00000
  74        3PY         0.02436   0.00000   0.00000   0.00000  -0.00000
  75        3PZ        -0.00000  -0.01628   0.17773  -0.01716  -0.14348
  76        4S          0.04087  -0.00000   0.00000   0.00000   0.00000
  77        4PX         0.06391   0.00000  -0.00000  -0.00000  -0.00000
  78        4PY         0.00895   0.00000  -0.00000  -0.00000  -0.00000
  79        4PZ        -0.00000  -0.02120   0.15475  -0.00803  -0.14159
  80        5S          0.22488  -0.00000   0.00000   0.00000  -0.00000
  81        5PX        -0.10105   0.00000  -0.00000  -0.00000   0.00000
  82        5PY        -0.05073   0.00000  -0.00000  -0.00000   0.00000
  83        5PZ        -0.00000   0.01524   0.03953  -0.02201  -0.01551
  84        6D 0       -0.00034   0.00000   0.00000   0.00000   0.00000
  85        6D+1        0.00000  -0.01345   0.00229   0.01826  -0.00757
  86        6D-1        0.00000   0.00311  -0.00648  -0.00001   0.00489
  87        6D+2       -0.00539  -0.00000  -0.00000  -0.00000   0.00000
  88        6D-2       -0.00994  -0.00000   0.00000   0.00000  -0.00000
  89 5   C  1S          0.00005  -0.00000   0.00000   0.00000   0.00000
  90        2S          0.00008  -0.00000   0.00000   0.00000   0.00000
  91        2PX         0.08069   0.00000  -0.00000  -0.00000  -0.00000
  92        2PY        -0.00363  -0.00000   0.00000   0.00000   0.00000
  93        2PZ        -0.00000  -0.01146  -0.09921   0.01628  -0.09807
  94        3S          0.00063   0.00000  -0.00000  -0.00000  -0.00000
  95        3PX         0.11446   0.00000  -0.00000  -0.00000  -0.00000
  96        3PY        -0.00540  -0.00000   0.00000   0.00000   0.00000
  97        3PZ        -0.00000  -0.01748  -0.16275   0.02616  -0.15967
  98        4S         -0.03959   0.00000   0.00000   0.00000   0.00000
  99        4PX         0.06793   0.00000   0.00000   0.00000  -0.00000
 100        4PY         0.00721  -0.00000  -0.00000  -0.00000   0.00000
 101        4PZ        -0.00000  -0.02221  -0.14047   0.01613  -0.15661
 102        5S         -0.22516   0.00000   0.00000   0.00000   0.00000
 103        5PX        -0.10948   0.00000   0.00000   0.00000   0.00000
 104        5PY         0.04862  -0.00000  -0.00000  -0.00000  -0.00000
 105        5PZ        -0.00000   0.01473  -0.03822   0.02274  -0.01862
 106        6D 0        0.00025  -0.00000   0.00000   0.00000  -0.00000
 107        6D+1       -0.00000   0.01323   0.00132   0.01793   0.00863
 108        6D-1        0.00000   0.00315   0.00590  -0.00036   0.00542
 109        6D+2        0.00177   0.00000  -0.00000  -0.00000  -0.00000
 110        6D-2       -0.01002  -0.00000  -0.00000  -0.00000  -0.00000
 111 6   C  1S          0.00048   0.00000   0.00000   0.00000   0.00000
 112        2S          0.00080   0.00000   0.00000   0.00000   0.00000
 113        2PX        -0.07199  -0.00000  -0.00000  -0.00000   0.00000
 114        2PY         0.00335   0.00000  -0.00000  -0.00000  -0.00000
 115        2PZ        -0.00000  -0.07662  -0.06176  -0.08033  -0.09006
 116        3S         -0.00459  -0.00000   0.00000   0.00000  -0.00000
 117        3PX        -0.10364  -0.00000  -0.00000  -0.00000   0.00000
 118        3PY         0.00511   0.00000  -0.00000  -0.00000  -0.00000
 119        3PZ        -0.00000  -0.12465  -0.10192  -0.13076  -0.14804
 120        4S          0.02651  -0.00000  -0.00000  -0.00000  -0.00000
 121        4PX        -0.07531  -0.00000  -0.00000  -0.00000  -0.00000
 122        4PY         0.01400   0.00000   0.00000   0.00000  -0.00000
 123        4PZ        -0.00000  -0.09777  -0.08785  -0.11533  -0.13117
 124        5S          0.01328   0.00000  -0.00000  -0.00000  -0.00000
 125        5PX        -0.03218   0.00000   0.00000   0.00000   0.00000
 126        5PY        -0.06341  -0.00000   0.00000   0.00000   0.00000
 127        5PZ         0.00000  -0.00849   0.01249  -0.01621  -0.01652
 128        6D 0        0.00025   0.00000   0.00000   0.00000  -0.00000
 129        6D+1       -0.00000  -0.00312  -0.00983   0.00034  -0.00987
 130        6D-1       -0.00000   0.01130  -0.00809   0.01230  -0.00588
 131        6D+2        0.00336   0.00000  -0.00000  -0.00000  -0.00000
 132        6D-2       -0.01685  -0.00000  -0.00000  -0.00000   0.00000
 133 7   C  1S         -0.00240  -0.00000  -0.00000  -0.00000   0.00000
 134        2S         -0.00399  -0.00000  -0.00000  -0.00000   0.00000
 135        2PX         0.07958   0.00000   0.00000  -0.00000  -0.00000
 136        2PY        -0.01317  -0.00000   0.00000   0.00000   0.00000
 137        2PZ        -0.00000  -0.10206   0.03061  -0.10019   0.01189
 138        3S          0.01362   0.00000   0.00000   0.00000  -0.00000
 139        3PX         0.11458   0.00000   0.00000  -0.00000  -0.00000
 140        3PY        -0.01849  -0.00000   0.00000   0.00000   0.00000
 141        3PZ        -0.00000  -0.16813   0.05094  -0.16465   0.01954
 142        4S         -0.01939   0.00000   0.00000   0.00000   0.00000
 143        4PX         0.08022   0.00000   0.00000   0.00000  -0.00000
 144        4PY        -0.00153  -0.00000   0.00000   0.00000   0.00000
 145        4PZ        -0.00000  -0.12691   0.04157  -0.14028   0.01804
 146        5S          0.12954  -0.00000  -0.00000  -0.00000   0.00000
 147        5PX         0.05302  -0.00000  -0.00000  -0.00000  -0.00000
 148        5PY        -0.08011  -0.00000   0.00000   0.00000   0.00000
 149        5PZ        -0.00000  -0.00127  -0.01661  -0.00860   0.00505
 150        6D 0       -0.00005  -0.00000   0.00000   0.00000  -0.00000
 151        6D+1        0.00000  -0.00931   0.00952  -0.00388   0.01001
 152        6D-1       -0.00000  -0.00554  -0.01224  -0.00806  -0.01599
 153        6D+2       -0.00325  -0.00000  -0.00000  -0.00000   0.00000
 154        6D-2       -0.01708  -0.00000  -0.00000  -0.00000   0.00000
 155 8   C  1S          0.00226   0.00000   0.00000   0.00000  -0.00000
 156        2S          0.00372   0.00000   0.00000   0.00000  -0.00000
 157        2PX        -0.09195  -0.00000  -0.00000  -0.00000   0.00000
 158        2PY         0.00457   0.00000  -0.00000  -0.00000   0.00000
 159        2PZ         0.00000  -0.07452   0.09621  -0.02710   0.10043
 160        3S         -0.01081  -0.00000   0.00000  -0.00000   0.00000
 161        3PX        -0.13054  -0.00000   0.00000   0.00000   0.00000
 162        3PY         0.00694   0.00000  -0.00000  -0.00000   0.00000
 163        3PZ         0.00000  -0.11984   0.15677  -0.04402   0.16486
 164        4S          0.01810  -0.00000  -0.00000  -0.00000  -0.00000
 165        4PX        -0.08302   0.00000  -0.00000  -0.00000   0.00000
 166        4PY         0.01746  -0.00000  -0.00000  -0.00000  -0.00000
 167        4PZ         0.00000  -0.09897   0.13751  -0.04116   0.14787
 168        5S         -0.10430   0.00000  -0.00000  -0.00000   0.00000
 169        5PX         0.13897   0.00000  -0.00000  -0.00000  -0.00000
 170        5PY        -0.01246  -0.00000   0.00000   0.00000  -0.00000
 171        5PZ         0.00000  -0.00046   0.03952   0.00272   0.02559
 172        6D 0       -0.00034  -0.00000  -0.00000  -0.00000  -0.00000
 173        6D+1        0.00000   0.00857   0.00390   0.01620   0.00625
 174        6D-1        0.00000  -0.00761   0.00584  -0.00228   0.00659
 175        6D+2        0.00210   0.00000  -0.00000  -0.00000  -0.00000
 176        6D-2       -0.01120  -0.00000  -0.00000  -0.00000   0.00000
 177 9   C  1S          0.00079   0.00000  -0.00000  -0.00000  -0.00000
 178        2S          0.00131   0.00000  -0.00000  -0.00000  -0.00000
 179        2PX        -0.10259  -0.00000  -0.00000  -0.00000   0.00000
 180        2PY        -0.00743   0.00000  -0.00000  -0.00000  -0.00000
 181        2PZ         0.00000   0.00636   0.00339   0.00141  -0.06090
 182        3S         -0.00419  -0.00000   0.00000   0.00000   0.00000
 183        3PX        -0.15415  -0.00000  -0.00000  -0.00000   0.00000
 184        3PY        -0.01105   0.00000  -0.00000  -0.00000  -0.00000
 185        3PZ         0.00000   0.00724   0.00515   0.00217  -0.09292
 186        4S         -0.00015   0.00000   0.00000   0.00000   0.00000
 187        4PX        -0.10444   0.00000  -0.00000  -0.00000  -0.00000
 188        4PY        -0.01088   0.00000  -0.00000  -0.00000  -0.00000
 189        4PZ         0.00000   0.04319   0.00499   0.00213  -0.09346
 190        5S          0.00065   0.00000   0.00000   0.00000   0.00000
 191        5PX         0.39330  -0.00000   0.00000   0.00000  -0.00000
 192        5PY        -0.00143   0.00000   0.00000   0.00000   0.00000
 193        5PZ         0.00000   0.06968  -0.00524  -0.00236   0.09358
 194        6D 0        0.00075   0.00000   0.00000  -0.00000  -0.00000
 195        6D+1        0.00000   0.00004  -0.01338  -0.01296  -0.00101
 196        6D-1       -0.00000  -0.00032  -0.00092  -0.00036   0.01820
 197        6D+2       -0.00173  -0.00000  -0.00000  -0.00000   0.00000
 198        6D-2       -0.01083  -0.00000  -0.00000  -0.00000   0.00000
 199 10  C  1S          0.00100   0.00000  -0.00000  -0.00000  -0.00000
 200        2S          0.00165   0.00000  -0.00000  -0.00000  -0.00000
 201        2PX         0.07672   0.00000   0.00000   0.00000  -0.00000
 202        2PY         0.00573   0.00000   0.00000   0.00000  -0.00000
 203        2PZ        -0.00000   0.10339  -0.00079  -0.00094   0.01707
 204        3S         -0.00508  -0.00000   0.00000   0.00000   0.00000
 205        3PX         0.11016   0.00000   0.00000   0.00000  -0.00000
 206        3PY         0.00821   0.00000   0.00000   0.00000   0.00000
 207        3PZ        -0.00000   0.16855  -0.00136  -0.00154   0.02897
 208        4S         -0.00463  -0.00000  -0.00000  -0.00000  -0.00000
 209        4PX         0.08738  -0.00000   0.00000   0.00000  -0.00000
 210        4PY         0.00988   0.00000   0.00000   0.00000   0.00000
 211        4PZ        -0.00000   0.13990  -0.00095  -0.00112   0.02076
 212        5S         -0.00061   0.00000   0.00000   0.00000   0.00000
 213        5PX        -0.29658   0.00000  -0.00000  -0.00000   0.00000
 214        5PY         0.00064  -0.00000   0.00000   0.00000   0.00000
 215        5PZ        -0.00000   0.01431   0.00303   0.00160  -0.05980
 216        6D 0       -0.00015   0.00000   0.00000   0.00000   0.00000
 217        6D+1       -0.00000   0.00026   0.00984  -0.02204  -0.00007
 218        6D-1        0.00000  -0.00926   0.00021   0.00013  -0.00424
 219        6D+2       -0.00218   0.00000  -0.00000  -0.00000  -0.00000
 220        6D-2       -0.01044  -0.00000  -0.00000  -0.00000   0.00000
 221 11  C  1S          0.00099   0.00000   0.00000   0.00000  -0.00000
 222        2S          0.00163   0.00000   0.00000   0.00000  -0.00000
 223        2PX         0.08645   0.00000   0.00000   0.00000  -0.00000
 224        2PY         0.02399   0.00000   0.00000   0.00000  -0.00000
 225        2PZ         0.00000  -0.00351  -0.07880  -0.07983   0.07215
 226        3S         -0.00426  -0.00000  -0.00000   0.00000   0.00000
 227        3PX         0.12697   0.00000   0.00000   0.00000  -0.00000
 228        3PY         0.03576   0.00000   0.00000   0.00000  -0.00000
 229        3PZ         0.00000  -0.00475  -0.12788  -0.13222   0.11769
 230        4S         -0.01748  -0.00000  -0.00000  -0.00000   0.00000
 231        4PX         0.12187   0.00000   0.00000   0.00000  -0.00000
 232        4PY         0.01912   0.00000   0.00000   0.00000  -0.00000
 233        4PZ         0.00000  -0.01821  -0.13421  -0.11619   0.11915
 234        5S          0.09004  -0.00000  -0.00001  -0.00001  -0.00000
 235        5PX         0.17907  -0.00000   0.00000   0.00000  -0.00000
 236        5PY         0.28890  -0.00000  -0.00001  -0.00001  -0.00000
 237        5PZ        -0.00000  -0.01612   0.04164  -0.00511  -0.06842
 238        6D 0       -0.00042   0.00000  -0.00000  -0.00000   0.00000
 239        6D+1       -0.00000  -0.00960  -0.01030   0.00318   0.01251
 240        6D-1       -0.00000   0.01079   0.00995  -0.01194   0.00038
 241        6D+2       -0.00236   0.00000  -0.00000  -0.00000   0.00000
 242        6D-2       -0.01937  -0.00000  -0.00000  -0.00000   0.00000
 243 12  C  1S          0.00051   0.00000  -0.00000  -0.00000   0.00000
 244        2S          0.00088   0.00000  -0.00000  -0.00000   0.00000
 245        2PX        -0.07422  -0.00000  -0.00000  -0.00000   0.00000
 246        2PY        -0.02260  -0.00000  -0.00000  -0.00000   0.00000
 247        2PZ        -0.00000   0.06588   0.03917  -0.10486   0.00604
 248        3S         -0.00251  -0.00000   0.00000   0.00000  -0.00000
 249        3PX        -0.10668  -0.00000  -0.00000   0.00000   0.00000
 250        3PY        -0.03271  -0.00000  -0.00000  -0.00000   0.00000
 251        3PZ        -0.00000   0.10818   0.06239  -0.17271   0.00822
 252        4S         -0.02360   0.00000   0.00000  -0.00000   0.00000
 253        4PX        -0.10590  -0.00000  -0.00000  -0.00000   0.00000
 254        4PY        -0.04610   0.00000   0.00000   0.00000   0.00000
 255        4PZ        -0.00000   0.09840   0.07315  -0.16802   0.01584
 256        5S         -0.28729   0.00000   0.00001   0.00001   0.00000
 257        5PX        -0.30979   0.00000   0.00000   0.00000   0.00000
 258        5PY         0.20796  -0.00000  -0.00000  -0.00000  -0.00000
 259        5PZ         0.00000  -0.01548  -0.04428   0.01473   0.06959
 260        6D 0       -0.00005   0.00000  -0.00000  -0.00000  -0.00000
 261        6D+1        0.00000  -0.01243   0.00970   0.00059  -0.01074
 262        6D-1       -0.00000   0.00492   0.01486   0.00644  -0.01255
 263        6D+2       -0.00251  -0.00000  -0.00000  -0.00000   0.00000
 264        6D-2       -0.01766  -0.00000  -0.00000  -0.00000   0.00000
 265 13  C  1S         -0.00046  -0.00000   0.00000   0.00000   0.00000
 266        2S         -0.00074  -0.00000   0.00000   0.00000   0.00000
 267        2PX         0.08667   0.00000  -0.00000  -0.00000  -0.00000
 268        2PY        -0.00406  -0.00000   0.00000   0.00000   0.00000
 269        2PZ         0.00000  -0.00413   0.07042   0.07638   0.08412
 270        3S          0.00156   0.00000   0.00000   0.00000  -0.00000
 271        3PX         0.12705   0.00000  -0.00000  -0.00000  -0.00000
 272        3PY        -0.00673  -0.00000   0.00000   0.00000   0.00000
 273        3PZ         0.00000  -0.00588   0.11423   0.12651   0.13725
 274        4S          0.01088   0.00000  -0.00000  -0.00000  -0.00000
 275        4PX         0.12183   0.00000  -0.00000  -0.00000  -0.00000
 276        4PY         0.00432  -0.00000   0.00000   0.00000   0.00000
 277        4PZ         0.00000  -0.01907   0.12118   0.11035   0.13956
 278        5S         -0.08269   0.00000  -0.00001  -0.00001  -0.00000
 279        5PX         0.18816  -0.00000  -0.00000  -0.00000  -0.00000
 280        5PY        -0.27321   0.00000  -0.00001  -0.00001   0.00000
 281        5PZ        -0.00000  -0.01645  -0.03390   0.00888  -0.07100
 282        6D 0        0.00042  -0.00000  -0.00000  -0.00000  -0.00000
 283        6D+1        0.00000   0.00955  -0.00886   0.00390  -0.01321
 284        6D-1       -0.00000   0.01056  -0.01005   0.01207   0.00001
 285        6D+2       -0.00123  -0.00000  -0.00000  -0.00000  -0.00000
 286        6D-2       -0.01901  -0.00000   0.00000   0.00000   0.00000
 287 14  C  1S         -0.00108  -0.00000  -0.00000  -0.00000  -0.00000
 288        2S         -0.00186  -0.00000  -0.00000  -0.00000  -0.00000
 289        2PX        -0.07291  -0.00000   0.00000   0.00000   0.00000
 290        2PY         0.00373   0.00000  -0.00000  -0.00000  -0.00000
 291        2PZ        -0.00000   0.06368  -0.04037   0.10510   0.00741
 292        3S          0.00538   0.00000   0.00000   0.00000   0.00000
 293        3PX        -0.10470  -0.00000  -0.00000  -0.00000   0.00000
 294        3PY         0.00540   0.00000  -0.00000  -0.00000  -0.00000
 295        3PZ        -0.00000   0.10461  -0.06420   0.17313   0.01073
 296        4S          0.02179  -0.00000   0.00000  -0.00000  -0.00000
 297        4PX        -0.09964  -0.00000   0.00000   0.00000   0.00000
 298        4PY         0.02392  -0.00000   0.00000   0.00000  -0.00000
 299        4PZ        -0.00000   0.09520  -0.07553   0.16796   0.01677
 300        5S          0.27324  -0.00000   0.00001   0.00001  -0.00000
 301        5PX        -0.31789   0.00000  -0.00000  -0.00000   0.00000
 302        5PY        -0.19627   0.00000  -0.00000  -0.00000   0.00000
 303        5PZ         0.00000  -0.01500   0.03718  -0.01850   0.07234
 304        6D 0        0.00005  -0.00000  -0.00000  -0.00000   0.00000
 305        6D+1       -0.00000   0.01243   0.00863  -0.00011   0.01172
 306        6D-1       -0.00000   0.00485  -0.01356  -0.00587  -0.01448
 307        6D+2       -0.00078   0.00000  -0.00000   0.00000  -0.00000
 308        6D-2       -0.01773  -0.00000   0.00000   0.00000   0.00000
 309 15  H  1S          0.01999   0.00000   0.00000   0.00000  -0.00000
 310        2S          0.02757   0.00000   0.00000  -0.00000  -0.00000
 311        3S          0.01072  -0.00000  -0.00000  -0.00000  -0.00000
 312        4S         -0.01377   0.00000   0.00000   0.00000   0.00000
 313        5PX        -0.00468  -0.00000  -0.00000  -0.00000   0.00000
 314        5PY         0.00151   0.00000  -0.00000  -0.00000   0.00000
 315        5PZ         0.00000  -0.00476  -0.00749   0.00149   0.00622
 316 16  H  1S          0.05145   0.00000   0.00000   0.00000  -0.00000
 317        2S          0.07481   0.00000   0.00000   0.00000  -0.00000
 318        3S          0.03014  -0.00000   0.00000   0.00000  -0.00000
 319        4S          0.00800   0.00000   0.00000   0.00000  -0.00000
 320        5PX        -0.00133  -0.00000  -0.00000  -0.00000  -0.00000
 321        5PY         0.00476   0.00000   0.00000   0.00000  -0.00000
 322        5PZ        -0.00000  -0.00653  -0.00222   0.00673   0.00094
 323 17  H  1S         -0.06700  -0.00000  -0.00000  -0.00000   0.00000
 324        2S         -0.09705  -0.00000  -0.00000  -0.00000   0.00000
 325        3S         -0.03689   0.00000  -0.00000  -0.00000   0.00000
 326        4S         -0.00579   0.00000  -0.00000  -0.00000   0.00000
 327        5PX         0.00345   0.00000   0.00000   0.00000  -0.00000
 328        5PY         0.00364   0.00000  -0.00000  -0.00000  -0.00000
 329        5PZ        -0.00000  -0.00486   0.00495   0.00572  -0.00567
 330 18  H  1S          0.01669   0.00000   0.00000   0.00000  -0.00000
 331        2S          0.02463   0.00000   0.00000   0.00000  -0.00000
 332        3S          0.01330   0.00000   0.00000   0.00000  -0.00000
 333        4S          0.01932   0.00000   0.00000   0.00000  -0.00000
 334        5PX         0.00435   0.00000   0.00000   0.00000  -0.00000
 335        5PY        -0.00074  -0.00000  -0.00000  -0.00000   0.00000
 336        5PZ        -0.00000  -0.00015   0.00775  -0.00086  -0.00608
 337 19  H  1S          0.00537  -0.00000   0.00000   0.00000   0.00000
 338        2S          0.00775  -0.00000   0.00000   0.00000  -0.00000
 339        3S          0.00375  -0.00000  -0.00000  -0.00000  -0.00000
 340        4S          0.00058   0.00000  -0.00000  -0.00000  -0.00000
 341        5PX         0.00430   0.00000   0.00000   0.00000  -0.00000
 342        5PY        -0.00014  -0.00000   0.00000   0.00000   0.00000
 343        5PZ        -0.00000   0.00646  -0.00003  -0.00005   0.00059
 344 20  H  1S         -0.00437  -0.00000   0.00000   0.00000   0.00000
 345        2S         -0.00655  -0.00000   0.00000   0.00000   0.00000
 346        3S         -0.00473  -0.00000   0.00000   0.00000   0.00000
 347        4S         -0.01820  -0.00000   0.00000   0.00000   0.00000
 348        5PX         0.00443   0.00000  -0.00000  -0.00000  -0.00000
 349        5PY         0.00002   0.00000  -0.00000  -0.00000  -0.00000
 350        5PZ        -0.00000  -0.00021  -0.00713   0.00124  -0.00681
 351 21  H  1S          0.06146   0.00000  -0.00000  -0.00000  -0.00000
 352        2S          0.08877   0.00000  -0.00000  -0.00000  -0.00000
 353        3S          0.03407  -0.00000  -0.00000   0.00000  -0.00000
 354        4S          0.00580  -0.00000  -0.00000  -0.00000  -0.00000
 355        5PX         0.00276   0.00000  -0.00000  -0.00000  -0.00000
 356        5PY        -0.00402  -0.00000  -0.00000  -0.00000   0.00000
 357        5PZ        -0.00000  -0.00488  -0.00432  -0.00546  -0.00644
 358 22  H  1S         -0.05852  -0.00000  -0.00000  -0.00000   0.00000
 359        2S         -0.08509  -0.00000   0.00000   0.00000   0.00000
 360        3S         -0.03345   0.00000   0.00000   0.00000   0.00000
 361        4S         -0.00748  -0.00000   0.00000   0.00000   0.00000
 362        5PX        -0.00207  -0.00000   0.00000   0.00000  -0.00000
 363        5PY        -0.00446  -0.00000   0.00000   0.00000   0.00000
 364        5PZ        -0.00000  -0.00655   0.00216  -0.00684   0.00080
 365 23  H  1S         -0.00751  -0.00000   0.00000   0.00000   0.00000
 366        2S         -0.00973  -0.00000   0.00000  -0.00000   0.00000
 367        3S         -0.00344   0.00000  -0.00000  -0.00000   0.00000
 368        4S          0.01385  -0.00000   0.00000   0.00000  -0.00000
 369        5PX        -0.00469  -0.00000   0.00000   0.00000   0.00000
 370        5PY        -0.00083  -0.00000  -0.00000  -0.00000  -0.00000
 371        5PZ         0.00000  -0.00477   0.00685  -0.00188   0.00690
 372 24  H  1S          0.00424   0.00338   0.00313   0.00129  -0.05695
 373        2S          0.00603  -0.00419   0.00489   0.00201  -0.09047
 374        3S          0.00270  -0.02573   0.00395   0.00160  -0.07547
 375        4S         -0.00018  -0.04572   0.00216   0.00084  -0.04096
 376        5PX        -0.00511   0.00000  -0.00237  -0.00117  -0.00021
 377        5PY        -0.00009  -0.00088   0.00021   0.00008  -0.00336
 378        5PZ        -0.00039  -0.00011  -0.00009  -0.00003   0.00165
 379 25  H  1S          0.00424  -0.00338  -0.00313  -0.00129   0.05695
 380        2S          0.00603   0.00419  -0.00489  -0.00201   0.09047
 381        3S          0.00270   0.02573  -0.00395  -0.00160   0.07547
 382        4S         -0.00018   0.04572  -0.00216  -0.00084   0.04096
 383        5PX        -0.00511  -0.00000   0.00237   0.00117   0.00021
 384        5PY        -0.00009   0.00088  -0.00021  -0.00008   0.00336
 385        5PZ         0.00039  -0.00011  -0.00009  -0.00003   0.00165
                          48        49        50        51        52
                           V         V         V         V         V
     Eigenvalues --    -0.26104  -0.14708  -0.14148  -0.12843  -0.11167
   1 1   C  1S          0.00000   0.00000  -0.00000   0.00000  -0.00635
   2        2S          0.00000   0.00000  -0.00000   0.00000  -0.01076
   3        2PX        -0.00000  -0.00000  -0.00000  -0.00000   0.00350
   4        2PY         0.00000   0.00000  -0.00000   0.00000  -0.01557
   5        2PZ        -0.00431   0.09541   0.00031   0.10895   0.00000
   6        3S         -0.00000  -0.00000  -0.00000  -0.00000   0.03489
   7        3PX        -0.00000   0.00000   0.00000   0.00000   0.00336
   8        3PY         0.00000   0.00000   0.00000   0.00000  -0.02286
   9        3PZ        -0.00649   0.14664   0.00004   0.17255   0.00000
  10        4S         -0.00000  -0.00000   0.00000   0.00000   0.03247
  11        4PX        -0.00000  -0.00000  -0.00000  -0.00000   0.02617
  12        4PY        -0.00000  -0.00000   0.00000   0.00000  -0.08089
  13        4PZ        -0.00564   0.27714  -0.00705   0.30852   0.00000
  14        5S         -0.00000   0.00000   0.00001   0.00001  -1.76572
  15        5PX         0.00000  -0.00000  -0.00002  -0.00001   1.01334
  16        5PY         0.00000  -0.00000  -0.00000  -0.00000  -0.46586
  17        5PZ         0.01085   0.20633  -0.03765   0.35620   0.00000
  18        6D 0       -0.00000  -0.00000   0.00000  -0.00000  -0.00570
  19        6D+1        0.01787   0.00498  -0.02606   0.00262  -0.00000
  20        6D-1       -0.00187  -0.00858  -0.00078  -0.00899   0.00000
  21        6D+2       -0.00000  -0.00000  -0.00000  -0.00000   0.00158
  22        6D-2       -0.00000   0.00000  -0.00000  -0.00000  -0.00132
  23 2   C  1S          0.00000   0.00000   0.00000   0.00000  -0.00510
  24        2S          0.00000   0.00000   0.00000   0.00000  -0.00847
  25        2PX         0.00000  -0.00000   0.00000  -0.00000   0.00767
  26        2PY         0.00000   0.00000   0.00000  -0.00000  -0.00088
  27        2PZ         0.08605  -0.02609  -0.09995  -0.04598  -0.00000
  28        3S         -0.00000  -0.00000  -0.00000  -0.00000   0.02455
  29        3PX         0.00000  -0.00000   0.00000  -0.00000   0.01268
  30        3PY         0.00000  -0.00000   0.00000  -0.00000  -0.00312
  31        3PZ         0.14093  -0.04038  -0.15916  -0.07241  -0.00000
  32        4S          0.00000   0.00000  -0.00000   0.00000   0.11631
  33        4PX        -0.00000  -0.00000   0.00000   0.00000   0.00103
  34        4PY         0.00000  -0.00000  -0.00000  -0.00000   0.01106
  35        4PZ         0.16440  -0.07525  -0.26531  -0.12792  -0.00000
  36        5S          0.00000   0.00000   0.00000   0.00000   0.37033
  37        5PX        -0.00000  -0.00000  -0.00000  -0.00000   0.29388
  38        5PY         0.00000  -0.00000  -0.00001  -0.00001   0.42500
  39        5PZ         0.05212  -0.05880  -0.21716  -0.13538  -0.00000
  40        6D 0       -0.00000  -0.00000  -0.00000   0.00000  -0.00383
  41        6D+1        0.00190  -0.01227  -0.00018  -0.01497  -0.00000
  42        6D-1        0.00093  -0.01925   0.01354  -0.01988  -0.00000
  43        6D+2        0.00000   0.00000  -0.00000   0.00000  -0.00223
  44        6D-2       -0.00000  -0.00000  -0.00000  -0.00000   0.00417
  45 3   C  1S          0.00000   0.00000  -0.00000   0.00000  -0.00437
  46        2S          0.00000   0.00000  -0.00000   0.00000  -0.00724
  47        2PX        -0.00000   0.00000  -0.00000   0.00000   0.00825
  48        2PY         0.00000   0.00000   0.00000   0.00000   0.00097
  49        2PZ         0.01032  -0.07626   0.08641  -0.06812   0.00000
  50        3S         -0.00000  -0.00000  -0.00000  -0.00000   0.02092
  51        3PX         0.00000   0.00000  -0.00000  -0.00000   0.01424
  52        3PY         0.00000   0.00000   0.00000   0.00000   0.00244
  53        3PZ         0.01843  -0.11975   0.13707  -0.10680   0.00000
  54        4S         -0.00000  -0.00000   0.00000   0.00000   0.07778
  55        4PX         0.00000   0.00000  -0.00000  -0.00000   0.01650
  56        4PY         0.00000   0.00000  -0.00000  -0.00000   0.02173
  57        4PZ         0.01190  -0.21132   0.23331  -0.18991   0.00000
  58        5S         -0.00000   0.00000   0.00001   0.00001   0.25172
  59        5PX         0.00000   0.00000   0.00000   0.00000  -0.02199
  60        5PY         0.00000  -0.00000  -0.00001  -0.00001   0.45094
  61        5PZ         0.00189  -0.16157   0.18265  -0.19326   0.00000
  62        6D 0       -0.00000  -0.00000   0.00000   0.00000  -0.00410
  63        6D+1        0.00996  -0.01067  -0.00314  -0.01445  -0.00000
  64        6D-1       -0.01507   0.01039   0.01622   0.01587   0.00000
  65        6D+2       -0.00000  -0.00000   0.00000   0.00000  -0.00265
  66        6D-2       -0.00000   0.00000  -0.00000   0.00000  -0.00385
  67 4   C  1S          0.00000   0.00000  -0.00000   0.00000  -0.00676
  68        2S          0.00000   0.00000  -0.00000   0.00000  -0.01138
  69        2PX         0.00000   0.00000  -0.00000  -0.00000   0.00388
  70        2PY         0.00000   0.00000  -0.00000  -0.00000   0.01764
  71        2PZ        -0.07939   0.08810   0.02006   0.10903   0.00000
  72        3S         -0.00000  -0.00000   0.00000  -0.00000   0.03410
  73        3PX         0.00000   0.00000   0.00000   0.00000   0.00415
  74        3PY         0.00000   0.00000   0.00000  -0.00000   0.02400
  75        3PZ        -0.12873   0.13503   0.03261   0.17327   0.00000
  76        4S          0.00000   0.00000  -0.00000  -0.00000   0.20608
  77        4PX         0.00000   0.00000   0.00000   0.00000  -0.04830
  78        4PY        -0.00000  -0.00000   0.00000   0.00000   0.03572
  79        4PZ        -0.14935   0.26745   0.06282   0.30432   0.00000
  80        5S         -0.00000   0.00000  -0.00001  -0.00000   1.70972
  81        5PX         0.00000  -0.00000   0.00001   0.00000  -0.91402
  82        5PY        -0.00000  -0.00000   0.00000   0.00000   0.67427
  83        5PZ        -0.03639   0.25120   0.10771   0.34534   0.00000
  84        6D 0       -0.00000  -0.00000   0.00000   0.00000  -0.00575
  85        6D+1        0.00126  -0.01069   0.02628  -0.00407   0.00000
  86        6D-1        0.00367   0.00721   0.00081   0.00954   0.00000
  87        6D+2       -0.00000  -0.00000   0.00000  -0.00000   0.00121
  88        6D-2        0.00000   0.00000  -0.00000   0.00000   0.00225
  89 5   C  1S         -0.00000  -0.00000  -0.00000   0.00000  -0.00660
  90        2S         -0.00000  -0.00000  -0.00000   0.00000  -0.01111
  91        2PX         0.00000   0.00000   0.00000   0.00000  -0.00390
  92        2PY        -0.00000  -0.00000  -0.00000  -0.00000   0.01731
  93        2PZ        -0.07813   0.08847  -0.02470  -0.10843  -0.00000
  94        3S          0.00000   0.00000   0.00000  -0.00000   0.03323
  95        3PX         0.00000   0.00000  -0.00000  -0.00000  -0.00418
  96        3PY        -0.00000  -0.00000   0.00000  -0.00000   0.02350
  97        3PZ        -0.12665   0.13552  -0.03989  -0.17232  -0.00000
  98        4S         -0.00000  -0.00000  -0.00000  -0.00000   0.20514
  99        4PX         0.00000   0.00000  -0.00000  -0.00000   0.04810
 100        4PY         0.00000   0.00000   0.00000   0.00000   0.03348
 101        4PZ        -0.14655   0.26706  -0.07701  -0.30099  -0.00000
 102        5S          0.00000  -0.00000  -0.00000  -0.00000   1.73058
 103        5PX         0.00000  -0.00000  -0.00000  -0.00000   0.89782
 104        5PY         0.00000   0.00000   0.00000   0.00000   0.65747
 105        5PZ        -0.03527   0.24828  -0.11967  -0.33847  -0.00000
 106        6D 0        0.00000   0.00000   0.00000   0.00000  -0.00569
 107        6D+1       -0.00138   0.01172   0.02546  -0.00408   0.00000
 108        6D-1        0.00368   0.00721  -0.00100  -0.00932  -0.00000
 109        6D+2        0.00000   0.00000   0.00000  -0.00000   0.00109
 110        6D-2        0.00000   0.00000   0.00000  -0.00000  -0.00223
 111 6   C  1S         -0.00000  -0.00000  -0.00000   0.00000  -0.00423
 112        2S         -0.00000  -0.00000   0.00000   0.00000  -0.00700
 113        2PX         0.00000   0.00000   0.00000  -0.00000  -0.00794
 114        2PY        -0.00000  -0.00000   0.00000   0.00000   0.00084
 115        2PZ         0.01084  -0.08061  -0.08202   0.06806  -0.00000
 116        3S          0.00000   0.00000  -0.00000  -0.00000   0.02018
 117        3PX         0.00000   0.00000   0.00000   0.00000  -0.01382
 118        3PY        -0.00000  -0.00000   0.00000   0.00000   0.00222
 119        3PZ         0.01917  -0.12656  -0.13011   0.10667  -0.00000
 120        4S          0.00000   0.00000   0.00000   0.00000   0.07453
 121        4PX         0.00000   0.00000   0.00000   0.00000  -0.01569
 122        4PY        -0.00000  -0.00000  -0.00000  -0.00000   0.02144
 123        4PZ         0.01270  -0.22166  -0.22112   0.18815  -0.00000
 124        5S          0.00000  -0.00000   0.00001   0.00001   0.23120
 125        5PX         0.00000   0.00000  -0.00000  -0.00000   0.02290
 126        5PY        -0.00000   0.00000  -0.00001  -0.00000   0.43545
 127        5PZ         0.00217  -0.16903  -0.17194   0.19043  -0.00000
 128        6D 0        0.00000   0.00000   0.00000   0.00000  -0.00402
 129        6D+1       -0.00978   0.01065  -0.00379  -0.01435  -0.00000
 130        6D-1       -0.01467   0.00981  -0.01659  -0.01556  -0.00000
 131        6D+2        0.00000   0.00000   0.00000   0.00000  -0.00256
 132        6D-2       -0.00000   0.00000   0.00000  -0.00000   0.00373
 133 7   C  1S         -0.00000  -0.00000   0.00000   0.00000  -0.00495
 134        2S         -0.00000  -0.00000   0.00000   0.00000  -0.00820
 135        2PX         0.00000  -0.00000  -0.00000   0.00000  -0.00733
 136        2PY        -0.00000  -0.00000   0.00000  -0.00000  -0.00078
 137        2PZ         0.08368  -0.02257   0.10026   0.04515   0.00000
 138        3S          0.00000   0.00000  -0.00000  -0.00000   0.02371
 139        3PX         0.00000  -0.00000  -0.00000   0.00000  -0.01220
 140        3PY        -0.00000   0.00000   0.00000  -0.00000  -0.00294
 141        3PZ         0.13705  -0.03475   0.15964   0.07110   0.00000
 142        4S         -0.00000  -0.00000  -0.00000   0.00000   0.11372
 143        4PX        -0.00000  -0.00000  -0.00000  -0.00000   0.00012
 144        4PY         0.00000  -0.00000  -0.00000  -0.00000   0.01122
 145        4PZ         0.15957  -0.06586   0.26574   0.12522   0.00000
 146        5S         -0.00000  -0.00000   0.00000   0.00000   0.40892
 147        5PX        -0.00000  -0.00000   0.00000   0.00000  -0.27121
 148        5PY        -0.00000   0.00000  -0.00001  -0.00001   0.41224
 149        5PZ         0.05043  -0.05079   0.21647   0.13277   0.00000
 150        6D 0        0.00000   0.00000  -0.00000   0.00000  -0.00374
 151        6D+1       -0.00185   0.01238  -0.00069  -0.01477  -0.00000
 152        6D-1        0.00101  -0.01999  -0.01264   0.01971   0.00000
 153        6D+2       -0.00000  -0.00000   0.00000   0.00000  -0.00220
 154        6D-2       -0.00000  -0.00000   0.00000   0.00000  -0.00405
 155 8   C  1S         -0.00000  -0.00000  -0.00000   0.00000  -0.00620
 156        2S         -0.00000  -0.00000  -0.00000   0.00000  -0.01050
 157        2PX        -0.00000   0.00000   0.00000   0.00000  -0.00349
 158        2PY        -0.00000  -0.00000  -0.00000   0.00000  -0.01536
 159        2PZ        -0.00429   0.09667  -0.00341  -0.10763  -0.00000
 160        3S          0.00000   0.00000  -0.00000  -0.00000   0.03414
 161        3PX        -0.00000   0.00000  -0.00000  -0.00000  -0.00337
 162        3PY        -0.00000  -0.00000   0.00000   0.00000  -0.02258
 163        3PZ        -0.00653   0.14855  -0.00477  -0.17035  -0.00000
 164        4S          0.00000   0.00000   0.00000   0.00000   0.02982
 165        4PX        -0.00000  -0.00000   0.00000   0.00000  -0.02610
 166        4PY         0.00000   0.00000   0.00000   0.00000  -0.08021
 167        4PZ        -0.00587   0.27991  -0.00284  -0.30353  -0.00000
 168        5S          0.00000  -0.00000   0.00001   0.00001  -1.73728
 169        5PX         0.00000  -0.00000   0.00002   0.00001  -0.96954
 170        5PY        -0.00000   0.00000  -0.00000  -0.00000  -0.46035
 171        5PZ         0.01062   0.20862   0.03048  -0.35069  -0.00000
 172        6D 0        0.00000   0.00000   0.00000  -0.00000  -0.00561
 173        6D+1       -0.01740  -0.00594  -0.02567   0.00258  -0.00000
 174        6D-1       -0.00187  -0.00860   0.00106   0.00880  -0.00000
 175        6D+2        0.00000   0.00000  -0.00000  -0.00000   0.00154
 176        6D-2       -0.00000   0.00000   0.00000   0.00000   0.00127
 177 9   C  1S         -0.00000   0.00000   0.00000   0.00000  -0.01414
 178        2S         -0.00000   0.00000   0.00000   0.00000  -0.02377
 179        2PX        -0.00000   0.00000  -0.00000  -0.00000  -0.00012
 180        2PY        -0.00000   0.00000   0.00000   0.00000  -0.03086
 181        2PZ         0.02878  -0.01364   0.00042  -0.00012   0.00000
 182        3S          0.00000   0.00000  -0.00000   0.00000   0.06209
 183        3PX        -0.00000   0.00000  -0.00000   0.00000  -0.00020
 184        3PY         0.00000   0.00000   0.00000   0.00000  -0.04676
 185        3PZ         0.03836  -0.02078   0.00059  -0.00018   0.00000
 186        4S          0.00000  -0.00000  -0.00001  -0.00000   0.43756
 187        4PX         0.00000  -0.00000   0.00000   0.00000  -0.00122
 188        4PY        -0.00000   0.00000   0.00000   0.00000  -0.02402
 189        4PZ         0.07648  -0.11215   0.00382   0.00003   0.00000
 190        5S          0.00000  -0.00000  -0.00002  -0.00002   0.81585
 191        5PX         0.00000  -0.00000  -0.00000  -0.00000   0.02420
 192        5PY         0.00000  -0.00000  -0.00000  -0.00000  -0.47168
 193        5PZ         0.13151  -0.44884   0.01328  -0.00128   0.00000
 194        6D 0        0.00000   0.00000   0.00000  -0.00000  -0.00879
 195        6D+1       -0.00020   0.00051   0.02507  -0.01259   0.00000
 196        6D-1       -0.01960  -0.02911   0.00044  -0.00015  -0.00000
 197        6D+2       -0.00000  -0.00000   0.00000   0.00000   0.00242
 198        6D-2       -0.00000  -0.00000   0.00000  -0.00000   0.00003
 199 10  C  1S         -0.00000  -0.00000   0.00000   0.00000  -0.01077
 200        2S         -0.00000  -0.00000   0.00000   0.00000  -0.01835
 201        2PX         0.00000   0.00000  -0.00000   0.00000  -0.00009
 202        2PY        -0.00000   0.00000   0.00000  -0.00000   0.02389
 203        2PZ         0.17326   0.01304   0.00181   0.00095   0.00000
 204        3S          0.00000  -0.00000  -0.00000  -0.00000   0.06126
 205        3PX         0.00000   0.00000  -0.00000   0.00000  -0.00015
 206        3PY         0.00000  -0.00000  -0.00000  -0.00000   0.03348
 207        3PZ         0.28191   0.01834   0.00299   0.00150   0.00000
 208        4S         -0.00000   0.00000   0.00000   0.00000   0.06864
 209        4PX         0.00000   0.00000  -0.00000  -0.00000   0.00048
 210        4PY         0.00000  -0.00000  -0.00000  -0.00000   0.20871
 211        4PZ         0.35060   0.06424   0.00483   0.00326   0.00000
 212        5S          0.00000  -0.00000  -0.00001  -0.00001   1.55476
 213        5PX        -0.00000  -0.00000   0.00000   0.00000   0.02200
 214        5PY         0.00000  -0.00000  -0.00000  -0.00000   1.96764
 215        5PZ         0.09902   0.32867  -0.00077   0.00659   0.00000
 216        6D 0        0.00000  -0.00000  -0.00000  -0.00000  -0.00749
 217        6D+1        0.00007  -0.00054  -0.03048  -0.00783  -0.00000
 218        6D-1        0.00089   0.01309  -0.00010   0.00021   0.00000
 219        6D+2       -0.00000   0.00000   0.00000  -0.00000   0.00107
 220        6D-2       -0.00000  -0.00000   0.00000   0.00000  -0.00002
 221 11  C  1S          0.00000   0.00000   0.00000   0.00000  -0.00612
 222        2S          0.00000   0.00000   0.00000   0.00000  -0.01052
 223        2PX         0.00000   0.00000  -0.00000  -0.00000   0.00230
 224        2PY         0.00000   0.00000  -0.00000  -0.00000   0.00969
 225        2PZ        -0.08830  -0.07881   0.09926  -0.07198   0.00000
 226        3S         -0.00000  -0.00000  -0.00000  -0.00000   0.04190
 227        3PX         0.00000   0.00000  -0.00000  -0.00000   0.00319
 228        3PY         0.00000   0.00000  -0.00000  -0.00000   0.01404
 229        3PZ        -0.14226  -0.12220   0.15554  -0.11740   0.00000
 230        4S         -0.00000  -0.00000   0.00000  -0.00000  -0.00963
 231        4PX         0.00000   0.00000  -0.00000  -0.00000   0.11839
 232        4PY         0.00000   0.00000  -0.00000   0.00000   0.00238
 233        4PZ        -0.18551  -0.20595   0.29851  -0.19657   0.00000
 234        5S         -0.00000  -0.00000   0.00002   0.00002  -3.91861
 235        5PX        -0.00000   0.00000  -0.00001  -0.00001   0.96731
 236        5PY        -0.00000   0.00001   0.00003   0.00002  -2.32297
 237        5PZ        -0.11220   0.06385   0.37353  -0.22929   0.00000
 238        6D 0       -0.00000  -0.00000   0.00000  -0.00000  -0.00787
 239        6D+1       -0.00424   0.01739  -0.00094   0.01476   0.00000
 240        6D-1       -0.00453  -0.01386  -0.01783  -0.01674  -0.00000
 241        6D+2       -0.00000  -0.00000   0.00000  -0.00000  -0.00553
 242        6D-2       -0.00000   0.00000   0.00000   0.00000   0.00148
 243 12  C  1S         -0.00000  -0.00000   0.00000   0.00000  -0.00673
 244        2S         -0.00000  -0.00000   0.00000   0.00000  -0.01147
 245        2PX        -0.00000  -0.00000   0.00000   0.00000   0.00099
 246        2PY        -0.00000  -0.00000   0.00000  -0.00000  -0.01042
 247        2PZ        -0.01719  -0.01485  -0.10923  -0.05067  -0.00000
 248        3S          0.00000   0.00000  -0.00000   0.00000   0.03970
 249        3PX        -0.00000  -0.00000  -0.00000  -0.00000   0.00404
 250        3PY        -0.00000  -0.00000   0.00000   0.00000  -0.01440
 251        3PZ        -0.02792  -0.01708  -0.17304  -0.08533  -0.00000
 252        4S         -0.00000   0.00000  -0.00000  -0.00000   0.14469
 253        4PX        -0.00000   0.00000   0.00000   0.00000  -0.14033
 254        4PY        -0.00000  -0.00000  -0.00000   0.00000  -0.08603
 255        4PZ        -0.03533  -0.07862  -0.32770  -0.13137  -0.00000
 256        5S          0.00000  -0.00000  -0.00004  -0.00003   5.18761
 257        5PX         0.00000  -0.00000   0.00000  -0.00000  -0.52746
 258        5PY         0.00000   0.00000   0.00002   0.00001  -3.85470
 259        5PZ         0.00255  -0.30601  -0.40940  -0.15219  -0.00000
 260        6D 0        0.00000   0.00000   0.00000   0.00000  -0.00852
 261        6D+1       -0.02665   0.01394   0.00331   0.01434   0.00000
 262        6D-1        0.01650   0.02263  -0.01500   0.01988  -0.00000
 263        6D+2       -0.00000   0.00000  -0.00000   0.00000  -0.00472
 264        6D-2       -0.00000  -0.00000   0.00000   0.00000  -0.00234
 265 13  C  1S         -0.00000  -0.00000   0.00000   0.00000  -0.00604
 266        2S         -0.00000  -0.00000   0.00000   0.00000  -0.01039
 267        2PX         0.00000   0.00000   0.00000   0.00000  -0.00239
 268        2PY        -0.00000  -0.00000  -0.00000  -0.00000   0.00963
 269        2PZ        -0.08693  -0.08370  -0.09622   0.07132  -0.00000
 270        3S          0.00000   0.00000  -0.00000  -0.00000   0.04144
 271        3PX         0.00000   0.00000   0.00000   0.00000  -0.00337
 272        3PY        -0.00000  -0.00000   0.00000  -0.00000   0.01388
 273        3PZ        -0.14006  -0.12981  -0.15077   0.11633  -0.00000
 274        4S          0.00000   0.00000   0.00000   0.00000  -0.01244
 275        4PX         0.00000   0.00000   0.00000   0.00000  -0.11994
 276        4PY        -0.00000  -0.00000  -0.00000   0.00000   0.00392
 277        4PZ        -0.18243  -0.21930  -0.29118   0.19334  -0.00000
 278        5S          0.00000   0.00000   0.00002   0.00002  -3.86758
 279        5PX        -0.00000   0.00000   0.00001   0.00001  -0.92267
 280        5PY        -0.00000  -0.00000   0.00003   0.00002  -2.30867
 281        5PZ        -0.11035   0.04825  -0.37848   0.22933  -0.00000
 282        6D 0        0.00000   0.00000   0.00000  -0.00000  -0.00783
 283        6D+1        0.00422  -0.01757  -0.00019   0.01451   0.00000
 284        6D-1       -0.00465  -0.01322   0.01812   0.01632   0.00000
 285        6D+2        0.00000   0.00000   0.00000  -0.00000  -0.00552
 286        6D-2       -0.00000   0.00000  -0.00000  -0.00000  -0.00149
 287 14  C  1S          0.00000   0.00000   0.00000   0.00000  -0.00666
 288        2S          0.00000   0.00000   0.00000   0.00000  -0.01135
 289        2PX        -0.00000  -0.00000  -0.00000  -0.00000  -0.00088
 290        2PY         0.00000   0.00000   0.00000   0.00000  -0.01042
 291        2PZ        -0.01789  -0.01094   0.10804   0.04947   0.00000
 292        3S         -0.00000  -0.00000  -0.00000   0.00000   0.03928
 293        3PX        -0.00000  -0.00000   0.00000   0.00000  -0.00391
 294        3PY         0.00000   0.00000   0.00000   0.00000  -0.01440
 295        3PZ        -0.02893  -0.01096   0.17084   0.08348   0.00000
 296        4S          0.00000  -0.00000  -0.00000  -0.00000   0.14139
 297        4PX        -0.00000  -0.00000  -0.00000  -0.00000   0.14219
 298        4PY         0.00000   0.00000  -0.00000   0.00000  -0.08519
 299        4PZ        -0.03663  -0.06658   0.32592   0.12718   0.00000
 300        5S         -0.00000   0.00000  -0.00004  -0.00003   5.20871
 301        5PX         0.00000  -0.00000   0.00000   0.00000   0.55086
 302        5PY        -0.00000  -0.00000   0.00002   0.00001  -3.79698
 303        5PZ         0.00130  -0.29013   0.41644   0.14153   0.00000
 304        6D 0       -0.00000  -0.00000   0.00000   0.00000  -0.00845
 305        6D+1        0.02646  -0.01398   0.00462   0.01446   0.00000
 306        6D-1        0.01631   0.02347   0.01437  -0.01956   0.00000
 307        6D+2        0.00000  -0.00000  -0.00000   0.00000  -0.00466
 308        6D-2       -0.00000  -0.00000  -0.00000  -0.00000   0.00243
 309 15  H  1S          0.00000  -0.00000  -0.00000  -0.00000   0.00717
 310        2S         -0.00000  -0.00000  -0.00000  -0.00000   0.00398
 311        3S         -0.00000   0.00000   0.00000   0.00000  -0.07474
 312        4S          0.00000  -0.00000  -0.00000  -0.00000  -0.51613
 313        5PX        -0.00000  -0.00000   0.00000   0.00000   0.00053
 314        5PY        -0.00000  -0.00000   0.00000  -0.00000   0.00466
 315        5PZ         0.00020   0.01131   0.00026   0.01242   0.00000
 316 16  H  1S          0.00000   0.00000  -0.00000   0.00000  -0.00098
 317        2S          0.00000   0.00000  -0.00000  -0.00000  -0.00713
 318        3S          0.00000   0.00000  -0.00000  -0.00000  -0.03615
 319        4S          0.00000   0.00000  -0.00000  -0.00000  -0.36771
 320        5PX         0.00000   0.00000   0.00000   0.00000  -0.00215
 321        5PY         0.00000   0.00000   0.00000  -0.00000   0.00183
 322        5PZ         0.00745  -0.00228  -0.01058  -0.00478  -0.00000
 323 17  H  1S         -0.00000   0.00000  -0.00000   0.00000  -0.00070
 324        2S         -0.00000   0.00000   0.00000   0.00000  -0.01079
 325        3S         -0.00000  -0.00000  -0.00000  -0.00000  -0.04040
 326        4S         -0.00000  -0.00000   0.00000   0.00000  -0.34833
 327        5PX        -0.00000   0.00000  -0.00000  -0.00000  -0.00171
 328        5PY         0.00000   0.00000  -0.00000   0.00000  -0.00180
 329        5PZ         0.00111  -0.00733   0.00910  -0.00705   0.00000
 330 18  H  1S          0.00000   0.00000  -0.00000  -0.00000   0.00747
 331        2S          0.00000   0.00000  -0.00000  -0.00000   0.00155
 332        3S          0.00000   0.00000  -0.00000  -0.00000  -0.05306
 333        4S          0.00000   0.00000  -0.00000  -0.00000  -0.71983
 334        5PX         0.00000   0.00000  -0.00000  -0.00000   0.00165
 335        5PY         0.00000   0.00000   0.00000   0.00000  -0.00508
 336        5PZ        -0.00580   0.00940   0.00216   0.01262   0.00000
 337 19  H  1S          0.00000  -0.00000  -0.00000  -0.00000   0.00917
 338        2S          0.00000  -0.00000   0.00000   0.00000  -0.00828
 339        3S         -0.00000   0.00000   0.00000   0.00000  -0.21086
 340        4S         -0.00000   0.00000   0.00000   0.00000  -1.76252
 341        5PX         0.00000   0.00000   0.00000   0.00000  -0.00004
 342        5PY         0.00000   0.00000  -0.00000   0.00000  -0.00686
 343        5PZ         0.01445   0.00488   0.00014   0.00016   0.00000
 344 20  H  1S         -0.00000  -0.00000  -0.00000  -0.00000   0.00747
 345        2S         -0.00000  -0.00000  -0.00000  -0.00000   0.00186
 346        3S         -0.00000  -0.00000  -0.00000  -0.00000  -0.05058
 347        4S         -0.00000  -0.00000  -0.00000  -0.00000  -0.70146
 348        5PX         0.00000   0.00000   0.00000   0.00000  -0.00166
 349        5PY        -0.00000  -0.00000   0.00000   0.00000  -0.00496
 350        5PZ        -0.00570   0.00942  -0.00261  -0.01249  -0.00000
 351 21  H  1S          0.00000  -0.00000  -0.00000   0.00000  -0.00069
 352        2S          0.00000  -0.00000   0.00000   0.00000  -0.01057
 353        3S          0.00000   0.00000  -0.00000  -0.00000  -0.03860
 354        4S          0.00000   0.00000   0.00000   0.00000  -0.33426
 355        5PX        -0.00000   0.00000   0.00000   0.00000   0.00160
 356        5PY        -0.00000  -0.00000  -0.00000   0.00000  -0.00174
 357        5PZ         0.00114  -0.00776  -0.00865   0.00703  -0.00000
 358 22  H  1S         -0.00000  -0.00000   0.00000   0.00000  -0.00099
 359        2S         -0.00000  -0.00000  -0.00000  -0.00000  -0.00693
 360        3S         -0.00000  -0.00000  -0.00000  -0.00000  -0.03442
 361        4S         -0.00000  -0.00000  -0.00000  -0.00000  -0.35332
 362        5PX         0.00000   0.00000  -0.00000  -0.00000   0.00206
 363        5PY        -0.00000  -0.00000   0.00000  -0.00000   0.00176
 364        5PZ         0.00724  -0.00190   0.01059   0.00469   0.00000
 365 23  H  1S          0.00000   0.00000  -0.00000  -0.00000   0.00711
 366        2S          0.00000   0.00000  -0.00000  -0.00000   0.00411
 367        3S          0.00000  -0.00000   0.00000   0.00000  -0.07429
 368        4S         -0.00000   0.00000  -0.00000  -0.00000  -0.49889
 369        5PX        -0.00000  -0.00000  -0.00000  -0.00000  -0.00054
 370        5PY         0.00000   0.00000   0.00000  -0.00000   0.00458
 371        5PZ         0.00020   0.01144  -0.00066  -0.01225  -0.00000
 372 24  H  1S          0.04210   0.03874  -0.00072   0.00014   0.00125
 373        2S          0.07345   0.09694  -0.00218   0.00021  -0.02167
[...]
 205        3PX         0.55229
 206        3PY         0.55023
 207        3PZ         0.30896
 208        4S          0.41186
 209        4PX         0.15651
 210        4PY         0.34615
 211        4PZ         0.25602
 212        5S          0.03495
 213        5PX        -0.38701
 214        5PY         0.19925
 215        5PZ         0.04216
 216        6D 0        0.00298
 217        6D+1        0.01278
 218        6D-1        0.00356
 219        6D+2        0.02115
 220        6D-2        0.01516
 221 11  C  1S          1.10532
 222        2S          0.88556
 223        2PX         0.23255
 224        2PY         0.23344
 225        2PZ         0.15204
 226        3S          0.76826
 227        3PX         0.53376
 228        3PY         0.53140
 229        3PZ         0.40055
 230        4S          0.40589
 231        4PX         0.26762
 232        4PY         0.22001
 233        4PZ         0.32422
 234        5S          0.14138
 235        5PX        -0.27989
 236        5PY         0.62868
 237        5PZ         0.01367
 238        6D 0        0.00391
 239        6D+1        0.00988
 240        6D-1        0.01051
 241        6D+2        0.02150
 242        6D-2        0.02067
 243 12  C  1S          1.10520
 244        2S          0.88565
 245        2PX         0.23104
 246        2PY         0.23274
 247        2PZ         0.17407
 248        3S          0.75263
 249        3PX         0.52668
 250        3PY         0.53178
 251        3PZ         0.45954
 252        4S          0.37482
 253        4PX         0.15003
 254        4PY         0.19408
 255        4PZ         0.39642
 256        5S         -0.55110
 257        5PX        -0.46756
 258        5PY         0.30774
 259        5PZ        -0.06067
 260        6D 0        0.00446
 261        6D+1        0.00732
 262        6D-1        0.00888
 263        6D+2        0.02270
 264        6D-2        0.02248
 265 13  C  1S          1.10532
 266        2S          0.88557
 267        2PX         0.23179
 268        2PY         0.23376
 269        2PZ         0.15237
 270        3S          0.76788
 271        3PX         0.53319
 272        3PY         0.53137
 273        3PZ         0.40121
 274        4S          0.40728
 275        4PX         0.26840
 276        4PY         0.21919
 277        4PZ         0.32555
 278        5S          0.13831
 279        5PX        -0.28220
 280        5PY         0.62960
 281        5PZ         0.01404
 282        6D 0        0.00391
 283        6D+1        0.00976
 284        6D-1        0.01060
 285        6D+2        0.02134
 286        6D-2        0.02070
 287 14  C  1S          1.10520
 288        2S          0.88564
 289        2PX         0.23073
 290        2PY         0.23323
 291        2PZ         0.17417
 292        3S          0.75261
 293        3PX         0.52632
 294        3PY         0.53213
 295        3PZ         0.45980
 296        4S          0.37355
 297        4PX         0.14891
 298        4PY         0.19376
 299        4PZ         0.39631
 300        5S         -0.54515
 301        5PX        -0.46805
 302        5PY         0.30704
 303        5PZ        -0.06085
 304        6D 0        0.00446
 305        6D+1        0.00734
 306        6D-1        0.00899
 307        6D+2        0.02271
 308        6D-2        0.02253
 309 15  H  1S          0.27346
 310        2S          0.46372
 311        3S          0.03281
 312        4S         -0.03135
 313        5PX         0.00335
 314        5PY         0.01486
 315        5PZ         0.00464
 316 16  H  1S          0.27345
 317        2S          0.46227
 318        3S          0.01239
 319        4S         -0.02843
 320        5PX         0.01255
 321        5PY         0.00647
 322        5PZ         0.00380
 323 17  H  1S          0.27329
 324        2S          0.46293
 325        3S          0.01951
 326        4S         -0.02865
 327        5PX         0.01203
 328        5PY         0.00647
 329        5PZ         0.00448
 330 18  H  1S          0.27361
 331        2S          0.46491
 332        3S          0.03478
 333        4S         -0.01948
 334        5PX         0.00345
 335        5PY         0.01513
 336        5PZ         0.00440
 337 19  H  1S          0.27267
 338        2S          0.45380
 339        3S          0.01698
 340        4S          0.04241
 341        5PX         0.00338
 342        5PY         0.01638
 343        5PZ         0.00289
 344 20  H  1S          0.27359
 345        2S          0.46493
 346        3S          0.03524
 347        4S         -0.01945
 348        5PX         0.00344
 349        5PY         0.01510
 350        5PZ         0.00443
 351 21  H  1S          0.27328
 352        2S          0.46297
 353        3S          0.01981
 354        4S         -0.02848
 355        5PX         0.01197
 356        5PY         0.00651
 357        5PZ         0.00449
 358 22  H  1S          0.27350
 359        2S          0.46242
 360        3S          0.01285
 361        4S         -0.02826
 362        5PX         0.01255
 363        5PY         0.00646
 364        5PZ         0.00383
 365 23  H  1S          0.27350
 366        2S          0.46377
 367        3S          0.03317
 368        4S         -0.03146
 369        5PX         0.00335
 370        5PY         0.01483
 371        5PZ         0.00465
 372 24  H  1S          0.26361
 373        2S          0.42804
 374        3S          0.01129
 375        4S          0.02738
 376        5PX         0.00341
 377        5PY         0.00770
 378        5PZ         0.00922
 379 25  H  1S          0.26361
 380        2S          0.42804
 381        3S          0.01129
 382        4S          0.02738
 383        5PX         0.00341
 384        5PY         0.00770
 385        5PZ         0.00922
          Condensed to atoms (all electrons):
               1          2          3          4          5          6
     1  C    8.528702   0.309505  -0.534357   1.956142  -0.033385  -0.092863
     2  C    0.309505   7.127940   0.350839  -1.080812  -0.016721  -0.013869
     3  C   -0.534357   0.350839   6.571195   0.773445  -0.120845   0.016368
     4  C    1.956142  -1.080812   0.773445  11.009049  -0.366594  -0.123366
     5  C   -0.033385  -0.016721  -0.120845  -0.366594  10.899932   0.782678
     6  C   -0.092863  -0.013869   0.016368  -0.123366   0.782678   6.568162
     7  C   -0.016585   0.000960  -0.013871  -0.012546  -1.086915   0.331845
     8  C    0.399044  -0.014655  -0.094428  -0.037941   1.985285  -0.517258
     9  C   -1.116250  -0.809784   0.292946  -0.173615  -0.212516   0.294308
    10  C   -1.260181   0.246895  -0.344127  -2.559887  -2.529284  -0.359171
    11  C    0.309195  -0.882070   0.984536  -0.301661  -1.459987  -0.162595
    12  C   -2.086843   1.341816  -1.392593  -1.615055  -0.318590  -0.207416
    13  C    0.220686  -0.240409  -0.176228  -1.479827  -0.275964   1.013516
    14  C   -1.076577  -0.194792  -0.189877  -0.346390  -1.602335  -1.406360
    15  H    0.367786  -0.106665  -0.000964   0.027488   0.005670   0.001081
    16  H   -0.018850   0.378611  -0.017944   0.013489  -0.001517  -0.000323
    17  H   -0.024415  -0.017681   0.374819  -0.066814   0.000300   0.000393
    18  H    0.049508   0.003266  -0.084449   0.456846   0.005964  -0.005045
    19  H   -0.045559  -0.007603   0.050439  -0.068855  -0.066253   0.050718
    20  H    0.006997   0.002027  -0.005054   0.005982   0.454886  -0.084365
    21  H   -0.001295  -0.000390   0.000393   0.000321  -0.066628   0.373765
    22  H    0.000717   0.000357  -0.000320  -0.001497   0.012985  -0.017371
    23  H    0.005616  -0.002600   0.001068   0.005537   0.027630  -0.000460
    24  H    0.033360   0.014475  -0.001568  -0.011930  -0.011982  -0.001586
    25  H    0.033360   0.014475  -0.001568  -0.011930  -0.011981  -0.001586
               7          8          9         10         11         12
     1  C   -0.016585   0.399044  -1.116250  -1.260181   0.309195  -2.086843
     2  C    0.000960  -0.014655  -0.809784   0.246895  -0.882070   1.341816
     3  C   -0.013871  -0.094428   0.292946  -0.344127   0.984536  -1.392593
     4  C   -0.012546  -0.037941  -0.173615  -2.559887  -0.301661  -1.615055
     5  C   -1.086915   1.985285  -0.212516  -2.529284  -1.459987  -0.318590
     6  C    0.331845  -0.517258   0.294308  -0.359171  -0.162595  -0.207416
     7  C    7.124785   0.276971  -0.799344   0.260847  -0.249880  -0.178060
     8  C    0.276971   8.569805  -1.119972  -1.273279   0.221751  -1.060686
     9  C   -0.799344  -1.119972   9.532389   0.244470   1.563669  -1.937144
    10  C    0.260847  -1.273279   0.244470   9.073843  -0.395013   2.382197
    11  C   -0.249880   0.221751   1.563669  -0.395013  14.364380  -3.734255
    12  C   -0.178060  -1.060686  -1.937144   2.382197  -3.734255  15.975818
    13  C   -0.907383   0.307411   1.559733  -0.423213   1.074502  -4.733585
    14  C    1.394842  -2.136188  -1.894118   2.391748  -4.754199   3.089081
    15  H   -0.002648   0.005466   0.090775  -0.009595  -0.030677  -0.024039
    16  H    0.000363   0.000771   0.003522  -0.009156   0.026272  -0.032603
    17  H   -0.000387  -0.001302  -0.005539   0.020005  -0.026355   0.090379
    18  H    0.002033   0.007026  -0.024110   0.012661  -0.007858  -0.052762
    19  H   -0.007718  -0.045936   0.073804   0.420319   0.075870  -0.067450
    20  H    0.003288   0.049884  -0.024471   0.013570  -0.011585  -0.012955
    21  H   -0.016330  -0.025594  -0.005699   0.020187  -0.006220   0.005118
    22  H    0.378243  -0.018719   0.003536  -0.009029   0.002954  -0.008834
    23  H   -0.106927   0.367947   0.091011  -0.009836   0.002252   0.006427
    24  H    0.014223   0.032591   0.355828   0.005175   0.013944  -0.059514
    25  H    0.014223   0.032591   0.355828   0.005175   0.013944  -0.059513
              13         14         15         16         17         18
     1  C    0.220686  -1.076577   0.367786  -0.018850  -0.024415   0.049508
     2  C   -0.240409  -0.194792  -0.106665   0.378611  -0.017681   0.003266
     3  C   -0.176228  -0.189877  -0.000964  -0.017944   0.374819  -0.084449
     4  C   -1.479827  -0.346390   0.027488   0.013489  -0.066814   0.456846
     5  C   -0.275964  -1.602335   0.005670  -0.001517   0.000300   0.005964
     6  C    1.013516  -1.406360   0.001081  -0.000323   0.000393  -0.005045
     7  C   -0.907383   1.394842  -0.002648   0.000363  -0.000387   0.002033
     8  C    0.307411  -2.136188   0.005466   0.000771  -0.001302   0.007026
     9  C    1.559733  -1.894118   0.090775   0.003522  -0.005539  -0.024110
    10  C   -0.423213   2.391748  -0.009595  -0.009156   0.020005   0.012661
    11  C    1.074502  -4.754199  -0.030677   0.026272  -0.026355  -0.007858
    12  C   -4.733585   3.089081  -0.024039  -0.032603   0.090379  -0.052762
    13  C   14.326114  -3.684808   0.001335   0.003070  -0.006218  -0.011616
    14  C   -3.684808  15.935328   0.006724  -0.009080   0.005134  -0.014570
    15  H    0.001335   0.006724   0.438258  -0.008978   0.001473   0.000187
    16  H    0.003070  -0.009080  -0.008978   0.418856  -0.006551   0.001915
    17  H   -0.006218   0.005134   0.001473  -0.006551   0.422016  -0.010204
    18  H   -0.011616  -0.014570   0.000187   0.001915  -0.010204   0.452760
    19  H    0.076567  -0.062713   0.000306  -0.000531   0.001420  -0.006136
    20  H   -0.007327  -0.054142  -0.000110   0.000015  -0.000143   0.001253
    21  H   -0.027215   0.092068   0.000014  -0.000007   0.000010  -0.000140
    22  H    0.026002  -0.032341  -0.000125   0.000007  -0.000007   0.000015
    23  H   -0.030326  -0.026154   0.000566  -0.000125   0.000013  -0.000108
    24  H    0.012057  -0.059454  -0.000919   0.000631  -0.000139   0.000176
    25  H    0.012056  -0.059454  -0.000919   0.000631  -0.000139   0.000176
              19         20         21         22         23         24
     1  C   -0.045559   0.006997  -0.001295   0.000717   0.005616   0.033360
     2  C   -0.007603   0.002027  -0.000390   0.000357  -0.002600   0.014475
     3  C    0.050439  -0.005054   0.000393  -0.000320   0.001068  -0.001568
     4  C   -0.068855   0.005982   0.000321  -0.001497   0.005537  -0.011930
     5  C   -0.066253   0.454886  -0.066628   0.012985   0.027630  -0.011982
     6  C    0.050718  -0.084365   0.373765  -0.017371  -0.000460  -0.001586
     7  C   -0.007718   0.003288  -0.016330   0.378243  -0.106927   0.014223
     8  C   -0.045936   0.049884  -0.025594  -0.018719   0.367947   0.032591
     9  C    0.073804  -0.024471  -0.005699   0.003536   0.091011   0.355828
    10  C    0.420319   0.013570   0.020187  -0.009029  -0.009836   0.005175
    11  C    0.075870  -0.011585  -0.006220   0.002954   0.002252   0.013944
    12  C   -0.067450  -0.012955   0.005118  -0.008834   0.006427  -0.059514
    13  C    0.076567  -0.007327  -0.027215   0.026002  -0.030326   0.012057
    14  C   -0.062713  -0.054142   0.092068  -0.032341  -0.026154  -0.059454
    15  H    0.000306  -0.000110   0.000014  -0.000125   0.000566  -0.000919
    16  H   -0.000531   0.000015  -0.000007   0.000007  -0.000125   0.000631
    17  H    0.001420  -0.000143   0.000010  -0.000007   0.000013  -0.000139
    18  H   -0.006136   0.001253  -0.000140   0.000015  -0.000108   0.000176
    19  H    0.441730  -0.006199   0.001383  -0.000528   0.000294   0.000567
    20  H   -0.006199   0.453476  -0.010186   0.001905   0.000168   0.000183
    21  H    0.001383  -0.010186   0.422319  -0.006502   0.001457  -0.000141
    22  H   -0.000528   0.001905  -0.006502   0.419656  -0.009020   0.000633
    23  H    0.000294   0.000168   0.001457  -0.009020   0.439178  -0.000903
    24  H    0.000567   0.000183  -0.000141   0.000633  -0.000903   0.493626
    25  H    0.000567   0.000183  -0.000141   0.000633  -0.000903  -0.078691
              25
     1  C    0.033360
     2  C    0.014475
     3  C   -0.001568
     4  C   -0.011930
     5  C   -0.011981
     6  C   -0.001586
     7  C    0.014223
     8  C    0.032591
     9  C    0.355828
    10  C    0.005175
    11  C    0.013944
    12  C   -0.059513
    13  C    0.012056
    14  C   -0.059454
    15  H   -0.000919
    16  H    0.000631
    17  H   -0.000139
    18  H    0.000176
    19  H    0.000567
    20  H    0.000183
    21  H   -0.000141
    22  H    0.000633
    23  H   -0.000903
    24  H   -0.078691
    25  H    0.493626
 Mulliken charges:
               1
     1  C    0.086539
     2  C   -0.403114
     3  C   -0.437857
     4  C    0.010421
     5  C    0.006166
     6  C   -0.439201
     7  C   -0.404030
     8  C    0.089418
     9  C   -0.339256
    10  C    0.084681
    11  C   -0.630914
    12  C    0.691060
    13  C   -0.628931
    14  C    0.688626
    15  H    0.238509
    16  H    0.257510
    17  H    0.249933
    18  H    0.223212
    19  H    0.191496
    20  H    0.222721
    21  H    0.249454
    22  H    0.256649
    23  H    0.238198
    24  H    0.249356
    25  H    0.249356
 Sum of Mulliken charges =   1.00000
 Mulliken charges with hydrogens summed into heavy atoms:
               1
     1  C    0.325048
     2  C   -0.145604
     3  C   -0.187924
     4  C    0.233633
     5  C    0.228887
     6  C   -0.189747
     7  C   -0.147381
     8  C    0.327616
     9  C    0.159455
    10  C    0.276177
    11  C   -0.630914
    12  C    0.691060
    13  C   -0.628931
    14  C    0.688626
 Electronic spatial extent (au):  <R**2>=           2868.6349
 Charge=              1.0000 electrons
 Dipole moment (field-independent basis, Debye):
    X=              0.0906    Y=              0.1986    Z=              0.0000  Tot=              0.2183
 Quadrupole moment (field-independent basis, Debye-Ang):
   XX=            -30.8883   YY=            -56.1768   ZZ=            -84.2780
   XY=              0.0075   XZ=              0.0000   YZ=             -0.0000
 Traceless Quadrupole moment (field-independent basis, Debye-Ang):
   XX=             26.2260   YY=              0.9376   ZZ=            -27.1637
   XY=              0.0075   XZ=              0.0000   YZ=             -0.0000
 Octapole moment (field-independent basis, Debye-Ang**2):
  XXX=              1.0085  YYY=              5.3853  ZZZ=              0.0000  XYY=              0.2122
  XXY=             -5.1850  XXZ=             -0.0000  XZZ=              0.1316  YZZ=             -3.1338
  YYZ=              0.0000  XYZ=             -0.0000
 Hexadecapole moment (field-independent basis, Debye-Ang**3):
 XXXX=          -2127.9702 YYYY=           -611.6088 ZZZZ=            -99.7077 XXXY=             -0.2072
 XXXZ=             -0.0000 YYYX=              0.0839 YYYZ=             -0.0000 ZZZX=             -0.0000
 ZZZY=             -0.0000 XXYY=           -509.3178 XXZZ=           -594.4335 YYZZ=           -146.4835
 XXYZ=              0.0000 YYXZ=              0.0000 ZZXY=              0.0422
 N-N= 7.793325021477D+02 E-N=-2.794890242394D+03  KE= 5.373393277017D+02
 Orbital energies and kinetic energies (alpha):
                                 1                 2
  43         O                -0.547867          1.614439
  44         O                -0.523299          1.037886
  45         O                -0.465575          1.117699
  46         O                -0.459918          1.154326
  47         O                -0.444554          1.166502
  48         V                -0.261042          1.266908
  49         V                -0.147082          1.095842
  50         V                -0.141479          1.320535
  51         V                -0.128426          1.282121
  52         V                -0.111671          0.204280
 Total kinetic energy from orbitals= 5.373393277017D+02
 Unable to Open any file for archive entry.
 1\1\GINC-GADI-CPU-CLX-0957\SP\RM062X\6-311++G(d,p)\C14H11(1+)\TS1578\1
 4-Jul-2022\0\\#n M062X/6-311++G(d,p) SP pop=reg formcheck\\SP_-1\\1,1\
 C,0,2.4966332089,1.372779483,0.\C,0,3.7079801067,0.6814295773,0.\C,0,3
 .6914331145,-0.7088026549,0.\C,0,2.4711155806,-1.4034311982,0.\C,0,-2.
 4667044194,-1.4017282848,0.\C,0,-3.6935463685,-0.7053865696,0.\C,0,-3.
 7119193763,0.6830093886,0.\C,0,-2.5002954986,1.372820517,0.\C,0,-0.000
 8514567,1.4666081904,0.\C,0,0.0032109151,-1.4245197415,0.\C,0,1.265686
 8855,0.6886123143,0.\C,0,1.2413704227,-0.7236754288,0.\C,0,-1.26354285
 6,0.6860784612,0.\C,0,-1.2397598359,-0.7232343127,0.\H,0,2.4944455232,
 2.4580787074,0.\H,0,4.6452421748,1.222191387,0.\H,0,4.6196445712,-1.26
 67849118,0.\H,0,2.4746774025,-2.4879993886,0.\H,0,0.0027390234,-2.5075
 49483,0.\H,0,-2.4725025975,-2.4864195773,0.\H,0,-4.6200549118,-1.26637
 45712,0.\H,0,-4.6490070497,1.223648096,0.\H,0,-2.4955944768,2.45817103
 41,0.\H,0,-0.0047291752,2.1566902585,-0.8637392245\H,0,-0.0047394337,2
 .1566902585,0.8637392245\\Version=ES64L-G16RevC.01\State=1-A\HF=-539.7
 589684\RMSD=4.460e-09\Dipole=0.0356158,-0.0781695,0.\Quadrupole=19.498
 4056,0.6971056,-20.1955113,-0.0164816,-0.000007,0.\PG=C01 [X(C14H11)]\
 \@
 The archive entry for this job was punched.


 IF I AM NOT FOR MYSELF, WHO WILL BE?
 BUT IF I AM ONLY FOR MYSELF, WHAT AM I?
 THOUGH A SEEKER SINCE MY BIRTH,
 HERE IS ALL I'VE LEARNED ON EARTH,
 THIS IS THE GIST OF WHAT I KNOW:
 GIVE ADVICE AND BUY A FOE.

 PRESSED FOR RULES AND VERITIES,
 ALL I RECOLLECT ARE THESE:
 FEED A COLD TO STARVE A FEVER,
 ARGUE WITH NO TRUE-BELIEVER.
 THINK-TOO-LONG IS NEVER-ACT,
 SCRATCH A MYTH AND FIND A FACT.

 STITCH IN TIME SAVES TWENTY STITCHES,
 GIVE THE RICH TO PLEASE THEM, RICHES.
 GIVE TO LOVE YOU HEARTH AND HALL,
 BUT DO NOT GIVE ADVICE AT ALL.

                                  -- HILLEL
 FChkPn:  Coordinates translated and rotated.
 FChkPn:  Coordinates match /B/ after translation and rotation.
 Job cpu time:       0 days  0 hours 19 minutes 20.8 seconds.
 Elapsed time:       0 days  0 hours  2 minutes 28.2 seconds.
 File lengths (MBytes):  RWF=     80 Int=      0 D2E=      0 Chk=     10 Scr=      1
 Normal termination of Gaussian 16 at Thu Jul 14 16:47:43 2022.
