 Entering Gaussian System, Link 0=g16
 Initial command:
 /apps/gaussian/g16c01/g16/l1.exe "/jobfs/51152907.gadi-pbs/Gau-343885.inp" -scrdir="/jobfs/51152907.gadi-pbs/"
 Entering Link 1 = /apps/gaussian/g16c01/g16/l1.exe PID=    343899.
  
 Copyright (c) 1988-2019, Gaussian, Inc.  All Rights Reserved.
  
 This is part of the Gaussian(R) 16 program.  It is based on
 the Gaussian(R) 09 system (copyright 2009, Gaussian, Inc.),
 the Gaussian(R) 03 system (copyright 2003, Gaussian, Inc.),
 the Gaussian(R) 98 system (copyright 1998, Gaussian, Inc.),
 the Gaussian(R) 94 system (copyright 1995, Gaussian, Inc.),
 the Gaussian 92(TM) system (copyright 1992, Gaussian, Inc.),
 the Gaussian 90(TM) system (copyright 1990, Gaussian, Inc.),
 the Gaussian 88(TM) system (copyright 1988, Gaussian, Inc.),
 the Gaussian 86(TM) system (copyright 1986, Carnegie Mellon
 University), and the Gaussian 82(TM) system (copyright 1983,
 Carnegie Mellon University). Gaussian is a federally registered
 trademark of Gaussian, Inc.
  
 This software contains proprietary and confidential information,
 including trade secrets, belonging to Gaussian, Inc.
  
 This software is provided under written license and may be
 used, copied, transmitted, or stored only in accord with that
 written license.
  
 The following legend is applicable only to US Government
 contracts under FAR:
  
                    RESTRICTED RIGHTS LEGEND
  
 Use, reproduction and disclosure by the US Government is
 subject to restrictions as set forth in subparagraphs (a)
 and (c) of the Commercial Computer Software - Restricted
 Rights clause in FAR 52.227-19.
  
 Gaussian, Inc.
 340 Quinnipiac St., Bldg. 40, Wallingford CT 06492
  
  
 ---------------------------------------------------------------
 Warning -- This program may not be used in any manner that
 competes with the business of Gaussian, Inc. or will provide
 assistance to any competitor of Gaussian, Inc.  The licensee
 of this program is prohibited from giving any competitor of
 Gaussian, Inc. access to this program.  By using this program,
 the user acknowledges that Gaussian, Inc. is engaged in the
 business of creating and licensing software in the field of
 computational chemistry and represents and warrants to the
 licensee that it is not a competitor of Gaussian, Inc. and that
 it will not use this program in any manner prohibited above.
 ---------------------------------------------------------------
  

 Cite this work as:
 Gaussian 16, Revision C.01,
 M. J. Frisch, G. W. Trucks, H. B. Schlegel, G. E. Scuseria, 
 M. A. Robb, J. R. Cheeseman, G. Scalmani, V. Barone, 
 G. A. Petersson, H. Nakatsuji, X. Li, M. Caricato, A. V. Marenich, 
 J. Bloino, B. G. Janesko, R. Gomperts, B. Mennucci, H. P. Hratchian, 
 J. V. Ortiz, A. F. Izmaylov, J. L. Sonnenberg, D. Williams-Young, 
 F. Ding, F. Lipparini, F. Egidi, J. Goings, B. Peng, A. Petrone, 
 T. Henderson, D. Ranasinghe, V. G. Zakrzewski, J. Gao, N. Rega, 
 G. Zheng, W. Liang, M. Hada, M. Ehara, K. Toyota, R. Fukuda, 
 J. Hasegawa, M. Ishida, T. Nakajima, Y. Honda, O. Kitao, H. Nakai, 
 T. Vreven, K. Throssell, J. A. Montgomery, Jr., J. E. Peralta, 
 F. Ogliaro, M. J. Bearpark, J. J. Heyd, E. N. Brothers, K. N. Kudin, 
 V. N. Staroverov, T. A. Keith, R. Kobayashi, J. Normand, 
 K. Raghavachari, A. P. Rendell, J. C. Burant, S. S. Iyengar, 
 J. Tomasi, M. Cossi, J. M. Millam, M. Klene, C. Adamo, R. Cammi, 
 J. W. Ochterski, R. L. Martin, K. Morokuma, O. Farkas, 
 J. B. Foresman, and D. J. Fox, Gaussian, Inc., Wallingford CT, 2019.
 
 ******************************************
 Gaussian 16:  ES64L-G16RevC.01  3-Jul-2019
                14-Jul-2022 
 ******************************************
 %NProcShared=8
 Will use up to    8 processors via shared memory.
 %mem = 32GB
 %Chk=check_sp_17
 -------------------------------------------
 #n M062X/6-311++G(d,p) SP pop=reg formcheck
 -------------------------------------------
 1/38=1,172=1/1;
 2/12=2,17=6,18=5,40=1/2;
 3/5=4,6=6,7=1111,11=2,25=1,30=1,74=-55/1,2,3;
 4//1;
 5/5=2,38=5/2;
 6/28=1/1;
 99/5=1,9=1/99;
 ------
 SP_-17
 ------
 Symbolic Z-matrix:
 Charge =  1 Multiplicity = 1
 C                     2.46692   1.37245   0. 
 C                     3.6763    0.66846   0. 
 C                     3.67436  -0.73589   0. 
 C                     2.5064   -1.41689   0. 
 C                    -2.43142  -1.38794   0. 
 C                    -3.71029  -0.67781   0. 
 C                    -3.74327   0.69532   0. 
 C                    -2.52918   1.37315   0. 
 C                    -0.01447   1.46546   0. 
 C                     0.05459  -1.42436   0. 
 C                     1.28276   0.70913   0. 
 C                     1.25434  -0.72712   0. 
 C                    -1.24631   0.66605   0. 
 C                    -1.22696  -0.71962   0. 
 H                     2.48525   2.45726   0. 
 H                     4.61488   1.21037   0. 
 H                     4.6162   -1.2699    0. 
 H                     2.49208  -2.50031   0. 
 H                     0.04656  -2.50722   0. 
 H                    -2.4551   -2.47345   0. 
 H                    -4.62317  -1.26293   0. 
 H                    -4.67888   1.23514   0. 
 H                    -2.50479   2.45883   0. 
 H                    -0.0804    2.15685  -0.86325 
 H                    -0.08057   2.15685   0.86325 
 
                          Input orientation:                          
 ---------------------------------------------------------------------
 Center     Atomic      Atomic             Coordinates (Angstroms)
 Number     Number       Type             X           Y           Z
 ---------------------------------------------------------------------
      1          6           0        2.466925    1.372451    0.000000
      2          6           0        3.676302    0.668463    0.000000
      3          6           0        3.674363   -0.735885    0.000000
      4          6           0        2.506405   -1.416890    0.000000
      5          6           0       -2.431415   -1.387941    0.000000
      6          6           0       -3.710288   -0.677812    0.000000
      7          6           0       -3.743269    0.695320    0.000000
      8          6           0       -2.529183    1.373149    0.000000
      9          6           0       -0.014475    1.465459    0.000000
     10          6           0        0.054586   -1.424356    0.000000
     11          6           0        1.282757    0.709129    0.000000
     12          6           0        1.254337   -0.727122    0.000000
     13          6           0       -1.246309    0.666054    0.000000
     14          6           0       -1.226957   -0.719623    0.000000
     15          1           0        2.485254    2.457258    0.000000
     16          1           0        4.614877    1.210374    0.000000
     17          1           0        4.616198   -1.269904    0.000000
     18          1           0        2.492076   -2.500310    0.000000
     19          1           0        0.046563   -2.507221    0.000000
     20          1           0       -2.455104   -2.473453    0.000000
     21          1           0       -4.623174   -1.262928    0.000000
     22          1           0       -4.678880    1.235138    0.000000
     23          1           0       -2.504786    2.458828    0.000000
     24          1           0       -0.080396    2.156854   -0.863247
     25          1           0       -0.080570    2.156854    0.863247
 ---------------------------------------------------------------------
                    Distance matrix (angstroms):
                    1          2          3          4          5
     1  C    0.000000
     2  C    1.399355   0.000000
     3  C    2.429607   1.404349   0.000000
     4  C    2.789621   2.391099   1.351996   0.000000
     5  C    5.622588   6.444610   6.140497   4.937905   0.000000
     6  C    6.508574   7.508273   7.384880   6.260472   1.462805
     7  C    6.247001   7.419620   7.554443   6.596958   2.461897
     8  C    4.996108   6.245369   6.552252   5.756863   2.762820
     9  C    2.483142   3.775849   4.295747   3.829200   3.739451
    10  C    3.693441   4.182908   3.684668   2.451831   2.486267
    11  C    1.357295   2.393890   2.794252   2.453013   4.265299
    12  C    2.424578   2.795276   2.420042   1.429494   3.744523
    13  C    3.779828   4.922611   5.116487   4.292029   2.371365
    14  C    4.245178   5.095953   4.901347   3.797917   1.377450
    15  H    1.084962   2.149042   3.407366   3.874206   6.241730
    16  H    2.154059   1.083785   2.161594   3.368705   7.510091
    17  H    3.406085   2.154221   1.082695   2.114907   7.048601
    18  H    3.872842   3.382826   2.123911   1.083514   5.047586
    19  H    4.572746   4.822859   4.037148   2.690658   2.719038
    20  H    6.246387   6.889541   6.370990   5.072760   1.085770
    21  H    7.564041   8.521242   8.314258   7.131241   2.195321
    22  H    7.147124   8.374376   8.582633   7.659084   3.454220
    23  H    5.089020   6.435158   6.956154   6.335079   3.847468
    24  H    2.801665   4.131983   4.817816   4.495374   4.340283
    25  H    2.801823   4.132141   4.817952   4.495474   4.340189
                    6          7          8          9         10
     6  C    0.000000
     7  C    1.373527   0.000000
     8  C    2.366738   1.390488   0.000000
     9  C    4.272312   3.807496   2.516402   0.000000
    10  C    3.838177   4.349336   3.808135   2.890640   0.000000
    11  C    5.182095   5.026045   3.869343   1.501614   2.461740
    12  C    4.964870   5.196096   4.327374   2.533239   1.387638
    13  C    2.806630   2.497132   1.464838   1.468490   2.462141
    14  C    2.483683   2.886848   2.464851   2.498940   1.462532
    15  H    6.943587   6.472938   5.130290   2.689295   4.579855
    16  H    8.536605   8.374001   7.145915   4.636374   5.266693
    17  H    8.347511   8.587362   7.618543   5.378228   4.564226
    18  H    6.464582   7.006538   6.341666   4.691494   2.664402
    19  H    4.178597   4.961764   4.657440   3.973149   1.082895
    20  H    2.190848   3.420598   3.847315   4.633757   2.720137
    21  H    1.084306   2.146850   3.366555   5.355763   4.680544
    22  H    2.144189   1.080171   2.154122   4.670088   5.429420
    23  H    3.360319   2.154948   1.085953   2.681125   4.650752
    24  H    4.685792   4.037068   2.712185   1.107957   3.686256
    25  H    4.685657   4.036910   2.712028   1.107967   3.686262
                   11         12         13         14         15
    11  C    0.000000
    12  C    1.436533   0.000000
    13  C    2.529432   2.862546   0.000000
    14  C    2.887906   2.481306   1.385812   0.000000
    15  H    2.121781   3.414006   4.139199   4.886009   0.000000
    16  H    3.369610   3.879061   5.886406   6.152391   2.467796
    17  H    3.876648   3.405395   6.173889   5.869009   4.293327
    18  H    3.429716   2.162450   4.899120   4.123354   4.957572
    19  H    3.445734   2.151155   3.426542   2.194849   5.531118
    20  H    4.909219   4.099954   3.364177   2.141089   6.979903
    21  H    6.226478   5.901883   3.888983   3.439399   8.023062
    22  H    5.984797   6.249282   3.479426   3.966971   7.267626
    23  H    4.172161   4.927604   2.190389   3.425697   4.990040
    24  H    2.167784   3.293027   2.080152   3.214642   2.723600
    25  H    2.167894   3.293098   2.080055   3.214580   2.723764
                   16         17         18         19         20
    16  H    0.000000
    17  H    2.480277   0.000000
    18  H    4.274980   2.454749   0.000000
    19  H    5.889822   4.734186   2.445522   0.000000
    20  H    7.972152   7.172994   4.947253   2.501895   0.000000
    21  H    9.563409   9.239374   7.222042   4.832671   2.483122
    22  H    9.293790   9.626718   8.085553   6.027857   4.324213
    23  H    7.228294   8.038149   7.040005   5.583102   4.932531
    24  H    4.866889   5.877572   5.389989   4.744988   5.274863
    25  H    4.867057   5.877712   5.390072   4.744993   5.274784
                   21         22         23         24         25
    21  H    0.000000
    22  H    2.498686   0.000000
    23  H    4.282409   2.494815   0.000000
    24  H    5.751255   4.768733   2.591148   0.000000
    25  H    5.751117   4.768564   2.590985   1.726494   0.000000
 Stoichiometry    C14H11(1+)
 Framework group  C1[X(C14H11)]
 Deg. of freedom    69
 Full point group                 C1      NOp   1
 Largest Abelian subgroup         C1      NOp   1
 Largest concise Abelian subgroup C1      NOp   1
                         Standard orientation:                         
 ---------------------------------------------------------------------
 Center     Atomic      Atomic             Coordinates (Angstroms)
 Number     Number       Type             X           Y           Z
 ---------------------------------------------------------------------
      1          6           0        2.454263   -1.388032    0.000000
      2          6           0        3.670519   -0.695996    0.000000
      3          6           0        3.682419    0.708303    0.000000
      4          6           0        2.521229    1.400785    0.000000
      5          6           0       -2.416637    1.420497    0.000000
      6          6           0       -3.702446    0.723005    0.000000
      7          6           0       -3.748957   -0.649735    0.000000
      8          6           0       -2.541609   -1.339495    0.000000
      9          6           0       -0.027932   -1.456582    0.000000
     10          6           0        0.069602    1.432412    0.000000
     11          6           0        1.276690   -0.713073    0.000000
     12          6           0        1.262425    0.723389    0.000000
     13          6           0       -1.251829   -0.645077    0.000000
     14          6           0       -1.218823    0.740342    0.000000
     15          1           0        2.461901   -2.472967    0.000000
     16          1           0        4.603708   -1.247129    0.000000
     17          1           0        4.629471    1.233014    0.000000
     18          1           0        2.517577    2.484293    0.000000
     19          1           0        0.072252    2.515304    0.000000
     20          1           0       -2.429627    2.506190    0.000000
     21          1           0       -4.609520    1.317088    0.000000
     22          1           0       -4.689841   -1.180307    0.000000
     23          1           0       -2.527912   -2.425362    0.000000
     24          1           0       -0.100664   -2.147294    0.863247
     25          1           0       -0.100838   -2.147293   -0.863247
 ---------------------------------------------------------------------
 Rotational constants (GHZ):           2.1264031           0.4425216           0.3670923
 Standard basis: 6-311++G(d,p) (5D, 7F)
 There are   399 symmetry adapted cartesian basis functions of A   symmetry.
 There are   385 symmetry adapted basis functions of A   symmetry.
   385 basis functions,   603 primitive gaussians,   399 cartesian basis functions
    47 alpha electrons       47 beta electrons
       nuclear repulsion energy       779.5191128742 Hartrees.
 NAtoms=   25 NActive=   25 NUniq=   25 SFac= 1.00D+00 NAtFMM=   60 NAOKFM=F Big=F
 Integral buffers will be    131072 words long.
 Raffenetti 2 integral format.
 Two-electron integral symmetry is turned on.
 One-electron integrals computed using PRISM.
 NBasis=   385 RedAO= T EigKep=  1.14D-06  NBF=   385
 NBsUse=   379 1.00D-06 EigRej=  8.61D-07 NBFU=   379
 ExpMin= 3.60D-02 ExpMax= 4.56D+03 ExpMxC= 6.82D+02 IAcc=3 IRadAn=         5 AccDes= 0.00D+00
 Harris functional with IExCor= 1009 and IRadAn=       5 diagonalized for initial guess.
 HarFok:  IExCor= 1009 AccDes= 0.00D+00 IRadAn=         5 IDoV= 1 UseB2=F ITyADJ=14
 ICtDFT=  3500011 ScaDFX=  1.000000  1.000000  1.000000  1.000000
 FoFCou: FMM=F IPFlag=           0 FMFlag=      100000 FMFlg1=           0
         NFxFlg=           0 DoJE=T BraDBF=F KetDBF=T FulRan=T
         wScrn=  0.000000 ICntrl=       500 IOpCl=  0 I1Cent=   200000004 NGrid=           0
         NMat0=    1 NMatS0=      1 NMatT0=    0 NMatD0=    1 NMtDS0=    0 NMtDT0=    0
 Petite list used in FoFCou.
 Requested convergence on RMS density matrix=1.00D-08 within 128 cycles.
 Requested convergence on MAX density matrix=1.00D-06.
 Requested convergence on             energy=1.00D-06.
 No special actions if energy rises.
 SCF Done:  E(RM062X) =  -539.746124010     A.U. after   16 cycles
            NFock= 16  Conv=0.39D-08     -V/T= 2.0044

 **********************************************************************

            Population analysis using the SCF Density.

 **********************************************************************

 Orbital symmetries:
       Occupied  (A) (A) (A) (A) (A) (A) (A) (A) (A) (A) (A) (A)
                 (A) (A) (A) (A) (A) (A) (A) (A) (A) (A) (A) (A)
                 (A) (A) (A) (A) (A) (A) (A) (A) (A) (A) (A) (A)
                 (A) (A) (A) (A) (A) (A) (A) (A) (A) (A) (A)
       Virtual   (A) (A) (A) (A) (A) (A) (A) (A) (A) (A) (A) (A)
                 (A) (A) (A) (A) (A) (A) (A) (A) (A) (A) (A) (A)
                 (A) (A) (A) (A) (A) (A) (A) (A) (A) (A) (A) (A)
                 (A) (A) (A) (A) (A) (A) (A) (A) (A) (A) (A) (A)
                 (A) (A) (A) (A) (A) (A) (A) (A) (A) (A) (A) (A)
                 (A) (A) (A) (A) (A) (A) (A) (A) (A) (A) (A) (A)
                 (A) (A) (A) (A) (A) (A) (A) (A) (A) (A) (A) (A)
                 (A) (A) (A) (A) (A) (A) (A) (A) (A) (A) (A) (A)
                 (A) (A) (A) (A) (A) (A) (A) (A) (A) (A) (A) (A)
                 (A) (A) (A) (A) (A) (A) (A) (A) (A) (A) (A) (A)
                 (A) (A) (A) (A) (A) (A) (A) (A) (A) (A) (A) (A)
                 (A) (A) (A) (A) (A) (A) (A) (A) (A) (A) (A) (A)
                 (A) (A) (A) (A) (A) (A) (A) (A) (A) (A) (A) (A)
                 (A) (A) (A) (A) (A) (A) (A) (A) (A) (A) (A) (A)
                 (A) (A) (A) (A) (A) (A) (A) (A) (A) (A) (A) (A)
                 (A) (A) (A) (A) (A) (A) (A) (A) (A) (A) (A) (A)
                 (A) (A) (A) (A) (A) (A) (A) (A) (A) (A) (A) (A)
                 (A) (A) (A) (A) (A) (A) (A) (A) (A) (A) (A) (A)
                 (A) (A) (A) (A) (A) (A) (A) (A) (A) (A) (A) (A)
                 (A) (A) (A) (A) (A) (A) (A) (A) (A) (A) (A) (A)
                 (A) (A) (A) (A) (A) (A) (A) (A) (A) (A) (A) (A)
                 (A) (A) (A) (A) (A) (A) (A) (A) (A) (A) (A) (A)
                 (A) (A) (A) (A) (A) (A) (A) (A) (A) (A) (A) (A)
                 (A) (A) (A) (A) (A) (A) (A) (A) (A) (A) (A) (A)
                 (A) (A) (A) (A) (A) (A) (A) (A) (A) (A) (A) (A)
                 (A) (A) (A) (A) (A) (A) (A) (A) (A) (A) (A) (A)
                 (A) (A) (A) (A) (A) (A) (A) (A) (A) (A) (A) (A)
                 (A) (A) (A) (A) (A) (A) (A) (A)
 The electronic state is 1-A.
 Alpha  occ. eigenvalues --  -10.77577 -10.74044 -10.73082 -10.72665 -10.72565
 Alpha  occ. eigenvalues --  -10.72072 -10.71841 -10.71082 -10.70728 -10.70398
 Alpha  occ. eigenvalues --  -10.70093 -10.69778 -10.69675 -10.69328  -1.16422
 Alpha  occ. eigenvalues --   -1.12291  -1.06754  -1.05838  -1.01133  -1.00470
 Alpha  occ. eigenvalues --   -0.95335  -0.90917  -0.86335  -0.85731  -0.83710
 Alpha  occ. eigenvalues --   -0.78190  -0.76098  -0.74191  -0.69950  -0.69204
 Alpha  occ. eigenvalues --   -0.68127  -0.67967  -0.67859  -0.65493  -0.64137
 Alpha  occ. eigenvalues --   -0.62452  -0.61424  -0.60545  -0.59309  -0.58956
 Alpha  occ. eigenvalues --   -0.56786  -0.55510  -0.54027  -0.52337  -0.47723
 Alpha  occ. eigenvalues --   -0.46082  -0.43294
 Alpha virt. eigenvalues --   -0.26149  -0.14751  -0.14043  -0.12799  -0.11192
 Alpha virt. eigenvalues --   -0.10098  -0.09287  -0.07942  -0.07904  -0.07498
 Alpha virt. eigenvalues --   -0.07212  -0.07138  -0.05664  -0.05576  -0.05386
 Alpha virt. eigenvalues --   -0.03859  -0.03663  -0.03281  -0.03157  -0.02150
 Alpha virt. eigenvalues --   -0.01321  -0.00979   0.00166   0.00555   0.00638
 Alpha virt. eigenvalues --    0.01076   0.01485   0.01898   0.02063   0.02293
 Alpha virt. eigenvalues --    0.02437   0.02663   0.02771   0.03144   0.03476
 Alpha virt. eigenvalues --    0.04192   0.04481   0.04738   0.05011   0.05376
 Alpha virt. eigenvalues --    0.06026   0.06243   0.06550   0.07052   0.07268
 Alpha virt. eigenvalues --    0.07887   0.07967   0.08315   0.08659   0.08853
 Alpha virt. eigenvalues --    0.09397   0.09524   0.09812   0.10615   0.10832
 Alpha virt. eigenvalues --    0.11115   0.11963   0.12190   0.12497   0.12999
 Alpha virt. eigenvalues --    0.13495   0.13517   0.13938   0.14140   0.15604
 Alpha virt. eigenvalues --    0.16239   0.16458   0.17285   0.17304   0.17689
 Alpha virt. eigenvalues --    0.18035   0.19005   0.19356   0.19701   0.19983
 Alpha virt. eigenvalues --    0.21427   0.21541   0.22478   0.23088   0.23524
 Alpha virt. eigenvalues --    0.23961   0.24466   0.25352   0.26886   0.27470
 Alpha virt. eigenvalues --    0.28748   0.29263   0.29863   0.31258   0.35484
 Alpha virt. eigenvalues --    0.36228   0.38144   0.39197   0.40883   0.41180
 Alpha virt. eigenvalues --    0.41834   0.42060   0.43027   0.43602   0.44504
 Alpha virt. eigenvalues --    0.44544   0.44955   0.45756   0.46244   0.47843
 Alpha virt. eigenvalues --    0.48299   0.48653   0.49070   0.50675   0.50890
 Alpha virt. eigenvalues --    0.51047   0.52148   0.52168   0.52544   0.54143
 Alpha virt. eigenvalues --    0.54195   0.54513   0.55572   0.56096   0.57573
 Alpha virt. eigenvalues --    0.58178   0.59012   0.61493   0.62164   0.62313
 Alpha virt. eigenvalues --    0.62973   0.63432   0.64648   0.65098   0.67554
 Alpha virt. eigenvalues --    0.70076   0.70280   0.71167   0.72499   0.72892
 Alpha virt. eigenvalues --    0.75414   0.75884   0.76400   0.76668   0.77111
 Alpha virt. eigenvalues --    0.77826   0.78082   0.78263   0.79996   0.80262
 Alpha virt. eigenvalues --    0.81103   0.81544   0.82510   0.82847   0.85198
 Alpha virt. eigenvalues --    0.86915   0.87900   0.88124   0.89276   0.90681
 Alpha virt. eigenvalues --    0.90920   0.91506   0.93282   0.94435   0.96238
 Alpha virt. eigenvalues --    0.96840   1.00061   1.01180   1.01327   1.02853
 Alpha virt. eigenvalues --    1.02920   1.03147   1.04827   1.06204   1.08772
 Alpha virt. eigenvalues --    1.19529   1.22677   1.23640   1.24098   1.28975
 Alpha virt. eigenvalues --    1.29333   1.32250   1.34058   1.35725   1.35814
 Alpha virt. eigenvalues --    1.39138   1.39380   1.40482   1.42687   1.43205
 Alpha virt. eigenvalues --    1.43207   1.43924   1.46131   1.46409   1.46524
 Alpha virt. eigenvalues --    1.47631   1.48029   1.51605   1.53474   1.55397
 Alpha virt. eigenvalues --    1.55429   1.56138   1.56409   1.57656   1.61154
 Alpha virt. eigenvalues --    1.62562   1.63332   1.64330   1.65898   1.68003
 Alpha virt. eigenvalues --    1.68080   1.68490   1.69661   1.74214   1.75675
 Alpha virt. eigenvalues --    1.76810   1.78117   1.79057   1.79644   1.81254
 Alpha virt. eigenvalues --    1.82378   1.82829   1.83219   1.83708   1.83992
 Alpha virt. eigenvalues --    1.84584   1.85168   1.86333   1.88378   1.91209
 Alpha virt. eigenvalues --    1.92042   1.93559   1.95425   1.97478   1.97868
 Alpha virt. eigenvalues --    1.99608   2.02035   2.04280   2.07028   2.11297
 Alpha virt. eigenvalues --    2.11920   2.14192   2.14863   2.18627   2.20805
 Alpha virt. eigenvalues --    2.22221   2.27783   2.29866   2.33661   2.34193
 Alpha virt. eigenvalues --    2.35812   2.38095   2.39494   2.41798   2.43919
 Alpha virt. eigenvalues --    2.45628   2.45819   2.48610   2.52539   2.53187
 Alpha virt. eigenvalues --    2.54310   2.56759   2.57900   2.58568   2.59175
 Alpha virt. eigenvalues --    2.60041   2.61185   2.61893   2.63482   2.63610
 Alpha virt. eigenvalues --    2.64810   2.64937   2.65058   2.65788   2.67442
 Alpha virt. eigenvalues --    2.67828   2.70617   2.70749   2.73299   2.74654
 Alpha virt. eigenvalues --    2.76111   2.77162   2.79438   2.82692   2.83196
 Alpha virt. eigenvalues --    2.83986   2.86074   2.91843   2.96861   2.99056
 Alpha virt. eigenvalues --    2.99951   3.04224   3.07237   3.10207   3.13940
 Alpha virt. eigenvalues --    3.19160   3.20248   3.24857   3.28352   3.30657
 Alpha virt. eigenvalues --    3.32025   3.34794   3.44023   3.45924   3.46276
 Alpha virt. eigenvalues --    3.47689   3.48987   3.55973   3.65221   3.66638
 Alpha virt. eigenvalues --    3.67853   3.92832   3.93279   3.94774   3.96139
 Alpha virt. eigenvalues --    4.03372   4.05695   4.07156   4.11871   4.34651
 Alpha virt. eigenvalues --    4.59746   4.67871   4.69964  23.44838  23.59166
 Alpha virt. eigenvalues --   23.76944  23.78815  23.82214  23.88565  23.91051
 Alpha virt. eigenvalues --   23.94676  23.94787  23.98192  24.05315  24.09367
 Alpha virt. eigenvalues --   24.11300  24.15485
     Molecular Orbital Coefficients:
                          43        44        45        46        47
                           O         O         O         O         O
     Eigenvalues --    -0.54027  -0.52337  -0.47723  -0.46082  -0.43294
   1 1   C  1S          0.00078   0.00000  -0.00000   0.00000   0.00000
   2        2S          0.00127   0.00000  -0.00000   0.00000   0.00000
   3        2PX         0.05445   0.00000  -0.00000  -0.00000   0.00000
   4        2PY         0.03366   0.00000  -0.00000  -0.00000  -0.00000
   5        2PZ        -0.00000   0.07134  -0.12793   0.03757   0.03839
   6        3S         -0.00218  -0.00000   0.00000  -0.00000  -0.00000
   7        3PX         0.07603   0.00000  -0.00000  -0.00000   0.00000
   8        3PY         0.04937   0.00000  -0.00000  -0.00000  -0.00000
   9        3PZ        -0.00000   0.11506  -0.20922   0.06174   0.06384
  10        4S          0.01220  -0.00000  -0.00000  -0.00000  -0.00000
  11        4PX         0.05901  -0.00000  -0.00000  -0.00000   0.00000
  12        4PY         0.06104  -0.00000  -0.00000  -0.00000  -0.00000
  13        4PZ        -0.00000   0.09579  -0.17832   0.05721   0.05828
  14        5S         -0.06965   0.00001  -0.00004  -0.00003  -0.00006
  15        5PX        -0.04944  -0.00001   0.00007   0.00004   0.00007
  16        5PY         0.00182  -0.00000   0.00001   0.00000   0.00001
  17        5PZ        -0.00000   0.00294  -0.04368   0.00702  -0.00081
  18        6D 0       -0.00020  -0.00000  -0.00000  -0.00000   0.00000
  19        6D+1        0.00000   0.00897   0.01015   0.01374   0.00099
  20        6D-1       -0.00000   0.00713  -0.00908   0.00266   0.00313
  21        6D+2        0.01301   0.00000  -0.00000  -0.00000   0.00000
  22        6D-2        0.00884   0.00000  -0.00000   0.00000   0.00000
  23 2   C  1S         -0.00185  -0.00000   0.00000   0.00000  -0.00000
  24        2S         -0.00306  -0.00000   0.00000   0.00000  -0.00000
  25        2PX        -0.05341  -0.00000   0.00000   0.00000  -0.00000
  26        2PY        -0.04180  -0.00000   0.00000   0.00000  -0.00000
  27        2PZ         0.00000   0.09999  -0.01129   0.09315   0.01861
  28        3S          0.00992   0.00000  -0.00000  -0.00000   0.00000
  29        3PX        -0.07615  -0.00000   0.00000   0.00000  -0.00000
  30        3PY        -0.05918  -0.00000   0.00000   0.00000  -0.00000
  31        3PZ         0.00000   0.16507  -0.01883   0.15347   0.03023
  32        4S         -0.01927   0.00000   0.00000   0.00000  -0.00000
  33        4PX        -0.04696  -0.00000  -0.00000  -0.00000  -0.00000
  34        4PY        -0.03519  -0.00000   0.00000   0.00000   0.00000
  35        4PZ         0.00000   0.12699  -0.01551   0.13226   0.02923
  36        5S          0.00220   0.00000  -0.00001  -0.00001  -0.00002
  37        5PX        -0.01101  -0.00000   0.00002   0.00001   0.00002
  38        5PY        -0.04271  -0.00001   0.00004   0.00002   0.00004
  39        5PZ         0.00000  -0.00126   0.01118   0.00164   0.01624
  40        6D 0        0.00023  -0.00000  -0.00000  -0.00000   0.00000
  41        6D+1        0.00000  -0.00875   0.01264  -0.00453  -0.00420
  42        6D-1        0.00000   0.00515   0.02013   0.00486  -0.00499
  43        6D+2        0.00324  -0.00000   0.00000  -0.00000  -0.00000
  44        6D-2        0.00923   0.00000  -0.00000  -0.00000   0.00000
  45 3   C  1S          0.00174   0.00000   0.00000   0.00000  -0.00000
  46        2S          0.00289   0.00000   0.00000   0.00000  -0.00000
  47        2PX         0.04913   0.00000  -0.00000  -0.00000   0.00000
  48        2PY         0.02978   0.00000  -0.00000  -0.00000   0.00000
  49        2PZ         0.00000   0.07263   0.11834   0.05887  -0.02492
  50        3S         -0.00979  -0.00000  -0.00000  -0.00000   0.00000
  51        3PX         0.07045   0.00000  -0.00000   0.00000   0.00000
  52        3PY         0.04349   0.00000  -0.00000  -0.00000  -0.00000
  53        3PZ         0.00001   0.11834   0.19419   0.09603  -0.04086
  54        4S          0.01072  -0.00000  -0.00000  -0.00000  -0.00000
  55        4PX         0.06142   0.00000   0.00000   0.00000   0.00000
  56        4PY         0.03300   0.00000   0.00000   0.00000   0.00000
  57        4PZ         0.00000   0.09486   0.16424   0.08715  -0.03594
  58        5S          0.04311   0.00001  -0.00005  -0.00002  -0.00005
  59        5PX         0.00524   0.00000  -0.00001  -0.00000  -0.00000
  60        5PY        -0.04042  -0.00000   0.00003   0.00002   0.00002
  61        5PZ        -0.00000   0.01139   0.00019   0.02079  -0.01625
  62        6D 0        0.00037   0.00000  -0.00000   0.00000   0.00000
  63        6D+1       -0.00000  -0.00274  -0.01415   0.00177   0.00352
  64        6D-1        0.00000  -0.01103   0.00753  -0.01201  -0.00380
  65        6D+2        0.00976   0.00000  -0.00000  -0.00000   0.00000
  66        6D-2        0.01300   0.00000  -0.00000  -0.00000   0.00000
  67 4   C  1S         -0.00477  -0.00000   0.00000   0.00000  -0.00000
  68        2S         -0.00791  -0.00000   0.00000   0.00000  -0.00000
  69        2PX        -0.06810  -0.00000   0.00000   0.00000  -0.00000
  70        2PY        -0.03648  -0.00000   0.00000   0.00000  -0.00000
  71        2PZ         0.00000   0.00614   0.13035  -0.02822  -0.03487
  72        3S          0.02511   0.00000  -0.00000  -0.00000   0.00000
  73        3PX        -0.09745  -0.00000   0.00000   0.00000  -0.00000
  74        3PY        -0.05324  -0.00000   0.00000   0.00000  -0.00000
  75        3PZ         0.00001   0.00832   0.21331  -0.04647  -0.05604
  76        4S         -0.01694   0.00000   0.00000   0.00000   0.00000
  77        4PX        -0.04389  -0.00000   0.00000  -0.00000  -0.00000
  78        4PY        -0.03946  -0.00000  -0.00000  -0.00000  -0.00000
  79        4PZ         0.00001   0.01391   0.18739  -0.03657  -0.06102
  80        5S         -0.21926   0.00002   0.00005   0.00002   0.00002
  81        5PX         0.08255  -0.00000  -0.00003  -0.00001  -0.00002
  82        5PY         0.04168  -0.00000  -0.00001  -0.00000  -0.00000
  83        5PZ         0.00000  -0.01897   0.03198  -0.03111  -0.00106
  84        6D 0        0.00076  -0.00000  -0.00000  -0.00000   0.00000
  85        6D+1       -0.00000   0.01493   0.01052   0.01631  -0.00244
  86        6D-1       -0.00000  -0.00282  -0.00877   0.00079   0.00189
  87        6D+2        0.01034   0.00000  -0.00000  -0.00000   0.00000
  88        6D-2        0.00724   0.00000  -0.00000   0.00000  -0.00000
  89 5   C  1S         -0.00306   0.00000  -0.00000   0.00000   0.00000
  90        2S         -0.00509   0.00000  -0.00000   0.00000   0.00000
  91        2PX        -0.07168  -0.00000   0.00000  -0.00000  -0.00000
  92        2PY        -0.03911   0.00000  -0.00000   0.00000   0.00000
  93        2PZ         0.00000   0.01794  -0.03877   0.05610  -0.12541
  94        3S          0.01580  -0.00000   0.00000  -0.00000  -0.00000
  95        3PX        -0.10273  -0.00000   0.00000  -0.00000  -0.00000
  96        3PY        -0.05671   0.00000  -0.00000   0.00000   0.00000
  97        3PZ         0.00000   0.02833  -0.06404   0.09076  -0.20438
  98        4S          0.03195  -0.00000   0.00000   0.00000   0.00000
  99        4PX        -0.07760  -0.00000   0.00000   0.00000  -0.00000
 100        4PY        -0.05772   0.00000  -0.00000  -0.00000  -0.00000
 101        4PZ         0.00000   0.03081  -0.04981   0.07031  -0.20128
 102        5S          0.16470  -0.00001   0.00000  -0.00000   0.00002
 103        5PX         0.11440  -0.00000   0.00000   0.00001   0.00002
 104        5PY        -0.03445   0.00000  -0.00000  -0.00000  -0.00000
 105        5PZ         0.00000  -0.01048  -0.02145   0.03339  -0.03248
 106        6D 0       -0.00001   0.00000   0.00000  -0.00000  -0.00000
 107        6D+1        0.00000  -0.01133   0.00060   0.01713   0.01074
 108        6D-1       -0.00000  -0.00359   0.00248  -0.00300   0.00616
 109        6D+2        0.00949  -0.00000   0.00000  -0.00000  -0.00000
 110        6D-2        0.00938   0.00000  -0.00000  -0.00000  -0.00000
 111 6   C  1S          0.00032  -0.00000  -0.00000   0.00000   0.00000
 112        2S          0.00053  -0.00000  -0.00000   0.00000   0.00000
 113        2PX         0.07211   0.00000  -0.00000  -0.00000   0.00000
 114        2PY         0.03949  -0.00000  -0.00000  -0.00000  -0.00000
 115        2PZ         0.00000   0.07959  -0.02880  -0.06061  -0.11954
 116        3S          0.00060   0.00000   0.00000  -0.00000  -0.00000
 117        3PX         0.10484   0.00000  -0.00000  -0.00000   0.00000
 118        3PY         0.05662  -0.00000  -0.00000  -0.00000  -0.00000
 119        3PZ         0.00000   0.12926  -0.04740  -0.09762  -0.19639
 120        4S         -0.02199   0.00000  -0.00000  -0.00000  -0.00000
 121        4PX         0.07011   0.00000  -0.00000  -0.00000  -0.00000
 122        4PY         0.02335  -0.00000   0.00000   0.00000   0.00000
 123        4PZ         0.00000   0.09962  -0.04087  -0.08386  -0.17800
 124        5S          0.03987  -0.00001  -0.00007  -0.00004  -0.00007
 125        5PX         0.03845  -0.00000  -0.00000   0.00000   0.00000
 126        5PY         0.05834   0.00000   0.00002   0.00001   0.00003
 127        5PZ         0.00000   0.00584   0.01392  -0.01705  -0.01411
 128        6D 0        0.00006  -0.00000   0.00000   0.00000   0.00000
 129        6D+1        0.00000   0.00345  -0.00379   0.00410  -0.01194
 130        6D-1        0.00000  -0.01145  -0.00163   0.01567  -0.00595
 131        6D+2        0.00493  -0.00000   0.00000  -0.00000  -0.00000
 132        6D-2        0.01347   0.00000  -0.00000  -0.00000   0.00000
 133 7   C  1S          0.00291   0.00000  -0.00000  -0.00000   0.00000
 134        2S          0.00485   0.00000  -0.00000  -0.00000   0.00000
 135        2PX        -0.07428  -0.00000   0.00000   0.00000  -0.00000
 136        2PY        -0.03197   0.00000  -0.00000  -0.00000   0.00000
 137        2PZ         0.00000   0.10287  -0.00040  -0.11338   0.00366
 138        3S         -0.01653  -0.00000   0.00000   0.00000  -0.00000
 139        3PX        -0.10779  -0.00000   0.00000   0.00000  -0.00000
 140        3PY        -0.04561   0.00000  -0.00000  -0.00000   0.00000
 141        3PZ         0.00000   0.16915  -0.00003  -0.18630   0.00656
 142        4S          0.00727  -0.00000   0.00000   0.00000   0.00000
 143        4PX        -0.08506  -0.00000   0.00000   0.00000   0.00000
 144        4PY        -0.03831   0.00000   0.00000   0.00000   0.00000
 145        4PZ         0.00000   0.12545  -0.00164  -0.15585   0.00576
 146        5S         -0.10177   0.00001   0.00001   0.00000   0.00001
 147        5PX        -0.04452   0.00000  -0.00000  -0.00001  -0.00001
 148        5PY         0.06278   0.00000   0.00003   0.00002   0.00004
 149        5PZ        -0.00000   0.00364  -0.01791  -0.00494  -0.00581
 150        6D 0        0.00019   0.00000   0.00000   0.00000  -0.00000
 151        6D+1       -0.00000   0.00968   0.00263  -0.00798   0.01205
 152        6D-1        0.00000   0.00587  -0.00497  -0.00382  -0.02121
 153        6D+2        0.01058   0.00000  -0.00000  -0.00000   0.00000
 154        6D-2        0.01860   0.00000  -0.00000  -0.00000   0.00000
 155 8   C  1S         -0.00268  -0.00000   0.00000   0.00000  -0.00000
 156        2S         -0.00444  -0.00000   0.00000   0.00000  -0.00000
 157        2PX         0.09039   0.00000  -0.00000  -0.00000   0.00000
 158        2PY         0.03537  -0.00000  -0.00000   0.00000   0.00000
 159        2PZ        -0.00000   0.07615   0.02985  -0.06597   0.12514
 160        3S          0.01473   0.00000  -0.00000  -0.00000   0.00000
 161        3PX         0.13081   0.00000  -0.00000  -0.00000   0.00000
 162        3PY         0.05129  -0.00000  -0.00000  -0.00000   0.00000
 163        3PZ        -0.00000   0.12215   0.04814  -0.10669   0.20463
 164        4S         -0.02208   0.00000  -0.00000  -0.00000  -0.00000
 165        4PX         0.06656  -0.00000  -0.00000  -0.00000   0.00000
 166        4PY         0.04153   0.00000  -0.00000  -0.00000  -0.00000
 167        4PZ        -0.00000   0.10021   0.04220  -0.09573   0.18766
 168        5S          0.14959  -0.00001  -0.00007  -0.00004  -0.00006
 169        5PX        -0.09778  -0.00000  -0.00006  -0.00004  -0.00007
 170        5PY         0.02463   0.00000   0.00000   0.00000   0.00000
 171        5PZ        -0.00000  -0.00179   0.02354  -0.00977   0.04286
 172        6D 0        0.00022   0.00000   0.00000  -0.00000  -0.00000
 173        6D+1       -0.00000  -0.00816   0.00364   0.01479   0.01003
 174        6D-1       -0.00000   0.00796   0.00112  -0.00472   0.00685
 175        6D+2        0.00988  -0.00000   0.00000  -0.00000  -0.00000
 176        6D-2        0.01027   0.00000  -0.00000  -0.00000   0.00000
 177 9   C  1S         -0.00325  -0.00000  -0.00000  -0.00000  -0.00000
 178        2S         -0.00542  -0.00000  -0.00000  -0.00000  -0.00000
 179        2PX         0.07807   0.00000  -0.00000  -0.00000   0.00000
 180        2PY         0.03465  -0.00000  -0.00000  -0.00000  -0.00000
 181        2PZ        -0.00001  -0.00731   0.03472   0.00077  -0.05153
 182        3S          0.01765   0.00000   0.00000   0.00000   0.00000
 183        3PX         0.11688   0.00000  -0.00000  -0.00000   0.00000
 184        3PY         0.05104  -0.00000  -0.00000  -0.00000  -0.00000
 185        3PZ        -0.00001  -0.00867   0.05278   0.00159  -0.07887
 186        4S         -0.00197  -0.00000   0.00003   0.00001   0.00003
 187        4PX         0.08804  -0.00001  -0.00000  -0.00000  -0.00000
 188        4PY         0.05406  -0.00000  -0.00000  -0.00000  -0.00000
 189        4PZ        -0.00001  -0.04372   0.05051   0.00168  -0.08185
 190        5S         -0.02739  -0.00001   0.00006   0.00005   0.00007
 191        5PX        -0.24301  -0.00000   0.00002   0.00001  -0.00000
 192        5PY         0.00043  -0.00000   0.00001   0.00001   0.00001
 193        5PZ        -0.00000  -0.06772  -0.05201  -0.00382   0.07449
 194        6D 0       -0.00404  -0.00000   0.00000  -0.00000  -0.00000
 195        6D+1       -0.00000  -0.00072  -0.01406  -0.00846  -0.00875
 196        6D-1        0.00000   0.00050  -0.00881   0.00031   0.01620
 197        6D+2        0.01082   0.00000  -0.00000  -0.00000   0.00000
 198        6D-2        0.00780   0.00000  -0.00000  -0.00000   0.00000
 199 10  C  1S         -0.00759  -0.00000   0.00000  -0.00000  -0.00000
 200        2S         -0.01260  -0.00000   0.00000  -0.00000  -0.00000
 201        2PX        -0.07253  -0.00000   0.00000   0.00000  -0.00000
 202        2PY        -0.03671  -0.00000   0.00000   0.00000  -0.00000
 203        2PZ         0.00000  -0.10343  -0.00959  -0.00987   0.01413
 204        3S          0.03845   0.00000   0.00000   0.00000   0.00000
 205        3PX        -0.10502  -0.00000   0.00000   0.00000  -0.00000
 206        3PY        -0.05347  -0.00000   0.00000   0.00000   0.00000
 207        3PZ         0.00001  -0.16842  -0.01628  -0.01570   0.02402
 208        4S          0.04314   0.00000  -0.00001  -0.00000  -0.00001
 209        4PX        -0.08710   0.00000   0.00000   0.00000  -0.00000
 210        4PY        -0.06334  -0.00000   0.00000   0.00000   0.00000
 211        4PZ         0.00000  -0.13922  -0.01159  -0.01166   0.01755
 212        5S         -0.02481  -0.00000   0.00005   0.00003   0.00006
 213        5PX         0.26203  -0.00001  -0.00003  -0.00001   0.00001
 214        5PY        -0.00955   0.00000   0.00000  -0.00000   0.00000
 215        5PZ         0.00000  -0.01413   0.02959   0.00547  -0.05078
 216        6D 0        0.00114  -0.00000   0.00000   0.00000   0.00000
 217        6D+1        0.00000  -0.00439   0.00358  -0.02360   0.00002
 218        6D-1       -0.00000   0.00927   0.00215   0.00077  -0.00363
 219        6D+2        0.01234  -0.00000  -0.00000  -0.00000  -0.00000
 220        6D-2        0.00786   0.00000  -0.00000  -0.00000   0.00000
 221 11  C  1S         -0.00233  -0.00000   0.00000   0.00000  -0.00000
 222        2S         -0.00388  -0.00000   0.00000   0.00000  -0.00000
 223        2PX        -0.06661  -0.00000   0.00000   0.00000  -0.00000
 224        2PY        -0.06004  -0.00000   0.00000   0.00000  -0.00000
 225        2PZ        -0.00000  -0.00094  -0.11875  -0.05319   0.01334
 226        3S          0.01140   0.00000  -0.00000   0.00000   0.00000
 227        3PX        -0.09868  -0.00000   0.00001   0.00000  -0.00001
 228        3PY        -0.08911  -0.00000   0.00000   0.00000  -0.00000
 229        3PZ        -0.00001  -0.00340  -0.19329  -0.08939   0.02147
 230        4S          0.02202   0.00000  -0.00001  -0.00000   0.00001
 231        4PX        -0.09713  -0.00000   0.00001   0.00000   0.00000
 232        4PY        -0.06220  -0.00000   0.00001   0.00000  -0.00000
 233        4PZ        -0.00000   0.01147  -0.18669  -0.07388   0.01964
 234        5S         -0.01759   0.00000  -0.00010  -0.00005  -0.00011
 235        5PX        -0.08634   0.00001   0.00004   0.00002   0.00003
 236        5PY        -0.20037   0.00003  -0.00008  -0.00005  -0.00012
 237        5PZ         0.00000   0.01296   0.07287  -0.01156  -0.04624
 238        6D 0        0.00036  -0.00000  -0.00000  -0.00000   0.00000
 239        6D+1        0.00000   0.00993  -0.01517   0.00486   0.00753
 240        6D-1        0.00000  -0.01232   0.00564  -0.01289   0.00213
 241        6D+2        0.00914  -0.00000  -0.00000  -0.00000  -0.00000
 242        6D-2        0.01478   0.00000  -0.00000  -0.00000   0.00000
 243 12  C  1S          0.00206  -0.00000  -0.00000  -0.00000   0.00000
 244        2S          0.00345  -0.00000  -0.00000  -0.00000   0.00000
 245        2PX         0.06081   0.00000  -0.00000  -0.00000   0.00000
 246        2PY         0.05284   0.00000  -0.00000  -0.00000   0.00000
 247        2PZ         0.00000  -0.08202   0.00519  -0.10571   0.00193
 248        3S         -0.00998   0.00000   0.00000   0.00000  -0.00000
 249        3PX         0.08829   0.00000  -0.00000   0.00000   0.00000
 250        3PY         0.07735   0.00000  -0.00000  -0.00000   0.00000
 251        3PZ         0.00000  -0.13429   0.00762  -0.17366   0.00046
 252        4S          0.01186  -0.00000   0.00000  -0.00000   0.00000
 253        4PX         0.09732   0.00000  -0.00001  -0.00000  -0.00001
 254        4PY         0.08121  -0.00000  -0.00000   0.00000   0.00000
 255        4PZ         0.00000  -0.12186   0.01449  -0.17355   0.01393
 256        5S          0.13987  -0.00002   0.00012   0.00007   0.00015
 257        5PX         0.22306  -0.00002  -0.00004  -0.00001   0.00000
 258        5PY        -0.13412   0.00001  -0.00006  -0.00004  -0.00008
 259        5PZ        -0.00000   0.01901  -0.06735   0.02033   0.04894
 260        6D 0        0.00013  -0.00000  -0.00000  -0.00000  -0.00000
 261        6D+1        0.00000   0.01242   0.01291  -0.00034  -0.00525
 262        6D-1        0.00000  -0.00542   0.01853   0.00197  -0.00311
 263        6D+2        0.01030   0.00000  -0.00000  -0.00000   0.00000
 264        6D-2        0.01443   0.00000  -0.00000  -0.00000   0.00000
 265 13  C  1S         -0.00133   0.00000  -0.00000  -0.00000   0.00000
 266        2S         -0.00225   0.00000  -0.00000  -0.00000   0.00000
 267        2PX        -0.07776  -0.00000   0.00000  -0.00000  -0.00000
 268        2PY        -0.05643   0.00000  -0.00000   0.00000   0.00000
 269        2PZ        -0.00000   0.00961   0.03653   0.05256   0.11976
 270        3S          0.00751  -0.00000   0.00000   0.00000  -0.00000
 271        3PX        -0.11422  -0.00000   0.00000  -0.00000  -0.00001
 272        3PY        -0.08100   0.00000  -0.00000   0.00000   0.00000
 273        3PZ        -0.00000   0.01556   0.05938   0.08706   0.19532
 274        4S          0.01278  -0.00000  -0.00000  -0.00000  -0.00002
 275        4PX        -0.11221  -0.00000  -0.00000  -0.00000  -0.00002
 276        4PY        -0.08636   0.00000   0.00000   0.00000   0.00001
 277        4PZ        -0.00000   0.02610   0.06181   0.06691   0.20735
 278        5S          0.10905   0.00000  -0.00010  -0.00005  -0.00010
 279        5PX        -0.08568   0.00002  -0.00001  -0.00001  -0.00003
 280        5PY         0.18500  -0.00002  -0.00012  -0.00007  -0.00010
 281        5PZ         0.00000   0.01850   0.00478   0.02168  -0.06518
 282        6D 0       -0.00027   0.00000   0.00000  -0.00000  -0.00000
 283        6D+1       -0.00000  -0.00915  -0.00022   0.00711  -0.01356
 284        6D-1        0.00000  -0.00847  -0.00651   0.01554  -0.00181
 285        6D+2        0.01032  -0.00000  -0.00000  -0.00000  -0.00000
 286        6D-2        0.01449   0.00000  -0.00000   0.00000   0.00000
 287 14  C  1S          0.00361  -0.00000   0.00000  -0.00000  -0.00000
 288        2S          0.00611  -0.00000   0.00000  -0.00000  -0.00000
 289        2PX         0.06221   0.00000  -0.00000  -0.00000   0.00000
 290        2PY         0.04997  -0.00000   0.00000  -0.00000  -0.00000
 291        2PZ         0.00000  -0.04515  -0.01778   0.11634   0.00826
 292        3S         -0.01779  -0.00000  -0.00000   0.00000   0.00000
 293        3PX         0.09060   0.00000  -0.00000  -0.00000   0.00000
 294        3PY         0.07295  -0.00000   0.00000  -0.00000  -0.00000
 295        3PZ         0.00000  -0.07454  -0.02677   0.19055   0.01346
 296        4S         -0.00493   0.00000  -0.00000  -0.00000  -0.00000
 297        4PX         0.07107   0.00000   0.00001   0.00000   0.00001
 298        4PY         0.03181  -0.00000   0.00000   0.00000  -0.00000
 299        4PZ         0.00000  -0.06837  -0.03872   0.18671   0.01169
 300        5S         -0.18314   0.00001   0.00016   0.00008   0.00015
 301        5PX         0.26114  -0.00002  -0.00004  -0.00001  -0.00001
 302        5PY         0.15241  -0.00001  -0.00008  -0.00004  -0.00006
 303        5PZ        -0.00000   0.01100  -0.00129  -0.03333   0.07222
 304        6D 0       -0.00006   0.00000  -0.00000  -0.00000   0.00000
 305        6D+1        0.00000  -0.01247   0.00231  -0.00446   0.01438
 306        6D-1        0.00000  -0.00437  -0.00654  -0.00146  -0.02112
 307        6D+2        0.01145  -0.00000   0.00000   0.00000  -0.00000
 308        6D-2        0.01725   0.00000  -0.00000   0.00000   0.00000
 309 15  H  1S         -0.03772  -0.00000   0.00000   0.00000  -0.00000
 310        2S         -0.05303  -0.00000   0.00000  -0.00000  -0.00000
 311        3S         -0.02257   0.00000  -0.00000  -0.00000  -0.00000
 312        4S          0.00606  -0.00000   0.00001   0.00000   0.00001
 313        5PX         0.00330   0.00000  -0.00000  -0.00000   0.00000
 314        5PY        -0.00195  -0.00000  -0.00000  -0.00000   0.00000
 315        5PZ        -0.00000   0.00459  -0.00872   0.00270   0.00248
 316 16  H  1S         -0.02261  -0.00000   0.00000   0.00000  -0.00000
 317        2S         -0.03335  -0.00000   0.00000   0.00000  -0.00000
 318        3S         -0.01568   0.00000   0.00000   0.00000  -0.00000
 319        4S         -0.00708  -0.00000   0.00000   0.00000  -0.00000
 320        5PX        -0.00050   0.00000   0.00000  -0.00000  -0.00000
 321        5PY        -0.00375  -0.00000   0.00000   0.00000  -0.00000
 322        5PZ         0.00000   0.00636  -0.00077   0.00634   0.00123
 323 17  H  1S          0.05578   0.00000  -0.00000  -0.00000   0.00000
 324        2S          0.08154   0.00000  -0.00000  -0.00000   0.00000
 325        3S          0.03140  -0.00000  -0.00000   0.00000   0.00000
 326        4S          0.00474  -0.00000  -0.00000  -0.00000  -0.00000
 327        5PX        -0.00328  -0.00000   0.00000   0.00000  -0.00000
 328        5PY        -0.00165  -0.00000   0.00000   0.00000  -0.00000
 329        5PZ         0.00000   0.00464   0.00807   0.00400  -0.00183
 330 18  H  1S         -0.03333  -0.00000   0.00000   0.00000  -0.00000
 331        2S         -0.04974  -0.00000   0.00000   0.00000  -0.00000
 332        3S         -0.02585  -0.00000   0.00000   0.00000   0.00000
 333        4S         -0.01765  -0.00000   0.00000   0.00000   0.00000
 334        5PX        -0.00317  -0.00000   0.00000   0.00000  -0.00000
 335        5PY         0.00147   0.00000  -0.00000  -0.00000  -0.00000
 336        5PZ         0.00000  -0.00019   0.00896  -0.00218  -0.00225
 337 19  H  1S         -0.03276  -0.00000   0.00000   0.00000   0.00000
 338        2S         -0.04783  -0.00000   0.00000   0.00000  -0.00000
 339        3S         -0.02319   0.00000  -0.00000  -0.00000  -0.00000
 340        4S         -0.00269  -0.00000  -0.00000   0.00000  -0.00000
 341        5PX        -0.00374  -0.00000   0.00000  -0.00000  -0.00000
 342        5PY         0.00086   0.00000   0.00000   0.00000   0.00000
 343        5PZ         0.00000  -0.00646  -0.00037  -0.00060   0.00047
 344 20  H  1S         -0.03570   0.00000  -0.00000   0.00000   0.00000
 345        2S         -0.05245   0.00000  -0.00000   0.00000   0.00000
 346        3S         -0.02358   0.00000   0.00000   0.00000   0.00000
 347        4S          0.01453   0.00000   0.00000   0.00000   0.00000
 348        5PX        -0.00449  -0.00000   0.00000  -0.00000  -0.00000
 349        5PY         0.00239  -0.00000  -0.00000  -0.00000  -0.00000
 350        5PZ         0.00000   0.00068  -0.00292   0.00404  -0.00903
 351 21  H  1S         -0.03873  -0.00000   0.00000   0.00000  -0.00000
 352        2S         -0.05515  -0.00000   0.00000  -0.00000  -0.00000
 353        3S         -0.02227  -0.00000   0.00000   0.00000  -0.00000
 354        4S         -0.00594   0.00000  -0.00000  -0.00000  -0.00000
 355        5PX        -0.00007  -0.00000   0.00000  -0.00000  -0.00000
 356        5PY         0.00493   0.00000  -0.00000  -0.00000   0.00000
 357        5PZ         0.00000   0.00506  -0.00196  -0.00403  -0.00865
 358 22  H  1S          0.07609   0.00000  -0.00000  -0.00000   0.00000
 359        2S          0.11093   0.00000  -0.00000   0.00000   0.00000
 360        3S          0.04328  -0.00000  -0.00000   0.00000   0.00000
 361        4S          0.00814   0.00000   0.00000   0.00000   0.00000
 362        5PX         0.00424   0.00000   0.00000   0.00000   0.00000
 363        5PY         0.00292   0.00000  -0.00000  -0.00000   0.00000
 364        5PZ         0.00000   0.00665   0.00007  -0.00781   0.00030
 365 23  H  1S         -0.03306   0.00000   0.00000  -0.00000   0.00000
 366        2S         -0.04799   0.00000   0.00000  -0.00000   0.00000
 367        3S         -0.02072   0.00000  -0.00000  -0.00000  -0.00000
 368        4S         -0.01161   0.00000   0.00001   0.00000   0.00001
 369        5PX         0.00432   0.00000  -0.00000  -0.00000   0.00000
 370        5PY        -0.00162   0.00000   0.00000  -0.00000  -0.00000
 371        5PZ        -0.00000   0.00486   0.00233  -0.00461   0.00890
 372 24  H  1S         -0.02328  -0.00408   0.03154   0.00047  -0.04841
 373        2S         -0.03413   0.00290   0.04875   0.00036  -0.07751
 374        3S         -0.01451   0.02441   0.03828  -0.00033  -0.06538
 375        4S          0.00240   0.04456   0.02042  -0.00070  -0.03463
 376        5PX         0.00370  -0.00009  -0.00174  -0.00040  -0.00222
 377        5PY         0.00001   0.00080   0.00218   0.00002  -0.00258
 378        5PZ         0.00230   0.00016  -0.00089   0.00007   0.00138
 379 25  H  1S         -0.02328   0.00408  -0.03154  -0.00047   0.04841
 380        2S         -0.03412  -0.00290  -0.04876  -0.00036   0.07750
 381        3S         -0.01451  -0.02440  -0.03831   0.00031   0.06535
 382        4S          0.00240  -0.04456  -0.02044   0.00069   0.03460
 383        5PX         0.00370   0.00009   0.00174   0.00040   0.00222
 384        5PY         0.00000  -0.00081  -0.00218  -0.00002   0.00258
 385        5PZ        -0.00231   0.00016  -0.00089   0.00007   0.00138
                          48        49        50        51        52
                           V         V         V         V         V
     Eigenvalues --    -0.26149  -0.14751  -0.14043  -0.12799  -0.11192
   1 1   C  1S         -0.00000   0.00000  -0.00000   0.00000  -0.00755
   2        2S         -0.00000   0.00000  -0.00000   0.00000  -0.01280
   3        2PX        -0.00000  -0.00000  -0.00000  -0.00000   0.00363
   4        2PY         0.00000   0.00000  -0.00000   0.00000  -0.01741
   5        2PZ        -0.00560   0.08346  -0.01044   0.11871   0.00000
   6        3S          0.00000  -0.00000   0.00000  -0.00000   0.04105
   7        3PX        -0.00000   0.00000   0.00000   0.00000   0.00333
   8        3PY         0.00000   0.00000  -0.00000   0.00000  -0.02526
   9        3PZ        -0.00781   0.12844  -0.01589   0.18893   0.00000
  10        4S         -0.00000  -0.00001   0.00001   0.00000   0.05521
  11        4PX        -0.00000  -0.00001  -0.00000  -0.00001   0.02660
  12        4PY        -0.00000  -0.00000   0.00001   0.00000  -0.08660
  13        4PZ        -0.00553   0.24739  -0.04725   0.34871   0.00000
  14        5S         -0.00001   0.00007   0.00019   0.00017  -1.97792
  15        5PX         0.00002  -0.00015  -0.00027  -0.00023   1.29009
  16        5PY         0.00000  -0.00002  -0.00003  -0.00003  -0.52244
  17        5PZ         0.01193   0.18538  -0.06277   0.40661   0.00002
  18        6D 0       -0.00000  -0.00000   0.00000  -0.00000  -0.00636
  19        6D+1        0.02171  -0.00149  -0.02727   0.00455  -0.00000
  20        6D-1       -0.00184  -0.00817   0.00034  -0.01048   0.00000
  21        6D+2       -0.00000  -0.00000  -0.00000  -0.00000   0.00205
  22        6D-2       -0.00000  -0.00000  -0.00000  -0.00000  -0.00177
  23 2   C  1S          0.00000   0.00000   0.00000   0.00000  -0.00653
  24        2S          0.00000   0.00000   0.00000   0.00000  -0.01089
  25        2PX         0.00000  -0.00000   0.00000  -0.00000   0.01083
  26        2PY         0.00000   0.00000  -0.00000  -0.00000  -0.00203
  27        2PZ         0.10577  -0.04772  -0.09594  -0.04689  -0.00000
  28        3S         -0.00000  -0.00000  -0.00000  -0.00000   0.03222
  29        3PX         0.00000  -0.00000   0.00000  -0.00000   0.01713
  30        3PY         0.00000   0.00000  -0.00000  -0.00000  -0.00499
  31        3PZ         0.17311  -0.07493  -0.15260  -0.07371  -0.00000
  32        4S          0.00000   0.00001  -0.00001   0.00000   0.14001
  33        4PX        -0.00000  -0.00000   0.00000  -0.00000   0.01138
  34        4PY         0.00000  -0.00000  -0.00000  -0.00000   0.00895
  35        4PZ         0.20493  -0.13419  -0.25937  -0.13438  -0.00000
  36        5S          0.00000   0.00006   0.00009   0.00008   0.10178
  37        5PX         0.00000  -0.00003  -0.00007  -0.00006   0.45814
  38        5PY         0.00002  -0.00007  -0.00015  -0.00012   0.48604
  39        5PZ         0.06640  -0.11185  -0.22143  -0.14341  -0.00001
  40        6D 0       -0.00000  -0.00000   0.00000  -0.00000  -0.00454
  41        6D+1        0.00233  -0.01077   0.00228  -0.01643  -0.00000
  42        6D-1        0.00023  -0.01326   0.01743  -0.02198  -0.00000
  43        6D+2        0.00000   0.00000  -0.00000   0.00000  -0.00250
  44        6D-2       -0.00000  -0.00000   0.00000  -0.00000   0.00524
  45 3   C  1S          0.00000   0.00000  -0.00000   0.00000  -0.00561
  46        2S          0.00000   0.00000  -0.00000   0.00000  -0.00933
  47        2PX        -0.00000   0.00000  -0.00000  -0.00000   0.01114
  48        2PY         0.00000   0.00000  -0.00000   0.00000   0.00217
  49        2PZ         0.00558  -0.04157   0.10694  -0.07258   0.00000
  50        3S         -0.00000  -0.00000   0.00000  -0.00000   0.02753
  51        3PX        -0.00000  -0.00000  -0.00000  -0.00000   0.01798
  52        3PY         0.00000   0.00000   0.00000   0.00000   0.00442
  53        3PZ         0.01169  -0.06527   0.17014  -0.11422   0.00000
  54        4S         -0.00000  -0.00000   0.00001   0.00000   0.10546
  55        4PX         0.00000   0.00000  -0.00000  -0.00000   0.02468
  56        4PY         0.00000   0.00000  -0.00000  -0.00000   0.02455
  57        4PZ         0.00484  -0.12683   0.29481  -0.21675   0.00000
  58        5S         -0.00003   0.00009   0.00016   0.00011   0.39141
  59        5PX         0.00000   0.00001   0.00003   0.00003   0.01820
  60        5PY         0.00001  -0.00004  -0.00011  -0.00008   0.54414
  61        5PZ        -0.00066  -0.09732   0.24169  -0.22897   0.00000
  62        6D 0       -0.00000  -0.00000   0.00000   0.00000  -0.00471
  63        6D+1        0.01128  -0.00965   0.00095  -0.01507  -0.00000
  64        6D-1       -0.01840   0.01351   0.01373   0.01751   0.00000
  65        6D+2       -0.00000  -0.00000   0.00000   0.00000  -0.00346
  66        6D-2       -0.00000   0.00000  -0.00000   0.00000  -0.00487
  67 4   C  1S          0.00000   0.00000  -0.00000   0.00000  -0.00794
  68        2S          0.00000   0.00000  -0.00000   0.00000  -0.01339
  69        2PX         0.00000   0.00000  -0.00000   0.00000   0.00363
  70        2PY         0.00000   0.00000  -0.00000  -0.00000   0.02004
  71        2PZ        -0.08852   0.07772  -0.00536   0.11238   0.00000
  72        3S         -0.00000  -0.00000   0.00000  -0.00000   0.04072
  73        3PX         0.00000   0.00000  -0.00000   0.00000   0.00374
  74        3PY         0.00000   0.00000  -0.00000  -0.00000   0.02761
  75        3PZ        -0.14380   0.11925  -0.00761   0.17853   0.00000
  76        4S          0.00000  -0.00000  -0.00001  -0.00000   0.21062
  77        4PX         0.00000   0.00000   0.00000   0.00000  -0.04935
  78        4PY        -0.00000   0.00000   0.00001   0.00000   0.05290
  79        4PZ        -0.16981   0.24623  -0.02065   0.32768   0.00000
  80        5S          0.00000   0.00000  -0.00017  -0.00009   1.45858
  81        5PX        -0.00000   0.00003   0.00012   0.00009  -0.97079
  82        5PY        -0.00000   0.00000   0.00002   0.00001   0.78580
  83        5PZ        -0.04492   0.25011   0.03791   0.39540   0.00000
  84        6D 0       -0.00000  -0.00000   0.00000   0.00000  -0.00612
  85        6D+1        0.00008  -0.00280   0.03065  -0.00545   0.00000
  86        6D-1        0.00343   0.00697   0.00018   0.01127   0.00000
  87        6D+2       -0.00000  -0.00000   0.00000  -0.00000   0.00225
  88        6D-2        0.00000   0.00000  -0.00000   0.00000   0.00237
  89 5   C  1S         -0.00000  -0.00000   0.00000  -0.00000  -0.00531
  90        2S         -0.00000  -0.00000   0.00000  -0.00000  -0.00892
  91        2PX         0.00000   0.00000   0.00000   0.00000  -0.00406
  92        2PY        -0.00000  -0.00000  -0.00000  -0.00000   0.01445
  93        2PZ        -0.06737   0.08597  -0.06049  -0.10012  -0.00000
  94        3S          0.00000   0.00000  -0.00000  -0.00000   0.02622
  95        3PX         0.00000   0.00000  -0.00000   0.00000  -0.00433
  96        3PY        -0.00000  -0.00000   0.00000  -0.00000   0.01938
  97        3PZ        -0.10885   0.13079  -0.09585  -0.15920  -0.00000
  98        4S          0.00000  -0.00001  -0.00001  -0.00000   0.19525
  99        4PX         0.00000   0.00000  -0.00000  -0.00000   0.04596
 100        4PY        -0.00000   0.00000   0.00001   0.00000   0.01559
 101        4PZ        -0.12285   0.24751  -0.18004  -0.26488  -0.00000
 102        5S          0.00001  -0.00002  -0.00001  -0.00000   1.83319
 103        5PX         0.00001  -0.00001  -0.00005  -0.00004   0.71281
 104        5PY         0.00000   0.00000   0.00001   0.00000   0.50165
 105        5PZ        -0.02608   0.21468  -0.20271  -0.27448  -0.00000
 106        6D 0        0.00000   0.00000  -0.00000   0.00000  -0.00511
 107        6D+1       -0.00225   0.01697   0.01850  -0.00501   0.00000
 108        6D-1        0.00370   0.00710  -0.00237  -0.00745  -0.00000
 109        6D+2        0.00000   0.00000  -0.00000  -0.00000   0.00029
 110        6D-2        0.00000   0.00000  -0.00000  -0.00000  -0.00208
 111 6   C  1S         -0.00000  -0.00000   0.00000   0.00000  -0.00321
 112        2S         -0.00000  -0.00000   0.00000   0.00000  -0.00530
 113        2PX         0.00000   0.00000   0.00000  -0.00000  -0.00575
 114        2PY        -0.00000  -0.00000   0.00000   0.00000  -0.00004
 115        2PZ         0.01451  -0.10322  -0.04424   0.06911   0.00000
 116        3S          0.00000   0.00000  -0.00000  -0.00000   0.01495
 117        3PX         0.00000   0.00000   0.00000   0.00000  -0.01093
 118        3PY        -0.00000  -0.00000   0.00000   0.00000   0.00076
 119        3PZ         0.02443  -0.16168  -0.07045   0.10813   0.00000
 120        4S          0.00000   0.00001   0.00001   0.00000   0.05091
 121        4PX         0.00000   0.00000   0.00000   0.00000  -0.01066
 122        4PY        -0.00000  -0.00000  -0.00000  -0.00000   0.01939
 123        4PZ         0.01863  -0.27136  -0.12128   0.18013   0.00000
 124        5S          0.00000   0.00005   0.00030   0.00021   0.06343
 125        5PX         0.00000   0.00000  -0.00001  -0.00001   0.00397
 126        5PY         0.00000  -0.00002  -0.00011  -0.00008   0.29220
 127        5PZ         0.00418  -0.20101  -0.08676   0.17405  -0.00000
 128        6D 0        0.00000   0.00000   0.00000  -0.00000  -0.00336
 129        6D+1       -0.00826   0.00970  -0.00858  -0.01304  -0.00000
 130        6D-1       -0.01155   0.00577  -0.01852  -0.01221  -0.00000
 131        6D+2        0.00000   0.00000   0.00000   0.00000  -0.00189
 132        6D-2       -0.00000   0.00000  -0.00000  -0.00000   0.00288
 133 7   C  1S         -0.00000   0.00000   0.00000   0.00000  -0.00385
 134        2S         -0.00000   0.00000   0.00000   0.00000  -0.00636
 135        2PX         0.00000  -0.00000  -0.00000   0.00000  -0.00504
 136        2PY        -0.00000   0.00000   0.00000  -0.00000  -0.00023
 137        2PZ         0.06568  -0.00105   0.09842   0.03349   0.00000
 138        3S          0.00000  -0.00000  -0.00000  -0.00000   0.01801
 139        3PX         0.00000  -0.00000   0.00000   0.00000  -0.00889
 140        3PY        -0.00000   0.00000  -0.00000  -0.00000  -0.00185
 141        3PZ         0.10769  -0.00026   0.15658   0.05264   0.00000
 142        4S         -0.00000  -0.00001   0.00000   0.00000   0.09591
 143        4PX        -0.00000  -0.00001  -0.00000  -0.00000   0.00826
 144        4PY         0.00000  -0.00000  -0.00000  -0.00000   0.01176
 145        4PZ         0.12344  -0.00914   0.25875   0.09075   0.00000
 146        5S         -0.00001  -0.00003  -0.00003  -0.00001   0.71976
 147        5PX        -0.00000  -0.00000   0.00003   0.00003  -0.08715
 148        5PY         0.00000  -0.00002  -0.00017  -0.00012   0.28243
 149        5PZ         0.03797  -0.00336   0.20379   0.10215   0.00001
 150        6D 0        0.00000   0.00000  -0.00000   0.00000  -0.00305
 151        6D+1       -0.00162   0.01261  -0.00467  -0.01298  -0.00000
 152        6D-1        0.00171  -0.02383  -0.00494   0.01860   0.00000
 153        6D+2       -0.00000  -0.00000   0.00000   0.00000  -0.00199
 154        6D-2       -0.00000  -0.00000   0.00000   0.00000  -0.00323
 155 8   C  1S         -0.00000  -0.00000   0.00000   0.00000  -0.00504
 156        2S         -0.00000  -0.00000   0.00000   0.00000  -0.00855
 157        2PX        -0.00000   0.00000   0.00000   0.00000  -0.00351
 158        2PY        -0.00000  -0.00000   0.00000   0.00000  -0.01382
 159        2PZ        -0.00520   0.10315  -0.02955  -0.09571  -0.00000
 160        3S          0.00000   0.00000  -0.00000  -0.00000   0.02841
 161        3PX        -0.00000   0.00000  -0.00000  -0.00000  -0.00356
 162        3PY        -0.00000  -0.00000   0.00000   0.00000  -0.02036
 163        3PZ        -0.00848   0.15835  -0.04475  -0.15094  -0.00000
 164        4S          0.00000   0.00001   0.00000   0.00001   0.01049
 165        4PX        -0.00000  -0.00001   0.00001   0.00001  -0.02510
 166        4PY         0.00000   0.00000   0.00000   0.00000  -0.07499
 167        4PZ        -0.00933   0.28978  -0.08197  -0.26152  -0.00000
 168        5S         -0.00001   0.00004   0.00029   0.00022  -1.51548
 169        5PX        -0.00001   0.00002   0.00030   0.00022  -0.57966
 170        5PY         0.00000   0.00000  -0.00002  -0.00001  -0.42893
 171        5PZ         0.00806   0.21690  -0.02921  -0.31038  -0.00002
 172        6D 0        0.00000   0.00000   0.00000  -0.00000  -0.00486
 173        6D+1       -0.01379  -0.01133  -0.02165   0.00356  -0.00000
 174        6D-1       -0.00185  -0.00858   0.00315   0.00730  -0.00000
 175        6D+2        0.00000   0.00000  -0.00000  -0.00000   0.00130
 176        6D-2       -0.00000   0.00000   0.00000   0.00000   0.00091
 177 9   C  1S         -0.00000   0.00000   0.00000  -0.00000  -0.01381
 178        2S         -0.00000   0.00000   0.00000  -0.00000  -0.02323
 179        2PX        -0.00000   0.00000  -0.00000   0.00000  -0.00209
 180        2PY        -0.00000   0.00000   0.00000   0.00000  -0.03059
 181        2PZ         0.02863  -0.01270   0.00610  -0.00228   0.00000
 182        3S          0.00000   0.00000  -0.00000   0.00000   0.06081
 183        3PX        -0.00000   0.00000  -0.00000   0.00000  -0.00345
 184        3PY         0.00000   0.00000   0.00000   0.00000  -0.04629
 185        3PZ         0.03828  -0.01960   0.00863  -0.00353   0.00000
 186        4S          0.00000  -0.00002  -0.00009  -0.00003   0.42668
 187        4PX         0.00001  -0.00001   0.00001   0.00000  -0.02064
 188        4PY        -0.00000   0.00000   0.00002   0.00001  -0.02470
 189        4PZ         0.07536  -0.10040   0.05613  -0.00195   0.00000
 190        5S          0.00002  -0.00009  -0.00030  -0.00025   0.87275
 191        5PX         0.00002  -0.00005  -0.00003  -0.00002   0.38434
 192        5PY         0.00000  -0.00001  -0.00004  -0.00004  -0.46713
 193        5PZ         0.12928  -0.40619   0.19179  -0.02867   0.00001
 194        6D 0        0.00000   0.00000   0.00000  -0.00000  -0.00867
 195        6D+1       -0.00334   0.00693   0.02294  -0.01394   0.00000
 196        6D-1       -0.01930  -0.02872   0.00561  -0.00262  -0.00000
 197        6D+2       -0.00000  -0.00000   0.00000   0.00000   0.00245
 198        6D-2       -0.00000  -0.00000   0.00000  -0.00000   0.00055
 199 10  C  1S         -0.00000  -0.00000   0.00000   0.00000  -0.01041
 200        2S         -0.00000  -0.00000   0.00000   0.00000  -0.01772
 201        2PX         0.00000   0.00000  -0.00000   0.00000  -0.00156
 202        2PY        -0.00000   0.00000   0.00000  -0.00000   0.02330
 203        2PZ         0.17003   0.02124   0.03038   0.01429   0.00000
 204        3S          0.00000  -0.00000  -0.00000  -0.00000   0.05893
 205        3PX         0.00000   0.00000  -0.00000   0.00000  -0.00247
 206        3PY         0.00000  -0.00000  -0.00000  -0.00000   0.03266
 207        3PZ         0.27657   0.03183   0.04997   0.02251   0.00000
 208        4S         -0.00000   0.00001   0.00003   0.00001   0.06890
 209        4PX         0.00000   0.00000  -0.00000  -0.00000   0.00811
 210        4PY         0.00000  -0.00000  -0.00001  -0.00000   0.20332
 211        4PZ         0.34294   0.08638   0.08345   0.05005   0.00000
 212        5S          0.00001  -0.00007  -0.00024  -0.00019   1.56926
 213        5PX        -0.00001  -0.00003   0.00007   0.00003   0.38216
 214        5PY         0.00000  -0.00000  -0.00002  -0.00000   1.91905
 215        5PZ         0.09662   0.33268   0.00913   0.10748   0.00000
 216        6D 0        0.00000  -0.00000  -0.00000  -0.00000  -0.00739
 217        6D+1        0.00120  -0.00716  -0.02966  -0.00626  -0.00000
 218        6D-1        0.00076   0.01304  -0.00081   0.00341   0.00000
 219        6D+2       -0.00000   0.00000   0.00000  -0.00000   0.00099
 220        6D-2       -0.00000  -0.00000   0.00000   0.00000  -0.00032
 221 11  C  1S          0.00000   0.00000  -0.00000   0.00000  -0.00665
 222        2S          0.00000   0.00000  -0.00000   0.00000  -0.01142
 223        2PX         0.00000   0.00000  -0.00000   0.00000   0.00151
 224        2PY         0.00000   0.00000  -0.00000   0.00000   0.00988
 225        2PZ        -0.09863  -0.04442   0.10711  -0.08214   0.00000
 226        3S         -0.00000  -0.00001   0.00000  -0.00000   0.04490
 227        3PX         0.00000   0.00000  -0.00000   0.00000   0.00157
 228        3PY         0.00000   0.00000  -0.00000   0.00000   0.01516
 229        3PZ        -0.15893  -0.06865   0.16789  -0.13366   0.00000
 230        4S         -0.00001  -0.00001   0.00001  -0.00000   0.01382
 231        4PX         0.00001   0.00000  -0.00002  -0.00001   0.10266
 232        4PY         0.00001  -0.00000  -0.00001   0.00000  -0.00985
 233        4PZ        -0.20826  -0.11519   0.31340  -0.23911   0.00000
 234        5S         -0.00003   0.00007   0.00044   0.00029  -4.12900
 235        5PX         0.00001  -0.00000  -0.00019  -0.00013   1.27776
 236        5PY        -0.00002   0.00018   0.00036   0.00030  -2.33589
 237        5PZ        -0.12500   0.14881   0.30706  -0.25411   0.00000
 238        6D 0       -0.00000  -0.00000   0.00000  -0.00000  -0.00809
 239        6D+1       -0.00437   0.01521  -0.00476   0.01679   0.00000
 240        6D-1       -0.00337  -0.01768  -0.01655  -0.01910  -0.00000
 241        6D+2       -0.00000  -0.00000   0.00000  -0.00000  -0.00571
 242        6D-2       -0.00000   0.00000  -0.00000   0.00000   0.00136
 243 12  C  1S         -0.00000  -0.00000   0.00000  -0.00000  -0.00728
 244        2S         -0.00000  -0.00000   0.00000  -0.00000  -0.01241
 245        2PX        -0.00000  -0.00000   0.00000   0.00000   0.00196
 246        2PY        -0.00000  -0.00000   0.00000  -0.00000  -0.01038
 247        2PZ        -0.01053  -0.04177  -0.11679  -0.05391  -0.00000
 248        3S          0.00000   0.00000  -0.00000   0.00000   0.04277
 249        3PX        -0.00000  -0.00000  -0.00000  -0.00000   0.00536
 250        3PY        -0.00000  -0.00000   0.00000  -0.00000  -0.01440
 251        3PZ        -0.01824  -0.05960  -0.18744  -0.08989  -0.00000
 252        4S          0.00000   0.00000  -0.00000  -0.00000   0.16695
 253        4PX        -0.00000   0.00001   0.00002   0.00001  -0.12211
 254        4PY        -0.00000  -0.00001   0.00000   0.00000  -0.09200
 255        4PZ        -0.02283  -0.15918  -0.33825  -0.14630  -0.00001
 256        5S          0.00004  -0.00016  -0.00054  -0.00040   4.84016
 257        5PX         0.00000  -0.00004   0.00014   0.00006  -0.27685
 258        5PY        -0.00001   0.00011   0.00030   0.00023  -4.17736
 259        5PZ         0.01263  -0.39705  -0.36188  -0.21302  -0.00001
 260        6D 0        0.00000   0.00000   0.00000   0.00000  -0.00887
 261        6D+1       -0.02762   0.01123  -0.00547   0.01322   0.00000
 262        6D-1        0.01779   0.01683  -0.01611   0.02308  -0.00000
 263        6D+2       -0.00000   0.00000  -0.00000   0.00000  -0.00513
 264        6D-2       -0.00000  -0.00000   0.00000  -0.00000  -0.00149
 265 13  C  1S         -0.00000  -0.00000   0.00000  -0.00000  -0.00537
 266        2S         -0.00000  -0.00000   0.00000  -0.00000  -0.00925
 267        2PX         0.00000   0.00000  -0.00000   0.00000  -0.00304
 268        2PY        -0.00000  -0.00000   0.00000  -0.00000   0.00901
 269        2PZ        -0.07580  -0.11283  -0.06665   0.06961  -0.00000
 270        3S          0.00000   0.00000  -0.00000   0.00000   0.03735
 271        3PX         0.00000   0.00000  -0.00000   0.00000  -0.00467
 272        3PY        -0.00000  -0.00000   0.00000  -0.00000   0.01244
 273        3PZ        -0.12217  -0.17493  -0.10429   0.11347  -0.00000
 274        4S          0.00001   0.00002   0.00001   0.00000  -0.03329
 275        4PX         0.00001   0.00001   0.00002   0.00001  -0.12862
 276        4PY        -0.00001  -0.00001  -0.00002  -0.00000   0.01612
 277        4PZ        -0.15711  -0.29894  -0.21845   0.18145  -0.00000
 278        5S         -0.00001   0.00012   0.00040   0.00028  -3.25558
 279        5PX        -0.00001   0.00006   0.00007   0.00008  -0.57349
 280        5PY        -0.00003   0.00005   0.00052   0.00036  -2.07511
 281        5PZ        -0.09442  -0.06322  -0.38148   0.25494  -0.00001
 282        6D 0        0.00000   0.00000   0.00000  -0.00000  -0.00733
 283        6D+1        0.00412  -0.01807   0.00553   0.01226   0.00000
 284        6D-1       -0.00543  -0.00904   0.01948   0.01218   0.00000
 285        6D+2        0.00000   0.00000   0.00000  -0.00000  -0.00547
 286        6D-2        0.00000   0.00000  -0.00000  -0.00000  -0.00150
 287 14  C  1S          0.00000   0.00000   0.00000   0.00000  -0.00606
 288        2S          0.00000   0.00000   0.00000   0.00000  -0.01031
 289        2PX        -0.00000  -0.00000  -0.00000  -0.00000  -0.00019
 290        2PY         0.00000   0.00000   0.00000   0.00000  -0.01037
 291        2PZ        -0.02239   0.01079   0.09564   0.03518   0.00000
 292        3S         -0.00000  -0.00000  -0.00000  -0.00000   0.03571
 293        3PX        -0.00000  -0.00000   0.00000   0.00000  -0.00302
 294        3PY         0.00000   0.00000   0.00000   0.00000  -0.01432
 295        3PZ        -0.03526   0.02258   0.14970   0.06135   0.00000
 296        4S          0.00000   0.00000   0.00000  -0.00000   0.11203
 297        4PX        -0.00000  -0.00001  -0.00003  -0.00001   0.15322
 298        4PY         0.00000   0.00000  -0.00000   0.00000  -0.07770
 299        4PZ        -0.04461   0.00408   0.29999   0.07978   0.00000
 300        5S          0.00003  -0.00016  -0.00067  -0.00049   5.16739
 301        5PX         0.00000  -0.00003   0.00013   0.00007   0.72561
 302        5PY        -0.00002   0.00004   0.00033   0.00022  -3.19501
 303        5PZ        -0.00828  -0.18054   0.43799   0.03563   0.00001
 304        6D 0       -0.00000  -0.00000   0.00000   0.00000  -0.00768
 305        6D+1        0.02445  -0.01226   0.01429   0.01454   0.00000
 306        6D-1        0.01460   0.02859   0.00841  -0.01765   0.00000
 307        6D+2        0.00000  -0.00000  -0.00000   0.00000  -0.00409
 308        6D-2       -0.00000  -0.00000   0.00000  -0.00000   0.00299
 309 15  H  1S          0.00000  -0.00000  -0.00000  -0.00000   0.00756
 310        2S          0.00000  -0.00000   0.00000  -0.00000   0.00262
 311        3S         -0.00000   0.00000   0.00000   0.00000  -0.07976
 312        4S          0.00000  -0.00001  -0.00003  -0.00002  -0.66035
 313        5PX        -0.00000  -0.00000   0.00000   0.00000   0.00038
 314        5PY        -0.00000  -0.00000   0.00000  -0.00000   0.00538
 315        5PZ         0.00013   0.01002  -0.00129   0.01379   0.00000
 316 16  H  1S          0.00000   0.00000  -0.00000   0.00000  -0.00094
 317        2S          0.00000   0.00000  -0.00000  -0.00000  -0.00911
 318        3S          0.00000   0.00000  -0.00000  -0.00000  -0.05187
 319        4S          0.00000   0.00000  -0.00000   0.00000  -0.49550
 320        5PX         0.00000   0.00000   0.00000   0.00000  -0.00306
 321        5PY         0.00000   0.00000  -0.00000  -0.00000   0.00246
 322        5PZ         0.00915  -0.00459  -0.01027  -0.00486  -0.00000
 323 17  H  1S         -0.00000   0.00000  -0.00000   0.00000  -0.00077
 324        2S         -0.00000   0.00000   0.00000   0.00000  -0.01288
 325        3S         -0.00000  -0.00000  -0.00000  -0.00000  -0.05659
 326        4S         -0.00000   0.00000   0.00000   0.00000  -0.47303
 327        5PX        -0.00000   0.00000  -0.00000   0.00000  -0.00273
 328        5PY         0.00000   0.00000  -0.00000   0.00000  -0.00227
 329        5PZ         0.00081  -0.00385   0.01127  -0.00760   0.00000
 330 18  H  1S          0.00000   0.00000  -0.00000   0.00000   0.00716
 331        2S          0.00000   0.00000  -0.00000  -0.00000  -0.00128
 332        3S          0.00000   0.00000  -0.00001  -0.00000  -0.07211
 333        4S          0.00000   0.00000  -0.00001  -0.00000  -0.84887
 334        5PX         0.00000   0.00000  -0.00000  -0.00000   0.00147
 335        5PY         0.00000   0.00000   0.00000   0.00000  -0.00595
 336        5PZ        -0.00661   0.00853  -0.00016   0.01353   0.00000
 337 19  H  1S          0.00000  -0.00000  -0.00000   0.00000   0.00909
 338        2S          0.00000  -0.00000   0.00000   0.00000  -0.00792
 339        3S         -0.00000   0.00000   0.00000   0.00000  -0.20536
 340        4S         -0.00000   0.00000   0.00001   0.00000  -1.71401
 341        5PX         0.00000   0.00000   0.00000   0.00000  -0.00064
 342        5PY         0.00000   0.00000  -0.00000   0.00000  -0.00660
 343        5PZ         0.01416   0.00561   0.00258   0.00249   0.00000
 344 20  H  1S         -0.00000  -0.00000  -0.00000  -0.00000   0.00725
 345        2S         -0.00000  -0.00000  -0.00000  -0.00000   0.00381
 346        3S         -0.00000  -0.00000  -0.00000  -0.00000  -0.03076
 347        4S         -0.00000  -0.00001  -0.00001  -0.00001  -0.54400
 348        5PX         0.00000   0.00000   0.00000   0.00000  -0.00169
 349        5PY        -0.00000  -0.00000   0.00000   0.00000  -0.00400
 350        5PZ        -0.00479   0.00909  -0.00598  -0.01112  -0.00000
 351 21  H  1S          0.00000  -0.00000  -0.00000   0.00000  -0.00061
 352        2S          0.00000   0.00000   0.00000   0.00000  -0.00907
 353        3S          0.00000   0.00000  -0.00000  -0.00000  -0.02598
 354        4S          0.00000   0.00000   0.00001   0.00001  -0.23547
 355        5PX         0.00000   0.00000  -0.00000   0.00000   0.00088
 356        5PY        -0.00000  -0.00000   0.00000   0.00000  -0.00130
 357        5PZ         0.00138  -0.00998  -0.00486   0.00712   0.00000
 358 22  H  1S         -0.00000  -0.00000   0.00000   0.00000  -0.00107
 359        2S         -0.00000  -0.00000  -0.00000  -0.00000  -0.00555
 360        3S         -0.00000  -0.00000  -0.00000  -0.00000  -0.02231
 361        4S         -0.00000  -0.00001  -0.00001  -0.00001  -0.25129
 362        5PX         0.00000   0.00000  -0.00000  -0.00000   0.00146
 363        5PY        -0.00000  -0.00000   0.00000  -0.00000   0.00133
 364        5PZ         0.00569   0.00037   0.01028   0.00344   0.00000
 365 23  H  1S          0.00000   0.00000  -0.00000  -0.00000   0.00651
 366        2S          0.00000   0.00000  -0.00000  -0.00000   0.00486
 367        3S          0.00000   0.00000   0.00000   0.00000  -0.07162
 368        4S          0.00000  -0.00000  -0.00003  -0.00002  -0.37146
 369        5PX        -0.00000  -0.00000  -0.00000  -0.00000  -0.00062
 370        5PY         0.00000   0.00000  -0.00000  -0.00000   0.00400
 371        5PZ         0.00012   0.01201  -0.00385  -0.01069  -0.00000
 372 24  H  1S          0.04199   0.03782  -0.00971   0.00265   0.00133
 373        2S          0.07365   0.09284  -0.03031   0.00475  -0.02108
[...]
 192        5PY         0.03658
 193        5PZ        -0.02819
 194        6D 0        0.00822
 195        6D+1        0.00853
 196        6D-1        0.01215
 197        6D+2        0.01210
 198        6D-2        0.01363
 199 10  C  1S          1.10550
 200        2S          0.88522
 201        2PX         0.24236
 202        2PY         0.24082
 203        2PZ         0.11509
 204        3S          0.79969
 205        3PX         0.55148
 206        3PY         0.54942
 207        3PZ         0.31146
 208        4S          0.41301
 209        4PX         0.15784
 210        4PY         0.34442
 211        4PZ         0.25649
 212        5S          0.02975
 213        5PX        -0.37515
 214        5PY         0.19807
 215        5PZ         0.04225
 216        6D 0        0.00298
 217        6D+1        0.01274
 218        6D-1        0.00360
 219        6D+2        0.02116
 220        6D-2        0.01509
 221 11  C  1S          1.10533
 222        2S          0.88546
 223        2PX         0.23893
 224        2PY         0.23147
 225        2PZ         0.14984
 226        3S          0.77092
 227        3PX         0.53760
 228        3PY         0.53137
 229        3PZ         0.39579
 230        4S          0.39415
 231        4PX         0.26129
 232        4PY         0.22609
 233        4PZ         0.31352
 234        5S          0.15945
 235        5PX        -0.26142
 236        5PY         0.61853
 237        5PZ         0.01086
 238        6D 0        0.00383
 239        6D+1        0.01091
 240        6D-1        0.00987
 241        6D+2        0.02296
 242        6D-2        0.02049
 243 12  C  1S          1.10521
 244        2S          0.88565
 245        2PX         0.23365
 246        2PY         0.22916
 247        2PZ         0.17363
 248        3S          0.75267
 249        3PX         0.52919
 250        3PY         0.52862
 251        3PZ         0.45785
 252        4S          0.38293
 253        4PX         0.16043
 254        4PY         0.19669
 255        4PZ         0.39647
 256        5S         -0.58787
 257        5PX        -0.46273
 258        5PY         0.30987
 259        5PZ        -0.05922
 260        6D 0        0.00447
 261        6D+1        0.00729
 262        6D-1        0.00808
 263        6D+2        0.02279
 264        6D-2        0.02203
 265 13  C  1S          1.10531
 266        2S          0.88559
 267        2PX         0.22604
 268        2PY         0.23678
 269        2PZ         0.15527
 270        3S          0.76468
 271        3PX         0.52809
 272        3PY         0.53101
 273        3PZ         0.40675
 274        4S          0.41768
 275        4PX         0.27453
 276        4PY         0.21188
 277        4PZ         0.33576
 278        5S          0.10995
 279        5PX        -0.30116
 280        5PY         0.62614
 281        5PZ         0.01719
 282        6D 0        0.00397
 283        6D+1        0.00886
 284        6D-1        0.01141
 285        6D+2        0.02020
 286        6D-2        0.02097
 287 14  C  1S          1.10520
 288        2S          0.88559
 289        2PX         0.22838
 290        2PY         0.23741
 291        2PZ         0.17532
 292        3S          0.75240
 293        3PX         0.52305
 294        3PY         0.53444
 295        3PZ         0.46231
 296        4S          0.36142
 297        4PX         0.14157
 298        4PY         0.19128
 299        4PZ         0.39443
 300        5S         -0.48511
 301        5PX        -0.47196
 302        5PY         0.29123
 303        5PZ        -0.06217
 304        6D 0        0.00444
 305        6D+1        0.00751
 306        6D-1        0.00990
 307        6D+2        0.02293
 308        6D-2        0.02290
 309 15  H  1S          0.27310
 310        2S          0.46332
 311        3S          0.03004
 312        4S         -0.03052
 313        5PX         0.00341
 314        5PY         0.01511
 315        5PZ         0.00454
 316 16  H  1S          0.27304
 317        2S          0.46095
 318        3S          0.00862
 319        4S         -0.02970
 320        5PX         0.01250
 321        5PY         0.00654
 322        5PZ         0.00357
 323 17  H  1S          0.27327
 324        2S          0.46267
 325        3S          0.01732
 326        4S         -0.02996
 327        5PX         0.01250
 328        5PY         0.00619
 329        5PZ         0.00442
 330 18  H  1S          0.27380
 331        2S          0.46475
 332        3S          0.03119
 333        4S         -0.01994
 334        5PX         0.00349
 335        5PY         0.01535
 336        5PZ         0.00421
 337 19  H  1S          0.27271
 338        2S          0.45415
 339        3S          0.01772
 340        4S          0.04277
 341        5PX         0.00339
 342        5PY         0.01637
 343        5PZ         0.00291
 344 20  H  1S          0.27335
 345        2S          0.46521
 346        3S          0.03898
 347        4S         -0.01961
 348        5PX         0.00343
 349        5PY         0.01488
 350        5PZ         0.00462
 351 21  H  1S          0.27303
 352        2S          0.46338
 353        3S          0.02231
 354        4S         -0.02712
 355        5PX         0.01149
 356        5PY         0.00681
 357        5PZ         0.00454
 358 22  H  1S          0.27385
 359        2S          0.46359
 360        3S          0.01635
 361        4S         -0.02683
 362        5PX         0.01261
 363        5PY         0.00640
 364        5PZ         0.00403
 365 23  H  1S          0.27376
 366        2S          0.46422
 367        3S          0.03600
 368        4S         -0.03260
 369        5PX         0.00330
 370        5PY         0.01459
 371        5PZ         0.00476
 372 24  H  1S          0.26277
 373        2S          0.42804
 374        3S          0.01148
 375        4S          0.02728
 376        5PX         0.00343
 377        5PY         0.00772
 378        5PZ         0.00918
 379 25  H  1S          0.26277
 380        2S          0.42804
 381        3S          0.01148
 382        4S          0.02728
 383        5PX         0.00343
 384        5PY         0.00772
 385        5PZ         0.00918
          Condensed to atoms (all electrons):
               1          2          3          4          5          6
     1  C    8.249947   0.525351  -0.633834   1.712610  -0.009288  -0.080205
     2  C    0.525351   7.216788   0.467116  -1.053401  -0.042485  -0.013246
     3  C   -0.633834   0.467116   6.641926   0.717528  -0.105645   0.016321
     4  C    1.712610  -1.053401   0.717528  11.993300  -0.378531  -0.150296
     5  C   -0.009288  -0.042485  -0.105645  -0.378531  10.142430   0.873322
     6  C   -0.080205  -0.013246   0.016321  -0.150296   0.873322   6.605306
     7  C   -0.033369  -0.001522  -0.013270   0.031602  -1.163254   0.127044
     8  C    0.402027   0.000684  -0.106790  -0.090619   2.210380  -0.330100
     9  C   -1.073384  -0.930206   0.284372   0.199858  -0.463082   0.309703
    10  C   -1.154820   0.145372  -0.233446  -2.786884  -2.279356  -0.493264
    11  C    0.378383  -0.685462   0.771754  -0.573539  -1.300862  -0.039959
    12  C   -1.792165   0.991273  -1.358977  -1.765796  -0.143899  -0.359397
    13  C    0.234628  -0.195900  -0.274155  -1.620069  -0.129813   1.253881
    14  C   -1.215493  -0.306918  -0.058041  -0.623267  -1.534860  -1.586752
    15  H    0.366813  -0.105719  -0.004072   0.025738   0.006358   0.001202
    16  H   -0.019351   0.380642  -0.022796   0.017782  -0.001624  -0.000344
    17  H   -0.016757  -0.025578   0.382276  -0.067791   0.000114   0.000401
    18  H    0.046434   0.003033  -0.084195   0.477758   0.005624  -0.005150
    19  H   -0.041230  -0.007082   0.048599  -0.094535  -0.049631   0.053571
    20  H    0.006552   0.002014  -0.005251   0.006289   0.443219  -0.083773
    21  H   -0.001249  -0.000400   0.000389   0.000368  -0.064237   0.364583
    22  H    0.000300   0.000292  -0.000299  -0.001253   0.009279  -0.013282
    23  H    0.007040  -0.002059   0.000984   0.003930   0.028258   0.004753
    24  H    0.038539   0.016096  -0.001393  -0.011301  -0.012378  -0.001719
    25  H    0.038517   0.016091  -0.001394  -0.011303  -0.012373  -0.001723
               7          8          9         10         11         12
     1  C   -0.033369   0.402027  -1.073384  -1.154820   0.378383  -1.792165
     2  C   -0.001522   0.000684  -0.930206   0.145372  -0.685462   0.991273
     3  C   -0.013270  -0.106790   0.284372  -0.233446   0.771754  -1.358977
     4  C    0.031602  -0.090619   0.199858  -2.786884  -0.573539  -1.765796
     5  C   -1.163254   2.210380  -0.463082  -2.279356  -1.300862  -0.143899
     6  C    0.127044  -0.330100   0.309703  -0.493264  -0.039959  -0.359397
     7  C    7.198332  -0.063618  -0.758786   0.391325  -0.365836  -0.015872
     8  C   -0.063618   8.995191  -1.130834  -1.380303   0.276896  -0.965199
     9  C   -0.758786  -1.130834   9.659209   0.206420   1.492781  -2.264850
    10  C    0.391325  -1.380303   0.206420   9.055886  -0.202942   2.356886
    11  C   -0.365836   0.276896   1.492781  -0.202942  14.749931  -4.113903
    12  C   -0.015872  -0.965199  -2.264850   2.356886  -4.113903  16.448143
    13  C   -1.115316   0.339832   1.444421  -0.663054   1.026795  -4.515144
    14  C    1.913949  -2.654210  -1.542024   2.505914  -4.866721   3.028048
    15  H   -0.002944   0.004421   0.088712  -0.007429  -0.033982  -0.006986
    16  H    0.000402   0.001218   0.002799  -0.010091   0.027358  -0.032862
    17  H   -0.000363  -0.001377  -0.004175   0.018308  -0.018869   0.076201
    18  H    0.002186   0.006995  -0.020269   0.004038  -0.011761  -0.045188
    19  H   -0.009266  -0.047356   0.071814   0.418804   0.076064  -0.105687
    20  H    0.003114   0.053010  -0.026643   0.020049  -0.012080  -0.000960
    21  H   -0.002384  -0.036742  -0.006663   0.020691  -0.006152   0.004669
    22  H    0.374282  -0.017090   0.003079  -0.007727   0.001743  -0.006671
    23  H   -0.110861   0.369993   0.093416  -0.011664   0.011269   0.002808
    24  H    0.011983   0.025698   0.356032   0.005295   0.028174  -0.058825
    25  H    0.011980   0.025684   0.356052   0.005298   0.028175  -0.058797
              13         14         15         16         17         18
     1  C    0.234628  -1.215493   0.366813  -0.019351  -0.016757   0.046434
     2  C   -0.195900  -0.306918  -0.105719   0.380642  -0.025578   0.003033
     3  C   -0.274155  -0.058041  -0.004072  -0.022796   0.382276  -0.084195
     4  C   -1.620069  -0.623267   0.025738   0.017782  -0.067791   0.477758
     5  C   -0.129813  -1.534860   0.006358  -0.001624   0.000114   0.005624
     6  C    1.253881  -1.586752   0.001202  -0.000344   0.000401  -0.005150
     7  C   -1.115316   1.913949  -0.002944   0.000402  -0.000363   0.002186
     8  C    0.339832  -2.654210   0.004421   0.001218  -0.001377   0.006995
     9  C    1.444421  -1.542024   0.088712   0.002799  -0.004175  -0.020269
    10  C   -0.663054   2.505914  -0.007429  -0.010091   0.018308   0.004038
    11  C    1.026795  -4.866721  -0.033982   0.027358  -0.018869  -0.011761
    12  C   -4.515144   3.028048  -0.006986  -0.032862   0.076201  -0.045188
    13  C   14.005692  -3.213398  -0.005023   0.003884  -0.006249  -0.012409
    14  C   -3.213398  15.688406   0.008285  -0.010982   0.005264  -0.029113
    15  H   -0.005023   0.008285   0.431529  -0.008501   0.001584   0.000291
    16  H    0.003884  -0.010982  -0.008501   0.412167  -0.006760   0.002011
    17  H   -0.006249   0.005264   0.001584  -0.006760   0.419114  -0.010255
    18  H   -0.012409  -0.029113   0.000291   0.002011  -0.010255   0.447411
    19  H    0.086084  -0.024910   0.000418  -0.000558   0.001742  -0.005906
    20  H   -0.003217  -0.067217  -0.000124   0.000020  -0.000168   0.001261
    21  H   -0.031828   0.103079   0.000018  -0.000007   0.000010  -0.000117
    22  H    0.022624  -0.028198  -0.000123   0.000007  -0.000006   0.000011
    23  H   -0.028502  -0.043575   0.000548  -0.000126   0.000010  -0.000103
    24  H   -0.003420  -0.057404  -0.001006   0.000612  -0.000130   0.000130
    25  H   -0.003427  -0.057389  -0.001005   0.000611  -0.000130   0.000130
              19         20         21         22         23         24
     1  C   -0.041230   0.006552  -0.001249   0.000300   0.007040   0.038539
     2  C   -0.007082   0.002014  -0.000400   0.000292  -0.002059   0.016096
     3  C    0.048599  -0.005251   0.000389  -0.000299   0.000984  -0.001393
     4  C   -0.094535   0.006289   0.000368  -0.001253   0.003930  -0.011301
     5  C   -0.049631   0.443219  -0.064237   0.009279   0.028258  -0.012378
     6  C    0.053571  -0.083773   0.364583  -0.013282   0.004753  -0.001719
     7  C   -0.009266   0.003114  -0.002384   0.374282  -0.110861   0.011983
     8  C   -0.047356   0.053010  -0.036742  -0.017090   0.369993   0.025698
     9  C    0.071814  -0.026643  -0.006663   0.003079   0.093416   0.356032
    10  C    0.418804   0.020049   0.020691  -0.007727  -0.011664   0.005295
    11  C    0.076064  -0.012080  -0.006152   0.001743   0.011269   0.028174
    12  C   -0.105687  -0.000960   0.004669  -0.006671   0.002808  -0.058825
    13  C    0.086084  -0.003217  -0.031828   0.022624  -0.028502  -0.003420
    14  C   -0.024910  -0.067217   0.103079  -0.028198  -0.043575  -0.057404
    15  H    0.000418  -0.000124   0.000018  -0.000123   0.000548  -0.001006
    16  H   -0.000558   0.000020  -0.000007   0.000007  -0.000126   0.000612
    17  H    0.001742  -0.000168   0.000010  -0.000006   0.000010  -0.000130
    18  H   -0.005906   0.001261  -0.000117   0.000011  -0.000103   0.000130
    19  H    0.444107  -0.006987   0.001112  -0.000507   0.000228   0.000572
    20  H   -0.006987   0.459349  -0.009870   0.001845  -0.000031   0.000234
    21  H    0.001112  -0.009870   0.424076  -0.005914   0.001308  -0.000147
    22  H   -0.000507   0.001845  -0.005914   0.425533  -0.009221   0.000643
    23  H    0.000228  -0.000031   0.001308  -0.009221   0.447084  -0.000734
    24  H    0.000572   0.000234  -0.000147   0.000643  -0.000734   0.492723
    25  H    0.000572   0.000234  -0.000147   0.000644  -0.000734  -0.078380
              25
     1  C    0.038517
     2  C    0.016091
     3  C   -0.001394
     4  C   -0.011303
     5  C   -0.012373
     6  C   -0.001723
     7  C    0.011980
     8  C    0.025684
     9  C    0.356052
    10  C    0.005298
    11  C    0.028175
    12  C   -0.058797
    13  C   -0.003427
    14  C   -0.057389
    15  H   -0.001005
    16  H    0.000611
    17  H   -0.000130
    18  H    0.000130
    19  H    0.000572
    20  H    0.000234
    21  H   -0.000147
    22  H    0.000644
    23  H   -0.000734
    24  H   -0.078380
    25  H    0.492712
 Mulliken charges:
               1
     1  C    0.064004
     2  C   -0.394773
     3  C   -0.427708
     4  C    0.041821
     5  C   -0.027666
     6  C   -0.450877
     7  C   -0.409538
     8  C    0.112209
     9  C   -0.347751
    10  C    0.076694
    11  C   -0.637256
    12  C    0.703148
    13  C   -0.596914
    14  C    0.667527
    15  H    0.240999
    16  H    0.264489
    17  H    0.253586
    18  H    0.227154
    19  H    0.189969
    20  H    0.219131
    21  H    0.245555
    22  H    0.250008
    23  H    0.235980
    24  H    0.250107
    25  H    0.250102
 Sum of Mulliken charges =   1.00000
 Mulliken charges with hydrogens summed into heavy atoms:
               1
     1  C    0.305003
     2  C   -0.130284
     3  C   -0.174122
     4  C    0.268975
     5  C    0.191465
     6  C   -0.205322
     7  C   -0.159530
     8  C    0.348189
     9  C    0.152457
    10  C    0.266663
    11  C   -0.637256
    12  C    0.703148
    13  C   -0.596914
    14  C    0.667527
 Electronic spatial extent (au):  <R**2>=           2868.4746
 Charge=              1.0000 electrons
 Dipole moment (field-independent basis, Debye):
    X=              1.5241    Y=              0.1444    Z=              0.0000  Tot=              1.5309
 Quadrupole moment (field-independent basis, Debye-Ang):
   XX=            -30.6365   YY=            -56.2163   ZZ=            -84.2484
   XY=              0.1232   XZ=              0.0002   YZ=             -0.0000
 Traceless Quadrupole moment (field-independent basis, Debye-Ang):
   XX=             26.3972   YY=              0.8174   ZZ=            -27.2147
   XY=              0.1232   XZ=              0.0002   YZ=             -0.0000
 Octapole moment (field-independent basis, Debye-Ang**2):
  XXX=             16.9383  YYY=              5.2576  ZZZ=              0.0000  XYY=              3.5731
  XXY=             -5.4969  XXZ=             -0.0000  XZZ=              2.2216  YZZ=             -3.1513
  YYZ=              0.0000  XYZ=             -0.0004
 Hexadecapole moment (field-independent basis, Debye-Ang**3):
 XXXX=          -2125.0938 YYYY=           -611.7383 ZZZZ=            -99.6511 XXXY=             -3.4813
 XXXZ=             -0.0007 YYYX=              1.3892 YYYZ=             -0.0001 ZZZX=             -0.0002
 ZZZY=             -0.0001 XXYY=           -508.9214 XXZZ=           -594.0469 YYZZ=           -146.4599
 XXYZ=              0.0001 YYXZ=              0.0008 ZZXY=              0.7106
 N-N= 7.795191128742D+02 E-N=-2.795308808282D+03  KE= 5.374064443476D+02
 Orbital energies and kinetic energies (alpha):
                                 1                 2
  43         O                -0.540269          1.563245
  44         O                -0.523372          1.039287
  45         O                -0.477233          1.142242
  46         O                -0.460820          1.147922
  47         O                -0.432943          1.151573
  48         V                -0.261493          1.268356
  49         V                -0.147509          1.113203
  50         V                -0.140434          1.303859
  51         V                -0.127993          1.275553
  52         V                -0.111917          0.204520
 Total kinetic energy from orbitals= 5.374064443476D+02
 Unable to Open any file for archive entry.
 1\1\GINC-GADI-CPU-CLX-0957\SP\RM062X\6-311++G(d,p)\C14H11(1+)\TS1578\1
 4-Jul-2022\0\\#n M062X/6-311++G(d,p) SP pop=reg formcheck\\SP_-17\\1,1
 \C,0,2.4669245507,1.3724512105,0.\C,0,3.6763018137,0.6684628149,0.\C,0
 ,3.6743629462,-0.7358851334,0.\C,0,2.5064048707,-1.4168903693,0.\C,0,-
 2.4314151293,-1.3879408412,0.\C,0,-3.7102882643,-0.6778116824,0.\C,0,-
 3.7432693968,0.6953196061,0.\C,0,-2.5291834756,1.3731487895,0.\C,0,-0.
 0144747641,1.4654592368,0.\C,0,0.054585556,-1.4243556053,0.\C,0,1.2827
 570538,0.7091293435,0.\C,0,1.2543371851,-0.7271222897,0.\C,0,-1.246308
 5515,0.6660538408,0.\C,0,-1.2269572097,-0.7196233156,0.\H,0,2.48525389
 41,2.4572580263,0.\H,0,4.6148769717,1.2103735782,0.\H,0,4.6161977103,-
 1.2699035002,0.\H,0,2.4920758432,-2.5003096061,0.\H,0,0.0465633976,-2.
 5072212105,0.\H,0,-2.4551041568,-2.4734528149,0.\H,0,-4.6231735002,-1.
 2629277103,0.\H,0,-4.6788798441,1.2351376323,0.\H,0,-2.5047861059,2.45
 8827579,0.\H,0,-0.0803959787,2.1568543947,-0.8632468158\H,0,-0.0805703
 734,2.1568543947,0.8632468158\\Version=ES64L-G16RevC.01\State=1-A\HF=-
 539.746124\RMSD=3.879e-09\Dipole=0.5990323,-0.0627113,-0.0000008\Quadr
 upole=19.6220381,0.6113889,-20.233427,-0.2790132,-0.0001183,-0.0000048
 \PG=C01 [X(C14H11)]\\@
 The archive entry for this job was punched.


 ...THOSE SCIENCES ARE VAIN AND FULL OF ERRORS WHICH 
 ARE NOT BORN FROM EXPERIMENT, THE MOTHER OF CERTAINTY...

                          -- LEONARDO DA VINCI, 1452-1519
 FChkPn:  Coordinates translated and rotated.
 FChkPn:  Coordinates match /B/ after translation and rotation.
 Job cpu time:       0 days  0 hours 20 minutes 22.3 seconds.
 Elapsed time:       0 days  0 hours  2 minutes 55.4 seconds.
 File lengths (MBytes):  RWF=     80 Int=      0 D2E=      0 Chk=     10 Scr=      1
 Normal termination of Gaussian 16 at Thu Jul 14 17:30:27 2022.
