 Entering Gaussian System, Link 0=g16
 Initial command:
 /apps/gaussian/g16c01/g16/l1.exe "/jobfs/51152907.gadi-pbs/Gau-356898.inp" -scrdir="/jobfs/51152907.gadi-pbs/"
 Entering Link 1 = /apps/gaussian/g16c01/g16/l1.exe PID=    356899.
  
 Copyright (c) 1988-2019, Gaussian, Inc.  All Rights Reserved.
  
 This is part of the Gaussian(R) 16 program.  It is based on
 the Gaussian(R) 09 system (copyright 2009, Gaussian, Inc.),
 the Gaussian(R) 03 system (copyright 2003, Gaussian, Inc.),
 the Gaussian(R) 98 system (copyright 1998, Gaussian, Inc.),
 the Gaussian(R) 94 system (copyright 1995, Gaussian, Inc.),
 the Gaussian 92(TM) system (copyright 1992, Gaussian, Inc.),
 the Gaussian 90(TM) system (copyright 1990, Gaussian, Inc.),
 the Gaussian 88(TM) system (copyright 1988, Gaussian, Inc.),
 the Gaussian 86(TM) system (copyright 1986, Carnegie Mellon
 University), and the Gaussian 82(TM) system (copyright 1983,
 Carnegie Mellon University). Gaussian is a federally registered
 trademark of Gaussian, Inc.
  
 This software contains proprietary and confidential information,
 including trade secrets, belonging to Gaussian, Inc.
  
 This software is provided under written license and may be
 used, copied, transmitted, or stored only in accord with that
 written license.
  
 The following legend is applicable only to US Government
 contracts under FAR:
  
                    RESTRICTED RIGHTS LEGEND
  
 Use, reproduction and disclosure by the US Government is
 subject to restrictions as set forth in subparagraphs (a)
 and (c) of the Commercial Computer Software - Restricted
 Rights clause in FAR 52.227-19.
  
 Gaussian, Inc.
 340 Quinnipiac St., Bldg. 40, Wallingford CT 06492
  
  
 ---------------------------------------------------------------
 Warning -- This program may not be used in any manner that
 competes with the business of Gaussian, Inc. or will provide
 assistance to any competitor of Gaussian, Inc.  The licensee
 of this program is prohibited from giving any competitor of
 Gaussian, Inc. access to this program.  By using this program,
 the user acknowledges that Gaussian, Inc. is engaged in the
 business of creating and licensing software in the field of
 computational chemistry and represents and warrants to the
 licensee that it is not a competitor of Gaussian, Inc. and that
 it will not use this program in any manner prohibited above.
 ---------------------------------------------------------------
  

 Cite this work as:
 Gaussian 16, Revision C.01,
 M. J. Frisch, G. W. Trucks, H. B. Schlegel, G. E. Scuseria, 
 M. A. Robb, J. R. Cheeseman, G. Scalmani, V. Barone, 
 G. A. Petersson, H. Nakatsuji, X. Li, M. Caricato, A. V. Marenich, 
 J. Bloino, B. G. Janesko, R. Gomperts, B. Mennucci, H. P. Hratchian, 
 J. V. Ortiz, A. F. Izmaylov, J. L. Sonnenberg, D. Williams-Young, 
 F. Ding, F. Lipparini, F. Egidi, J. Goings, B. Peng, A. Petrone, 
 T. Henderson, D. Ranasinghe, V. G. Zakrzewski, J. Gao, N. Rega, 
 G. Zheng, W. Liang, M. Hada, M. Ehara, K. Toyota, R. Fukuda, 
 J. Hasegawa, M. Ishida, T. Nakajima, Y. Honda, O. Kitao, H. Nakai, 
 T. Vreven, K. Throssell, J. A. Montgomery, Jr., J. E. Peralta, 
 F. Ogliaro, M. J. Bearpark, J. J. Heyd, E. N. Brothers, K. N. Kudin, 
 V. N. Staroverov, T. A. Keith, R. Kobayashi, J. Normand, 
 K. Raghavachari, A. P. Rendell, J. C. Burant, S. S. Iyengar, 
 J. Tomasi, M. Cossi, J. M. Millam, M. Klene, C. Adamo, R. Cammi, 
 J. W. Ochterski, R. L. Martin, K. Morokuma, O. Farkas, 
 J. B. Foresman, and D. J. Fox, Gaussian, Inc., Wallingford CT, 2019.
 
 ******************************************
 Gaussian 16:  ES64L-G16RevC.01  3-Jul-2019
                14-Jul-2022 
 ******************************************
 %NProcShared=8
 Will use up to    8 processors via shared memory.
 %mem = 32GB
 %Chk=check_sp_18
 -------------------------------------------
 #n M062X/6-311++G(d,p) SP pop=reg formcheck
 -------------------------------------------
 1/38=1,172=1/1;
 2/12=2,17=6,18=5,40=1/2;
 3/5=4,6=6,7=1111,11=2,25=1,30=1,74=-55/1,2,3;
 4//1;
 5/5=2,38=5/2;
 6/28=1/1;
 99/5=1,9=1/99;
 ------
 SP_-18
 ------
 Symbolic Z-matrix:
 Charge =  1 Multiplicity = 1
 C                     2.46507   1.37243   0. 
 C                     3.67432   0.66765   0. 
 C                     3.6733   -0.73758   0. 
 C                     2.50861  -1.41773   0. 
 C                    -2.42921  -1.38708   0. 
 C                    -3.71133  -0.67609   0. 
 C                    -3.74523   0.69609   0. 
 C                    -2.53099   1.37317   0. 
 C                    -0.01533   1.46539   0. 
 C                     0.0578   -1.42435   0. 
 C                     1.28382   0.71041   0. 
 C                     1.25515  -0.72734   0. 
 C                    -1.24523   0.6648    0. 
 C                    -1.22616  -0.7194    0. 
 H                     2.48468   2.45721   0. 
 H                     4.61298   1.20963   0. 
 H                     4.61598  -1.2701    0. 
 H                     2.49316  -2.50108   0. 
 H                     0.0493   -2.5072    0. 
 H                    -2.45402  -2.47264   0. 
 H                    -4.62337  -1.26271   0. 
 H                    -4.68075   1.23586   0. 
 H                    -2.50536   2.45887   0. 
 H                    -0.08513   2.15686  -0.86322 
 H                    -0.08531   2.15686   0.86322 
 
                          Input orientation:                          
 ---------------------------------------------------------------------
 Center     Atomic      Atomic             Coordinates (Angstroms)
 Number     Number       Type             X           Y           Z
 ---------------------------------------------------------------------
      1          6           0        2.465068    1.372431    0.000000
      2          6           0        3.674322    0.667652    0.000000
      3          6           0        3.673296   -0.737578    0.000000
      4          6           0        2.508610   -1.417732    0.000000
      5          6           0       -2.429210   -1.387079    0.000000
      6          6           0       -3.711335   -0.676088    0.000000
      7          6           0       -3.745229    0.696089    0.000000
      8          6           0       -2.530989    1.373169    0.000000
      9          6           0       -0.015326    1.465387    0.000000
     10          6           0        0.057796   -1.424345    0.000000
     11          6           0        1.283824    0.710412    0.000000
     12          6           0        1.255148   -0.727338    0.000000
     13          6           0       -1.245231    0.664802    0.000000
     14          6           0       -1.226157   -0.719398    0.000000
     15          1           0        2.484679    2.457207    0.000000
     16          1           0        4.612979    1.209635    0.000000
     17          1           0        4.615982   -1.270098    0.000000
     18          1           0        2.493163   -2.501079    0.000000
     19          1           0        0.049302   -2.507201    0.000000
     20          1           0       -2.454017   -2.472642    0.000000
     21          1           0       -4.623368   -1.262712    0.000000
     22          1           0       -4.680747    1.235856    0.000000
     23          1           0       -2.505361    2.458869    0.000000
     24          1           0       -0.085125    2.156865   -0.863216
     25          1           0       -0.085310    2.156865    0.863216
 ---------------------------------------------------------------------
                    Distance matrix (angstroms):
                    1          2          3          4          5
     1  C    0.000000
     2  C    1.399646   0.000000
     3  C    2.431450   1.405231   0.000000
     4  C    2.790502   2.389081   1.348741   0.000000
     5  C    5.618616   6.440110   6.136972   4.937915   0.000000
     6  C    6.507256   7.506901   7.384887   6.264004   1.466067
     7  C    6.247017   7.419605   7.555787   6.601420   2.464041
     8  C    4.996057   6.245289   6.553503   5.760789   2.762124
     9  C    2.482135   3.774902   4.296393   3.831792   3.736763
    10  C    3.690110   4.178003   3.680148   2.450823   2.487285
    11  C    1.354107   2.390880   2.793967   2.455422   4.264515
    12  C    2.423414   2.792562   2.418170   1.431018   3.742960
    13  C    3.777176   4.919554   5.114546   4.292817   2.368971
    14  C    4.242745   5.092995   4.899487   3.799495   1.375912
    15  H    1.084953   2.148896   3.408733   3.875012   6.238977
    16  H    2.154072   1.083892   2.162092   3.366218   7.505688
    17  H    3.407256   2.154438   1.082698   2.112537   7.046163
    18  H    3.873612   3.381715   2.121945   1.083458   5.046855
    19  H    4.570280   4.818761   4.032976   2.689821   2.719870
    20  H    6.243555   6.886072   6.368235   5.073510   1.085847
    21  H    7.562401   8.519271   8.313267   7.133663   2.197681
    22  H    7.147120   8.374367   8.583966   7.663445   3.456763
    23  H    5.087780   6.434045   6.956513   6.337818   3.846702
    24  H    2.804276   4.134772   4.821687   4.500038   4.335829
    25  H    2.804444   4.134940   4.821831   4.500145   4.335729
                    6          7          8          9         10
     6  C    0.000000
     7  C    1.372596   0.000000
     8  C    2.364883   1.390258   0.000000
     9  C    4.271580   3.808411   2.517352   0.000000
    10  C    3.842686   4.354221   3.811548   2.890658   0.000000
    11  C    5.184013   5.029073   3.871956   1.502591   2.461774
    12  C    4.966747   5.199029   4.329776   2.534196   1.385449
    13  C    2.807072   2.500193   1.467977   1.467516   2.462198
    14  C    2.485555   2.889520   2.466054   2.497879   1.464748
    15  H    6.943207   6.474048   5.131478   2.689560   4.577795
    16  H    8.535230   8.373970   7.145840   4.635366   5.261895
    17  H    8.348476   8.589281   7.620109   5.378838   4.560795
    18  H    6.467332   7.009951   6.344439   4.693120   2.662774
    19  H    4.182746   4.965836   4.659954   3.973114   1.082889
    20  H    2.192819   3.421708   3.846582   4.631986   2.721788
    21  H    1.084405   2.146633   3.365401   5.355052   4.683955
    22  H    2.143663   1.080066   2.154139   4.671064   5.434194
    23  H    3.358918   2.155149   1.086002   2.680910   4.652862
    24  H    4.681897   4.034274   2.709533   1.108221   3.686548
    25  H    4.681754   4.034106   2.709367   1.108233   3.686555
                   11         12         13         14         15
    11  C    0.000000
    12  C    1.438035   0.000000
    13  C    2.529467   2.861809   0.000000
    14  C    2.888660   2.481317   1.384331   0.000000
    15  H    2.119752   3.413660   4.138230   4.884785   0.000000
    16  H    3.366378   3.876454   5.883492   6.149527   2.467001
    17  H    3.876300   3.404379   6.172331   5.868037   4.293630
    18  H    3.431643   2.163063   4.898816   4.124043   4.958293
    19  H    3.446313   2.149878   3.425992   2.196141   5.529593
    20  H    4.909510   4.099267   3.362249   2.140445   6.978118
    21  H    6.228012   5.902845   3.889360   3.440383   8.022602
    22  H    5.987670   6.252117   3.482653   3.969535   7.268771
    23  H    4.173131   4.928827   2.192396   3.426038   4.990040
    24  H    2.170574   3.295466   2.077797   3.212473   2.727498
    25  H    2.170690   3.295541   2.077693   3.212407   2.727672
                   16         17         18         19         20
    16  H    0.000000
    17  H    2.479735   0.000000
    18  H    4.273525   2.453910   0.000000
    19  H    5.885747   4.731278   2.443868   0.000000
    20  H    7.968789   7.171541   4.947262   2.503558   0.000000
    21  H    9.561518   9.239354   7.223474   4.835556   2.483952
    22  H    9.293763   9.628550   8.088861   6.031902   4.325654
    23  H    7.227126   8.038577   7.041756   5.584635   4.931778
    24  H    4.869761   5.881295   5.393436   4.745178   5.271539
    25  H    4.869939   5.881442   5.393524   4.745184   5.271456
                   21         22         23         24         25
    21  H    0.000000
    22  H    2.499227   0.000000
    23  H    4.282070   2.495609   0.000000
    24  H    5.747547   4.765830   2.587255   0.000000
    25  H    5.747402   4.765652   2.587082   1.726432   0.000000
 Stoichiometry    C14H11(1+)
 Framework group  C1[X(C14H11)]
 Deg. of freedom    69
 Full point group                 C1      NOp   1
 Largest Abelian subgroup         C1      NOp   1
 Largest concise Abelian subgroup C1      NOp   1
                         Standard orientation:                         
 ---------------------------------------------------------------------
 Center     Atomic      Atomic             Coordinates (Angstroms)
 Number     Number       Type             X           Y           Z
 ---------------------------------------------------------------------
      1          6           0        2.451655   -1.389414    0.000000
      2          6           0        3.668197   -0.697291    0.000000
      3          6           0        3.681833    0.707873    0.000000
      4          6           0        2.524307    1.400142    0.000000
      5          6           0       -2.413564    1.421011    0.000000
      6          6           0       -3.703038    0.723437    0.000000
      7          6           0       -3.751247   -0.648312    0.000000
      8          6           0       -2.544138   -1.338025    0.000000
      9          6           0       -0.029574   -1.456486    0.000000
     10          6           0        0.073696    1.432327    0.000000
     11          6           0        1.277383   -0.715106    0.000000
     12          6           0        1.263709    0.722864    0.000000
     13          6           0       -1.251059   -0.643112    0.000000
     14          6           0       -1.217543    0.740814    0.000000
     15          1           0        2.459947   -2.474336    0.000000
     16          1           0        4.601148   -1.249038    0.000000
     17          1           0        4.630024    1.230529    0.000000
     18          1           0        2.520164    2.483592    0.000000
     19          1           0        0.076500    2.515212    0.000000
     20          1           0       -2.427043    2.506774    0.000000
     21          1           0       -4.608901    1.319545    0.000000
     22          1           0       -4.692346   -1.178289    0.000000
     23          1           0       -2.529839   -2.423932    0.000000
     24          1           0       -0.106584   -2.147197    0.863216
     25          1           0       -0.106769   -2.147195   -0.863216
 ---------------------------------------------------------------------
 Rotational constants (GHZ):           2.1264916           0.4425130           0.3670890
 Standard basis: 6-311++G(d,p) (5D, 7F)
 There are   399 symmetry adapted cartesian basis functions of A   symmetry.
 There are   385 symmetry adapted basis functions of A   symmetry.
   385 basis functions,   603 primitive gaussians,   399 cartesian basis functions
    47 alpha electrons       47 beta electrons
       nuclear repulsion energy       779.5377173850 Hartrees.
 NAtoms=   25 NActive=   25 NUniq=   25 SFac= 1.00D+00 NAtFMM=   60 NAOKFM=F Big=F
 Integral buffers will be    131072 words long.
 Raffenetti 2 integral format.
 Two-electron integral symmetry is turned on.
 One-electron integrals computed using PRISM.
 NBasis=   385 RedAO= T EigKep=  1.14D-06  NBF=   385
 NBsUse=   379 1.00D-06 EigRej=  8.61D-07 NBFU=   379
 ExpMin= 3.60D-02 ExpMax= 4.56D+03 ExpMxC= 6.82D+02 IAcc=3 IRadAn=         5 AccDes= 0.00D+00
 Harris functional with IExCor= 1009 and IRadAn=       5 diagonalized for initial guess.
 HarFok:  IExCor= 1009 AccDes= 0.00D+00 IRadAn=         5 IDoV= 1 UseB2=F ITyADJ=14
 ICtDFT=  3500011 ScaDFX=  1.000000  1.000000  1.000000  1.000000
 FoFCou: FMM=F IPFlag=           0 FMFlag=      100000 FMFlg1=           0
         NFxFlg=           0 DoJE=T BraDBF=F KetDBF=T FulRan=T
         wScrn=  0.000000 ICntrl=       500 IOpCl=  0 I1Cent=   200000004 NGrid=           0
         NMat0=    1 NMatS0=      1 NMatT0=    0 NMatD0=    1 NMtDS0=    0 NMtDT0=    0
 Petite list used in FoFCou.
 Requested convergence on RMS density matrix=1.00D-08 within 128 cycles.
 Requested convergence on MAX density matrix=1.00D-06.
 Requested convergence on             energy=1.00D-06.
 No special actions if energy rises.
 SCF Done:  E(RM062X) =  -539.744549135     A.U. after   16 cycles
            NFock= 16  Conv=0.39D-08     -V/T= 2.0043

 **********************************************************************

            Population analysis using the SCF Density.

 **********************************************************************

 Orbital symmetries:
       Occupied  (A) (A) (A) (A) (A) (A) (A) (A) (A) (A) (A) (A)
                 (A) (A) (A) (A) (A) (A) (A) (A) (A) (A) (A) (A)
                 (A) (A) (A) (A) (A) (A) (A) (A) (A) (A) (A) (A)
                 (A) (A) (A) (A) (A) (A) (A) (A) (A) (A) (A)
       Virtual   (A) (A) (A) (A) (A) (A) (A) (A) (A) (A) (A) (A)
                 (A) (A) (A) (A) (A) (A) (A) (A) (A) (A) (A) (A)
                 (A) (A) (A) (A) (A) (A) (A) (A) (A) (A) (A) (A)
                 (A) (A) (A) (A) (A) (A) (A) (A) (A) (A) (A) (A)
                 (A) (A) (A) (A) (A) (A) (A) (A) (A) (A) (A) (A)
                 (A) (A) (A) (A) (A) (A) (A) (A) (A) (A) (A) (A)
                 (A) (A) (A) (A) (A) (A) (A) (A) (A) (A) (A) (A)
                 (A) (A) (A) (A) (A) (A) (A) (A) (A) (A) (A) (A)
                 (A) (A) (A) (A) (A) (A) (A) (A) (A) (A) (A) (A)
                 (A) (A) (A) (A) (A) (A) (A) (A) (A) (A) (A) (A)
                 (A) (A) (A) (A) (A) (A) (A) (A) (A) (A) (A) (A)
                 (A) (A) (A) (A) (A) (A) (A) (A) (A) (A) (A) (A)
                 (A) (A) (A) (A) (A) (A) (A) (A) (A) (A) (A) (A)
                 (A) (A) (A) (A) (A) (A) (A) (A) (A) (A) (A) (A)
                 (A) (A) (A) (A) (A) (A) (A) (A) (A) (A) (A) (A)
                 (A) (A) (A) (A) (A) (A) (A) (A) (A) (A) (A) (A)
                 (A) (A) (A) (A) (A) (A) (A) (A) (A) (A) (A) (A)
                 (A) (A) (A) (A) (A) (A) (A) (A) (A) (A) (A) (A)
                 (A) (A) (A) (A) (A) (A) (A) (A) (A) (A) (A) (A)
                 (A) (A) (A) (A) (A) (A) (A) (A) (A) (A) (A) (A)
                 (A) (A) (A) (A) (A) (A) (A) (A) (A) (A) (A) (A)
                 (A) (A) (A) (A) (A) (A) (A) (A) (A) (A) (A) (A)
                 (A) (A) (A) (A) (A) (A) (A) (A) (A) (A) (A) (A)
                 (A) (A) (A) (A) (A) (A) (A) (A) (A) (A) (A) (A)
                 (A) (A) (A) (A) (A) (A) (A) (A) (A) (A) (A) (A)
                 (A) (A) (A) (A) (A) (A) (A) (A) (A) (A) (A) (A)
                 (A) (A) (A) (A) (A) (A) (A) (A) (A) (A) (A) (A)
                 (A) (A) (A) (A) (A) (A) (A) (A)
 The electronic state is 1-A.
 Alpha  occ. eigenvalues --  -10.77553 -10.74081 -10.73106 -10.72760 -10.72518
 Alpha  occ. eigenvalues --  -10.72100 -10.71794 -10.71084 -10.70682 -10.70416
 Alpha  occ. eigenvalues --  -10.70112 -10.69753 -10.69606 -10.69303  -1.16445
 Alpha  occ. eigenvalues --   -1.12295  -1.06754  -1.05869  -1.01128  -1.00511
 Alpha  occ. eigenvalues --   -0.95302  -0.90912  -0.86339  -0.85724  -0.83707
 Alpha  occ. eigenvalues --   -0.78173  -0.76123  -0.74182  -0.69989  -0.69212
 Alpha  occ. eigenvalues --   -0.68097  -0.67963  -0.67838  -0.65561  -0.64131
 Alpha  occ. eigenvalues --   -0.62417  -0.61386  -0.60591  -0.59330  -0.58916
 Alpha  occ. eigenvalues --   -0.56776  -0.55525  -0.53961  -0.52338  -0.47828
 Alpha  occ. eigenvalues --   -0.46087  -0.43196
 Alpha virt. eigenvalues --   -0.26155  -0.14755  -0.14032  -0.12793  -0.11195
 Alpha virt. eigenvalues --   -0.10100  -0.09293  -0.07937  -0.07892  -0.07500
 Alpha virt. eigenvalues --   -0.07213  -0.07134  -0.05665  -0.05574  -0.05390
 Alpha virt. eigenvalues --   -0.03864  -0.03667  -0.03279  -0.03157  -0.02148
 Alpha virt. eigenvalues --   -0.01317  -0.00985   0.00164   0.00551   0.00639
 Alpha virt. eigenvalues --    0.01078   0.01483   0.01897   0.02052   0.02292
 Alpha virt. eigenvalues --    0.02437   0.02664   0.02783   0.03134   0.03482
 Alpha virt. eigenvalues --    0.04188   0.04482   0.04743   0.05013   0.05381
 Alpha virt. eigenvalues --    0.06024   0.06242   0.06546   0.07056   0.07271
 Alpha virt. eigenvalues --    0.07889   0.07958   0.08313   0.08676   0.08848
 Alpha virt. eigenvalues --    0.09379   0.09520   0.09799   0.10602   0.10821
 Alpha virt. eigenvalues --    0.11117   0.11944   0.12183   0.12475   0.13001
 Alpha virt. eigenvalues --    0.13504   0.13517   0.13933   0.14127   0.15567
 Alpha virt. eigenvalues --    0.16237   0.16468   0.17253   0.17303   0.17683
 Alpha virt. eigenvalues --    0.18034   0.19011   0.19358   0.19722   0.20027
 Alpha virt. eigenvalues --    0.21424   0.21544   0.22468   0.23102   0.23530
 Alpha virt. eigenvalues --    0.23985   0.24457   0.25365   0.26893   0.27468
 Alpha virt. eigenvalues --    0.28756   0.29266   0.29876   0.31258   0.35483
 Alpha virt. eigenvalues --    0.36243   0.38146   0.39195   0.40857   0.41149
 Alpha virt. eigenvalues --    0.41837   0.42038   0.43029   0.43602   0.44523
 Alpha virt. eigenvalues --    0.44542   0.44962   0.45739   0.46266   0.47829
 Alpha virt. eigenvalues --    0.48273   0.48636   0.49070   0.50700   0.50866
 Alpha virt. eigenvalues --    0.51048   0.52174   0.52175   0.52546   0.54151
 Alpha virt. eigenvalues --    0.54220   0.54516   0.55561   0.56137   0.57586
 Alpha virt. eigenvalues --    0.58177   0.59050   0.61509   0.62175   0.62322
 Alpha virt. eigenvalues --    0.62967   0.63431   0.64638   0.65107   0.67607
 Alpha virt. eigenvalues --    0.70055   0.70261   0.71204   0.72522   0.72914
 Alpha virt. eigenvalues --    0.75390   0.75884   0.76392   0.76680   0.77110
 Alpha virt. eigenvalues --    0.77835   0.78109   0.78281   0.80007   0.80259
 Alpha virt. eigenvalues --    0.81100   0.81553   0.82554   0.82849   0.85216
 Alpha virt. eigenvalues --    0.86906   0.87837   0.88139   0.89305   0.90703
 Alpha virt. eigenvalues --    0.90919   0.91543   0.93303   0.94436   0.96233
 Alpha virt. eigenvalues --    0.96869   1.00023   1.01194   1.01306   1.02873
 Alpha virt. eigenvalues --    1.02880   1.03164   1.04856   1.06277   1.08800
 Alpha virt. eigenvalues --    1.19540   1.22633   1.23507   1.24112   1.28911
 Alpha virt. eigenvalues --    1.29459   1.32290   1.34050   1.35733   1.35813
 Alpha virt. eigenvalues --    1.39124   1.39336   1.40445   1.42662   1.43179
 Alpha virt. eigenvalues --    1.43193   1.43945   1.46129   1.46397   1.46604
 Alpha virt. eigenvalues --    1.47652   1.48077   1.51626   1.53483   1.55408
 Alpha virt. eigenvalues --    1.55419   1.56144   1.56417   1.57667   1.61165
 Alpha virt. eigenvalues --    1.62508   1.63340   1.64370   1.65893   1.67988
 Alpha virt. eigenvalues --    1.68099   1.68491   1.69676   1.74228   1.75685
 Alpha virt. eigenvalues --    1.76809   1.78142   1.79011   1.79625   1.81321
 Alpha virt. eigenvalues --    1.82341   1.82824   1.83204   1.83709   1.84009
 Alpha virt. eigenvalues --    1.84625   1.85159   1.86369   1.88407   1.91223
 Alpha virt. eigenvalues --    1.92068   1.93544   1.95470   1.97496   1.97881
 Alpha virt. eigenvalues --    1.99618   2.02043   2.04324   2.07045   2.11289
 Alpha virt. eigenvalues --    2.11955   2.14246   2.14879   2.18633   2.20819
 Alpha virt. eigenvalues --    2.22217   2.27749   2.29897   2.33623   2.34171
 Alpha virt. eigenvalues --    2.35829   2.38080   2.39514   2.41796   2.43874
 Alpha virt. eigenvalues --    2.45616   2.45829   2.48586   2.52553   2.53208
 Alpha virt. eigenvalues --    2.54333   2.56772   2.57925   2.58593   2.59149
 Alpha virt. eigenvalues --    2.60059   2.61172   2.61892   2.63468   2.63625
 Alpha virt. eigenvalues --    2.64823   2.64930   2.65051   2.65815   2.67430
 Alpha virt. eigenvalues --    2.67836   2.70631   2.70741   2.73314   2.74652
 Alpha virt. eigenvalues --    2.76108   2.77093   2.79424   2.82766   2.83232
 Alpha virt. eigenvalues --    2.83993   2.86075   2.91851   2.96872   2.99043
 Alpha virt. eigenvalues --    2.99972   3.04207   3.07032   3.10161   3.14037
 Alpha virt. eigenvalues --    3.19020   3.20051   3.24721   3.28416   3.30796
 Alpha virt. eigenvalues --    3.32037   3.34899   3.44162   3.46003   3.46291
 Alpha virt. eigenvalues --    3.47813   3.48993   3.55998   3.65154   3.66707
 Alpha virt. eigenvalues --    3.67967   3.92736   3.93221   3.94734   3.96177
 Alpha virt. eigenvalues --    4.03361   4.05621   4.07155   4.11850   4.34587
 Alpha virt. eigenvalues --    4.59641   4.67719   4.69838  23.44800  23.59060
 Alpha virt. eigenvalues --   23.76514  23.78374  23.81847  23.88586  23.90966
 Alpha virt. eigenvalues --   23.94628  23.94939  23.98624  24.05857  24.10203
 Alpha virt. eigenvalues --   24.11527  24.16249
     Molecular Orbital Coefficients:
                          43        44        45        46        47
                           O         O         O         O         O
     Eigenvalues --    -0.53961  -0.52338  -0.47828  -0.46087  -0.43196
   1 1   C  1S          0.00082   0.00000  -0.00000   0.00000   0.00000
   2        2S          0.00134   0.00000  -0.00000   0.00000   0.00000
   3        2PX         0.05329   0.00000  -0.00000  -0.00000   0.00000
   4        2PY         0.03325   0.00000  -0.00000  -0.00000  -0.00000
   5        2PZ        -0.00000   0.07111  -0.12807   0.03799   0.03694
   6        3S         -0.00236  -0.00000   0.00000  -0.00000  -0.00000
   7        3PX         0.07437   0.00000  -0.00000  -0.00000   0.00000
   8        3PY         0.04883   0.00000  -0.00000  -0.00000  -0.00000
   9        3PZ        -0.00000   0.11472  -0.20943   0.06248   0.06149
  10        4S          0.01204  -0.00000  -0.00000  -0.00000  -0.00000
  11        4PX         0.05781  -0.00000  -0.00000  -0.00000   0.00001
  12        4PY         0.06069  -0.00000  -0.00000  -0.00000  -0.00000
  13        4PZ        -0.00000   0.09554  -0.17816   0.05786   0.05623
  14        5S         -0.06711   0.00001  -0.00004  -0.00003  -0.00006
  15        5PX        -0.04747  -0.00002   0.00007   0.00004   0.00008
  16        5PY         0.00191  -0.00000   0.00001   0.00001   0.00001
  17        5PZ        -0.00000   0.00307  -0.04345   0.00732  -0.00135
  18        6D 0       -0.00020  -0.00000  -0.00000  -0.00000   0.00000
  19        6D+1        0.00000   0.00899   0.01025   0.01361   0.00113
  20        6D-1       -0.00000   0.00710  -0.00916   0.00269   0.00304
  21        6D+2        0.01303   0.00000  -0.00000  -0.00000   0.00000
  22        6D-2        0.00877   0.00000  -0.00000   0.00000   0.00000
  23 2   C  1S         -0.00186  -0.00000   0.00000   0.00000  -0.00000
  24        2S         -0.00308  -0.00000   0.00000   0.00000  -0.00000
  25        2PX        -0.05242  -0.00000   0.00000   0.00000  -0.00000
  26        2PY        -0.04134  -0.00000   0.00000   0.00000  -0.00000
  27        2PZ         0.00000   0.09982  -0.01084   0.09263   0.01864
  28        3S          0.00995   0.00000  -0.00000   0.00000   0.00000
  29        3PX        -0.07473  -0.00000   0.00000   0.00000  -0.00000
  30        3PY        -0.05854  -0.00000   0.00000   0.00000  -0.00000
  31        3PZ         0.00000   0.16481  -0.01807   0.15263   0.03027
  32        4S         -0.01880   0.00000   0.00000   0.00000  -0.00000
  33        4PX        -0.04613  -0.00000  -0.00000  -0.00000  -0.00000
  34        4PY        -0.03507  -0.00000   0.00000   0.00000   0.00000
  35        4PZ         0.00000   0.12693  -0.01490   0.13165   0.02936
  36        5S         -0.00157   0.00000  -0.00002  -0.00002  -0.00003
  37        5PX        -0.01001  -0.00000   0.00002   0.00001   0.00002
  38        5PY        -0.04179  -0.00001   0.00004   0.00002   0.00004
  39        5PZ         0.00000  -0.00139   0.01095   0.00149   0.01645
  40        6D 0        0.00023  -0.00000  -0.00000  -0.00000   0.00000
  41        6D+1        0.00000  -0.00871   0.01267  -0.00456  -0.00406
  42        6D-1        0.00000   0.00513   0.02020   0.00469  -0.00477
  43        6D+2        0.00321  -0.00000   0.00000  -0.00000  -0.00000
  44        6D-2        0.00902   0.00000  -0.00000  -0.00000   0.00000
  45 3   C  1S          0.00178   0.00000   0.00000   0.00000  -0.00000
  46        2S          0.00297   0.00000   0.00000   0.00000  -0.00000
  47        2PX         0.04832   0.00000  -0.00000  -0.00000   0.00000
  48        2PY         0.02919   0.00000  -0.00000  -0.00000   0.00000
  49        2PZ         0.00000   0.07239   0.11914   0.05769  -0.02365
  50        3S         -0.00995  -0.00000  -0.00000  -0.00000   0.00000
  51        3PX         0.06925   0.00000  -0.00000   0.00000   0.00000
  52        3PY         0.04269   0.00000  -0.00000  -0.00000  -0.00000
  53        3PZ         0.00001   0.11796   0.19547   0.09411  -0.03876
  54        4S          0.01016  -0.00000  -0.00000  -0.00000  -0.00000
  55        4PX         0.06071   0.00000   0.00000   0.00000   0.00000
  56        4PY         0.03238   0.00000   0.00000   0.00000   0.00000
  57        4PZ         0.00000   0.09467   0.16507   0.08559  -0.03408
  58        5S          0.04240   0.00002  -0.00005  -0.00002  -0.00005
  59        5PX         0.00475   0.00000  -0.00001  -0.00000  -0.00001
  60        5PY        -0.04029  -0.00000   0.00003   0.00002   0.00003
  61        5PZ        -0.00000   0.01154   0.00040   0.02080  -0.01624
  62        6D 0        0.00037   0.00000  -0.00000   0.00000   0.00000
  63        6D+1       -0.00000  -0.00272  -0.01422   0.00183   0.00338
  64        6D-1        0.00000  -0.01100   0.00750  -0.01197  -0.00374
  65        6D+2        0.00976   0.00000  -0.00000  -0.00000   0.00000
  66        6D-2        0.01277   0.00000  -0.00000  -0.00000   0.00000
  67 4   C  1S         -0.00488  -0.00000   0.00000   0.00000  -0.00000
  68        2S         -0.00808  -0.00000   0.00000   0.00000  -0.00000
  69        2PX        -0.06745  -0.00000   0.00000   0.00000  -0.00000
  70        2PY        -0.03618  -0.00000   0.00000   0.00000  -0.00000
  71        2PZ         0.00000   0.00592   0.13046  -0.02864  -0.03353
  72        3S          0.02561   0.00000  -0.00000  -0.00000   0.00000
  73        3PX        -0.09656  -0.00000   0.00000   0.00000  -0.00000
  74        3PY        -0.05286  -0.00000   0.00000   0.00000  -0.00000
  75        3PZ         0.00001   0.00793   0.21346  -0.04719  -0.05383
  76        4S         -0.01546   0.00000   0.00000   0.00000   0.00000
  77        4PX        -0.04353  -0.00000   0.00000  -0.00000  -0.00000
  78        4PY        -0.03944  -0.00000  -0.00000  -0.00000  -0.00000
  79        4PZ         0.00001   0.01351   0.18720  -0.03743  -0.05901
  80        5S         -0.22229   0.00002   0.00005   0.00002   0.00003
  81        5PX         0.08383  -0.00000  -0.00003  -0.00002  -0.00002
  82        5PY         0.04134  -0.00000  -0.00001  -0.00000  -0.00000
  83        5PZ         0.00000  -0.01918   0.03152  -0.03130  -0.00073
  84        6D 0        0.00077  -0.00000  -0.00000  -0.00000   0.00000
  85        6D+1       -0.00000   0.01501   0.01071   0.01618  -0.00232
  86        6D-1       -0.00000  -0.00280  -0.00885   0.00080   0.00181
  87        6D+2        0.01023   0.00000  -0.00000  -0.00000   0.00000
  88        6D-2        0.00715   0.00000  -0.00000   0.00000  -0.00000
  89 5   C  1S         -0.00311   0.00000  -0.00000   0.00000   0.00000
  90        2S         -0.00517   0.00000  -0.00000   0.00000   0.00000
  91        2PX        -0.07207  -0.00000   0.00000  -0.00000  -0.00000
  92        2PY        -0.03991   0.00000  -0.00000   0.00000   0.00000
  93        2PZ         0.00000   0.01838  -0.03720   0.05676  -0.12575
  94        3S          0.01607  -0.00000   0.00000  -0.00000  -0.00000
  95        3PX        -0.10338  -0.00000   0.00000  -0.00000  -0.00000
  96        3PY        -0.05791   0.00000  -0.00000   0.00000   0.00000
  97        3PZ         0.00000   0.02907  -0.06146   0.09179  -0.20492
  98        4S          0.03225  -0.00000   0.00000   0.00000   0.00001
  99        4PX        -0.07820  -0.00000   0.00000   0.00000  -0.00000
 100        4PY        -0.05876   0.00000  -0.00000  -0.00000  -0.00000
 101        4PZ         0.00000   0.03137  -0.04746   0.07098  -0.20210
 102        5S          0.16305  -0.00001  -0.00000  -0.00000   0.00002
 103        5PX         0.11448  -0.00000   0.00000   0.00001   0.00002
 104        5PY        -0.03440   0.00000  -0.00000  -0.00000  -0.00001
 105        5PZ         0.00000  -0.01021  -0.02101   0.03350  -0.03296
 106        6D 0       -0.00001   0.00000   0.00000  -0.00000  -0.00000
 107        6D+1        0.00000  -0.01121   0.00056   0.01717   0.01071
 108        6D-1       -0.00000  -0.00362   0.00240  -0.00306   0.00612
 109        6D+2        0.00967  -0.00000   0.00000  -0.00000  -0.00000
 110        6D-2        0.00942   0.00000  -0.00000  -0.00000  -0.00000
 111 6   C  1S          0.00033  -0.00000  -0.00000   0.00000   0.00000
 112        2S          0.00054  -0.00000  -0.00000   0.00000   0.00000
 113        2PX         0.07265   0.00000  -0.00000  -0.00000   0.00000
 114        2PY         0.04023  -0.00000  -0.00000  -0.00000  -0.00000
 115        2PZ         0.00000   0.07976  -0.02790  -0.06081  -0.11979
 116        3S          0.00059   0.00000   0.00000  -0.00000  -0.00000
 117        3PX         0.10570   0.00000  -0.00000  -0.00000   0.00000
 118        3PY         0.05772  -0.00000  -0.00000  -0.00000  -0.00000
 119        3PZ         0.00000   0.12952  -0.04589  -0.09789  -0.19678
 120        4S         -0.02156   0.00000  -0.00000  -0.00000  -0.00000
 121        4PX         0.07080   0.00000  -0.00000  -0.00000  -0.00000
 122        4PY         0.02398  -0.00000   0.00000   0.00000   0.00000
 123        4PZ         0.00000   0.09972  -0.03954  -0.08392  -0.17865
 124        5S          0.04181  -0.00001  -0.00008  -0.00004  -0.00008
 125        5PX         0.03874  -0.00000  -0.00000   0.00000   0.00000
 126        5PY         0.05800   0.00000   0.00002   0.00001   0.00003
 127        5PZ         0.00000   0.00568   0.01391  -0.01706  -0.01408
 128        6D 0        0.00007  -0.00000   0.00000   0.00000   0.00000
 129        6D+1        0.00000   0.00347  -0.00363   0.00415  -0.01192
 130        6D-1        0.00000  -0.01146  -0.00146   0.01576  -0.00593
 131        6D+2        0.00511  -0.00000   0.00000  -0.00000  -0.00000
 132        6D-2        0.01347   0.00000  -0.00000  -0.00000   0.00000
 133 7   C  1S          0.00294   0.00000  -0.00000  -0.00000   0.00000
 134        2S          0.00490   0.00000  -0.00000  -0.00000   0.00000
 135        2PX        -0.07446  -0.00000   0.00000   0.00000  -0.00000
 136        2PY        -0.03273   0.00000  -0.00000  -0.00000   0.00000
 137        2PZ         0.00000   0.10290  -0.00117  -0.11384   0.00354
 138        3S         -0.01670  -0.00000   0.00000   0.00000  -0.00000
 139        3PX        -0.10807  -0.00000   0.00000   0.00000  -0.00000
 140        3PY        -0.04669   0.00000  -0.00000  -0.00000   0.00000
 141        3PZ         0.00000   0.16918  -0.00130  -0.18705   0.00639
 142        4S          0.00705  -0.00000   0.00000   0.00000   0.00000
 143        4PX        -0.08545  -0.00000   0.00000   0.00000   0.00000
 144        4PY        -0.03894   0.00000   0.00000   0.00000   0.00000
 145        4PZ         0.00000   0.12534  -0.00267  -0.15632   0.00558
 146        5S         -0.10079   0.00001   0.00002   0.00000   0.00001
 147        5PX        -0.04404   0.00000  -0.00000  -0.00001  -0.00001
 148        5PY         0.06197   0.00000   0.00003   0.00002   0.00005
 149        5PZ        -0.00000   0.00378  -0.01784  -0.00489  -0.00610
 150        6D 0        0.00019   0.00000   0.00000   0.00000  -0.00000
 151        6D+1       -0.00000   0.00970   0.00244  -0.00806   0.01207
 152        6D-1        0.00000   0.00589  -0.00477  -0.00382  -0.02129
 153        6D+2        0.01074   0.00000  -0.00000  -0.00000   0.00000
 154        6D-2        0.01871   0.00000  -0.00000  -0.00000   0.00000
 155 8   C  1S         -0.00263  -0.00000   0.00000   0.00000  -0.00000
 156        2S         -0.00436  -0.00000   0.00000   0.00000  -0.00000
 157        2PX         0.09060   0.00000  -0.00000  -0.00000   0.00000
 158        2PY         0.03597  -0.00000  -0.00000   0.00000   0.00000
 159        2PZ        -0.00000   0.07623   0.02800  -0.06658   0.12546
 160        3S          0.01453   0.00000  -0.00000  -0.00000   0.00000
 161        3PX         0.13122   0.00000  -0.00000  -0.00000   0.00000
 162        3PY         0.05221  -0.00000  -0.00000  -0.00000   0.00000
 163        3PZ        -0.00000   0.12226   0.04512  -0.10764   0.20511
 164        4S         -0.02221   0.00000  -0.00000  -0.00000  -0.00000
 165        4PX         0.06648  -0.00000  -0.00000  -0.00000   0.00000
 166        4PY         0.04257   0.00000  -0.00000  -0.00000  -0.00000
 167        4PZ        -0.00000   0.10026   0.03958  -0.09652   0.18844
 168        5S          0.15560  -0.00001  -0.00007  -0.00004  -0.00007
 169        5PX        -0.09511  -0.00000  -0.00006  -0.00004  -0.00007
 170        5PY         0.02541   0.00000   0.00000   0.00000   0.00000
 171        5PZ        -0.00000  -0.00192   0.02306  -0.00989   0.04329
 172        6D 0        0.00021   0.00000   0.00000  -0.00000  -0.00000
 173        6D+1       -0.00000  -0.00814   0.00361   0.01480   0.01006
 174        6D-1       -0.00000   0.00798   0.00099  -0.00476   0.00680
 175        6D+2        0.01007  -0.00000   0.00000  -0.00000  -0.00000
 176        6D-2        0.01028   0.00000  -0.00000  -0.00000   0.00000
 177 9   C  1S         -0.00318  -0.00000  -0.00000  -0.00000  -0.00000
 178        2S         -0.00531  -0.00000  -0.00000  -0.00000  -0.00000
 179        2PX         0.07727   0.00000  -0.00000  -0.00000   0.00000
 180        2PY         0.03432  -0.00000  -0.00000  -0.00000  -0.00000
 181        2PZ        -0.00001  -0.00742   0.03554   0.00033  -0.05113
 182        3S          0.01732   0.00000   0.00000   0.00000   0.00000
 183        3PX         0.11566   0.00000  -0.00000  -0.00000   0.00000
 184        3PY         0.05051  -0.00000  -0.00000  -0.00000  -0.00000
 185        3PZ        -0.00001  -0.00885   0.05402   0.00095  -0.07830
 186        4S         -0.00213  -0.00000   0.00003   0.00001   0.00003
 187        4PX         0.08767  -0.00001  -0.00000  -0.00000  -0.00000
 188        4PY         0.05384  -0.00000  -0.00000  -0.00000  -0.00000
 189        4PZ        -0.00001  -0.04379   0.05165   0.00106  -0.08149
 190        5S         -0.02919  -0.00001   0.00007   0.00005   0.00008
 191        5PX        -0.23761  -0.00000   0.00002   0.00001  -0.00000
 192        5PY        -0.00012  -0.00000   0.00001   0.00001   0.00001
 193        5PZ        -0.00000  -0.06749  -0.05299  -0.00330   0.07339
 194        6D 0       -0.00405  -0.00000   0.00000  -0.00000  -0.00000
 195        6D+1       -0.00000  -0.00076  -0.01403  -0.00835  -0.00889
 196        6D-1        0.00000   0.00052  -0.00896   0.00046   0.01614
 197        6D+2        0.01096   0.00000  -0.00000  -0.00000   0.00000
 198        6D-2        0.00767   0.00000  -0.00000  -0.00000   0.00000
 199 10  C  1S         -0.00777  -0.00000   0.00000  -0.00000  -0.00000
 200        2S         -0.01291  -0.00000   0.00000  -0.00000  -0.00000
 201        2PX        -0.07281  -0.00000   0.00000   0.00000  -0.00000
 202        2PY        -0.03722  -0.00000   0.00000   0.00000  -0.00000
 203        2PZ         0.00000  -0.10344  -0.00989  -0.01032   0.01402
 204        3S          0.03937   0.00000   0.00000   0.00000   0.00000
 205        3PX        -0.10549  -0.00000   0.00000   0.00000  -0.00000
 206        3PY        -0.05428  -0.00000   0.00000   0.00000   0.00000
 207        3PZ         0.00001  -0.16840  -0.01677  -0.01639   0.02383
 208        4S          0.04464   0.00000  -0.00001  -0.00000  -0.00001
 209        4PX        -0.08779   0.00000   0.00000   0.00000  -0.00000
 210        4PY        -0.06426  -0.00000   0.00000   0.00000   0.00000
 211        4PZ         0.00000  -0.13914  -0.01195  -0.01218   0.01745
 212        5S         -0.02704  -0.00000   0.00006   0.00004   0.00007
 213        5PX         0.26269  -0.00001  -0.00003  -0.00001   0.00001
 214        5PY        -0.01012   0.00000   0.00000  -0.00000   0.00000
 215        5PZ         0.00000  -0.01411   0.03010   0.00533  -0.05037
 216        6D 0        0.00117  -0.00000   0.00000   0.00000   0.00000
 217        6D+1        0.00000  -0.00464   0.00342  -0.02359   0.00005
 218        6D-1       -0.00000   0.00927   0.00220   0.00078  -0.00360
 219        6D+2        0.01241  -0.00000  -0.00000  -0.00000  -0.00000
 220        6D-2        0.00779   0.00000  -0.00000  -0.00000   0.00000
 221 11  C  1S         -0.00235  -0.00000   0.00000   0.00000  -0.00000
 222        2S         -0.00392  -0.00000   0.00000   0.00000  -0.00000
 223        2PX        -0.06590  -0.00000   0.00000   0.00000  -0.00000
 224        2PY        -0.05994  -0.00000   0.00000   0.00000  -0.00000
 225        2PZ        -0.00000  -0.00118  -0.11922  -0.05204   0.01189
 226        3S          0.01152   0.00000  -0.00000   0.00000   0.00000
 227        3PX        -0.09766  -0.00000   0.00001   0.00000  -0.00001
 228        3PY        -0.08903  -0.00000   0.00000   0.00000  -0.00000
 229        3PZ        -0.00001  -0.00386  -0.19405  -0.08753   0.01908
 230        4S          0.02157   0.00000  -0.00001  -0.00000   0.00001
 231        4PX        -0.09630  -0.00000   0.00001   0.00000   0.00000
 232        4PY        -0.06217  -0.00000   0.00001   0.00000  -0.00000
 233        4PZ        -0.00000   0.01106  -0.18677  -0.07217   0.01715
 234        5S         -0.01130   0.00000  -0.00011  -0.00005  -0.00011
 235        5PX        -0.08401   0.00002   0.00004   0.00003   0.00003
 236        5PY        -0.19484   0.00003  -0.00008  -0.00005  -0.00013
 237        5PZ         0.00000   0.01273   0.07363  -0.01199  -0.04550
 238        6D 0        0.00036  -0.00000  -0.00000  -0.00000   0.00000
 239        6D+1        0.00000   0.00995  -0.01530   0.00494   0.00738
 240        6D-1        0.00000  -0.01239   0.00553  -0.01284   0.00218
 241        6D+2        0.00911  -0.00000  -0.00000  -0.00000  -0.00000
 242        6D-2        0.01459   0.00000  -0.00000  -0.00000   0.00000
 243 12  C  1S          0.00216  -0.00000  -0.00000  -0.00000   0.00000
 244        2S          0.00362  -0.00000  -0.00000  -0.00000   0.00000
 245        2PX         0.06030   0.00000  -0.00000  -0.00000   0.00000
 246        2PY         0.05244   0.00000  -0.00000  -0.00000   0.00000
 247        2PZ         0.00000  -0.08293   0.00430  -0.10534   0.00193
 248        3S         -0.01044   0.00000   0.00000   0.00000  -0.00000
 249        3PX         0.08758   0.00000  -0.00000   0.00000   0.00000
 250        3PY         0.07684   0.00000  -0.00000  -0.00000   0.00000
 251        3PZ         0.00000  -0.13575   0.00619  -0.17305   0.00043
 252        4S          0.01114  -0.00000   0.00000  -0.00000   0.00000
 253        4PX         0.09672   0.00000  -0.00001  -0.00000  -0.00001
 254        4PY         0.08084  -0.00000  -0.00000   0.00000   0.00000
 255        4PZ         0.00000  -0.12317   0.01293  -0.17301   0.01403
 256        5S          0.13056  -0.00002   0.00012   0.00007   0.00017
 257        5PX         0.22251  -0.00002  -0.00004  -0.00001  -0.00000
 258        5PY        -0.12886   0.00001  -0.00006  -0.00004  -0.00009
 259        5PZ        -0.00000   0.01921  -0.06773   0.02065   0.04836
 260        6D 0        0.00014  -0.00000  -0.00000  -0.00000  -0.00000
 261        6D+1        0.00000   0.01242   0.01293  -0.00036  -0.00511
 262        6D-1        0.00000  -0.00545   0.01847   0.00180  -0.00288
 263        6D+2        0.01042   0.00000  -0.00000  -0.00000   0.00000
 264        6D-2        0.01434   0.00000  -0.00000  -0.00000   0.00000
 265 13  C  1S         -0.00135   0.00000  -0.00000   0.00000   0.00000
 266        2S         -0.00229   0.00000  -0.00000   0.00000   0.00000
 267        2PX        -0.07780  -0.00000   0.00000  -0.00000  -0.00000
 268        2PY        -0.05745   0.00000  -0.00000   0.00000   0.00000
 269        2PZ        -0.00000   0.00997   0.03544   0.05255   0.12022
 270        3S          0.00765  -0.00000   0.00000   0.00000  -0.00000
 271        3PX        -0.11433  -0.00000   0.00000  -0.00000  -0.00001
 272        3PY        -0.08246   0.00000  -0.00000   0.00000   0.00000
 273        3PZ        -0.00000   0.01620   0.05760   0.08700   0.19605
 274        4S          0.01305  -0.00000  -0.00000  -0.00000  -0.00002
 275        4PX        -0.11261  -0.00000  -0.00000  -0.00000  -0.00002
 276        4PY        -0.08838   0.00000   0.00000   0.00000   0.00001
 277        4PZ        -0.00000   0.02654   0.05982   0.06668   0.20873
 278        5S          0.11326   0.00000  -0.00011  -0.00005  -0.00011
 279        5PX        -0.07950   0.00002  -0.00001  -0.00001  -0.00003
 280        5PY         0.18474  -0.00002  -0.00013  -0.00007  -0.00011
 281        5PZ         0.00000   0.01859   0.00553   0.02159  -0.06436
 282        6D 0       -0.00027   0.00000   0.00000  -0.00000  -0.00000
 283        6D+1       -0.00000  -0.00912   0.00001   0.00712  -0.01349
 284        6D-1        0.00000  -0.00832  -0.00643   0.01565  -0.00186
 285        6D+2        0.01040  -0.00000  -0.00000  -0.00000  -0.00000
 286        6D-2        0.01441   0.00000  -0.00000   0.00000   0.00000
 287 14  C  1S          0.00372  -0.00000   0.00000  -0.00000  -0.00000
 288        2S          0.00629  -0.00000   0.00000  -0.00000  -0.00000
 289        2PX         0.06233   0.00000  -0.00000   0.00000   0.00000
 290        2PY         0.05065  -0.00000   0.00000  -0.00000  -0.00000
 291        2PZ         0.00000  -0.04395  -0.01731   0.11671   0.00809
 292        3S         -0.01831   0.00000  -0.00000   0.00000   0.00000
 293        3PX         0.09086   0.00000  -0.00000  -0.00000   0.00000
 294        3PY         0.07400  -0.00000   0.00000  -0.00000  -0.00000
 295        3PZ         0.00000  -0.07259  -0.02601   0.19110   0.01320
 296        4S         -0.00429   0.00000  -0.00000  -0.00000  -0.00000
 297        4PX         0.07102   0.00000   0.00001   0.00000   0.00001
 298        4PY         0.03194  -0.00000   0.00000   0.00000  -0.00000
 299        4PZ         0.00000  -0.06665  -0.03783   0.18720   0.01120
 300        5S         -0.18299   0.00001   0.00017   0.00009   0.00017
 301        5PX         0.26019  -0.00002  -0.00004  -0.00002  -0.00001
 302        5PY         0.15369  -0.00001  -0.00008  -0.00004  -0.00007
 303        5PZ        -0.00000   0.01074  -0.00200  -0.03335   0.07188
 304        6D 0       -0.00006   0.00000  -0.00000  -0.00000   0.00000
 305        6D+1        0.00000  -0.01247   0.00214  -0.00456   0.01442
 306        6D-1        0.00000  -0.00434  -0.00634  -0.00145  -0.02127
 307        6D+2        0.01171  -0.00000   0.00000   0.00000  -0.00000
 308        6D-2        0.01735   0.00000  -0.00000   0.00000   0.00000
 309 15  H  1S         -0.03745  -0.00000   0.00000   0.00000  -0.00000
 310        2S         -0.05265  -0.00000   0.00000  -0.00000  -0.00000
 311        3S         -0.02253   0.00000  -0.00000  -0.00000  -0.00000
 312        4S          0.00564  -0.00000   0.00001   0.00000   0.00001
 313        5PX         0.00324   0.00000  -0.00000  -0.00000   0.00000
 314        5PY        -0.00190  -0.00000  -0.00000  -0.00000   0.00000
 315        5PZ        -0.00000   0.00457  -0.00872   0.00273   0.00238
 316 16  H  1S         -0.02197  -0.00000   0.00000   0.00000  -0.00000
 317        2S         -0.03245  -0.00000   0.00000   0.00000  -0.00000
 318        3S         -0.01535   0.00000   0.00000   0.00000  -0.00000
 319        4S         -0.00698  -0.00000   0.00000   0.00000  -0.00000
 320        5PX        -0.00052   0.00000   0.00000  -0.00000  -0.00000
 321        5PY        -0.00368  -0.00000   0.00000   0.00000  -0.00000
 322        5PZ         0.00000   0.00635  -0.00074   0.00630   0.00123
 323 17  H  1S          0.05484   0.00000  -0.00000  -0.00000   0.00000
 324        2S          0.08021   0.00000  -0.00000  -0.00000   0.00000
 325        3S          0.03096  -0.00000  -0.00000   0.00000   0.00000
 326        4S          0.00470  -0.00000  -0.00000  -0.00000  -0.00000
 327        5PX        -0.00321  -0.00000   0.00000   0.00000  -0.00000
 328        5PY        -0.00159  -0.00000   0.00000   0.00000  -0.00000
 329        5PZ         0.00000   0.00463   0.00812   0.00392  -0.00174
 330 18  H  1S         -0.03295  -0.00000   0.00000   0.00000  -0.00000
 331        2S         -0.04922  -0.00000   0.00000   0.00000  -0.00000
 332        3S         -0.02566  -0.00000   0.00000   0.00000   0.00000
 333        4S         -0.01757  -0.00000   0.00000   0.00000   0.00000
 334        5PX        -0.00314  -0.00000   0.00000   0.00000  -0.00000
 335        5PY         0.00143   0.00000  -0.00000  -0.00000  -0.00000
 336        5PZ         0.00000  -0.00020   0.00895  -0.00221  -0.00216
 337 19  H  1S         -0.03313  -0.00000   0.00000   0.00000   0.00000
 338        2S         -0.04840  -0.00000   0.00000   0.00000  -0.00000
 339        3S         -0.02348   0.00000  -0.00000  -0.00000  -0.00000
 340        4S         -0.00261  -0.00000  -0.00000   0.00000  -0.00000
 341        5PX        -0.00373  -0.00000   0.00000  -0.00000  -0.00000
 342        5PY         0.00087   0.00000   0.00000   0.00000   0.00000
 343        5PZ         0.00000  -0.00646  -0.00039  -0.00063   0.00047
 344 20  H  1S         -0.03643   0.00000  -0.00000   0.00000   0.00000
 345        2S         -0.05356   0.00000  -0.00000   0.00000   0.00000
 346        3S         -0.02414   0.00000   0.00000   0.00000   0.00000
 347        4S          0.01462   0.00000   0.00000   0.00000   0.00000
 348        5PX        -0.00452  -0.00000   0.00000  -0.00000  -0.00000
 349        5PY         0.00244  -0.00000  -0.00000  -0.00000  -0.00000
 350        5PZ         0.00000   0.00071  -0.00281   0.00409  -0.00907
 351 21  H  1S         -0.03864  -0.00000   0.00000   0.00000  -0.00000
 352        2S         -0.05503  -0.00000   0.00000  -0.00000  -0.00000
 353        3S         -0.02224  -0.00000   0.00000   0.00000  -0.00000
 354        4S         -0.00596   0.00000  -0.00000  -0.00000  -0.00000
 355        5PX        -0.00002  -0.00000   0.00000  -0.00000  -0.00000
 356        5PY         0.00497   0.00000  -0.00000  -0.00000   0.00000
 357        5PZ         0.00000   0.00507  -0.00189  -0.00404  -0.00868
 358 22  H  1S          0.07665   0.00000  -0.00000  -0.00000   0.00000
 359        2S          0.11176   0.00000  -0.00000   0.00000   0.00000
 360        3S          0.04373  -0.00000  -0.00000   0.00000   0.00000
 361        4S          0.00832   0.00000   0.00000   0.00000   0.00000
 362        5PX         0.00428   0.00000   0.00000   0.00000   0.00000
 363        5PY         0.00290   0.00000  -0.00000  -0.00000   0.00000
 364        5PZ         0.00000   0.00665   0.00002  -0.00784   0.00030
 365 23  H  1S         -0.03372   0.00000   0.00000  -0.00000   0.00000
 366        2S         -0.04894   0.00000   0.00000  -0.00000   0.00000
 367        3S         -0.02117   0.00000  -0.00000  -0.00000  -0.00000
 368        4S         -0.01155   0.00000   0.00001   0.00000   0.00001
 369        5PX         0.00434   0.00000  -0.00000  -0.00000   0.00000
 370        5PY        -0.00166   0.00000   0.00000  -0.00000  -0.00000
 371        5PZ        -0.00000   0.00486   0.00220  -0.00465   0.00894
 372 24  H  1S         -0.02336  -0.00417   0.03224   0.00006  -0.04805
 373        2S         -0.03434   0.00274   0.04978  -0.00031  -0.07698
 374        3S         -0.01456   0.02425   0.03898  -0.00091  -0.06497
 375        4S          0.00251   0.04444   0.02073  -0.00104  -0.03431
 376        5PX         0.00365  -0.00010  -0.00169  -0.00039  -0.00229
 377        5PY        -0.00003   0.00080   0.00224  -0.00000  -0.00253
 378        5PZ         0.00233   0.00016  -0.00090   0.00009   0.00137
 379 25  H  1S         -0.02336   0.00417  -0.03224  -0.00005   0.04805
 380        2S         -0.03434  -0.00274  -0.04978   0.00031   0.07697
 381        3S         -0.01455  -0.02425  -0.03900   0.00089   0.06494
 382        4S          0.00251  -0.04443  -0.02075   0.00103   0.03429
 383        5PX         0.00365   0.00010   0.00169   0.00039   0.00229
 384        5PY        -0.00003  -0.00080  -0.00224   0.00000   0.00253
 385        5PZ        -0.00233   0.00016  -0.00090   0.00009   0.00137
                          48        49        50        51        52
                           V         V         V         V         V
     Eigenvalues --    -0.26155  -0.14755  -0.14032  -0.12793  -0.11195
   1 1   C  1S         -0.00000   0.00000  -0.00000   0.00000  -0.00763
   2        2S         -0.00000   0.00000  -0.00000   0.00000  -0.01293
   3        2PX        -0.00000  -0.00000  -0.00000  -0.00000   0.00364
   4        2PY         0.00000   0.00000  -0.00000   0.00000  -0.01753
   5        2PZ        -0.00574   0.08274  -0.01015   0.11926   0.00000
   6        3S          0.00000  -0.00000   0.00000  -0.00000   0.04144
   7        3PX        -0.00000   0.00000   0.00000   0.00000   0.00333
   8        3PY         0.00000   0.00000  -0.00000   0.00000  -0.02542
   9        3PZ        -0.00798   0.12736  -0.01538   0.18986   0.00000
  10        4S         -0.00000  -0.00001   0.00001   0.00000   0.05671
  11        4PX        -0.00000  -0.00001  -0.00000  -0.00001   0.02662
  12        4PY        -0.00000  -0.00000   0.00001   0.00000  -0.08696
  13        4PZ        -0.00562   0.24555  -0.04698   0.35123   0.00000
  14        5S         -0.00001   0.00007   0.00020   0.00018  -1.98890
  15        5PX         0.00003  -0.00016  -0.00029  -0.00024   1.30177
  16        5PY         0.00000  -0.00002  -0.00004  -0.00003  -0.52653
  17        5PZ         0.01195   0.18432  -0.06200   0.41016   0.00002
  18        6D 0       -0.00000  -0.00000   0.00000  -0.00000  -0.00639
  19        6D+1        0.02195  -0.00175  -0.02725   0.00477  -0.00000
  20        6D-1       -0.00184  -0.00814   0.00033  -0.01058   0.00000
  21        6D+2       -0.00000  -0.00000  -0.00000  -0.00000   0.00209
  22        6D-2       -0.00000  -0.00000  -0.00000  -0.00000  -0.00180
  23 2   C  1S          0.00000   0.00000   0.00000   0.00000  -0.00663
  24        2S          0.00000   0.00000   0.00000   0.00000  -0.01106
  25        2PX         0.00000   0.00000   0.00000  -0.00000   0.01106
  26        2PY         0.00000   0.00000  -0.00000   0.00000  -0.00212
  27        2PZ         0.10703  -0.04848  -0.09578  -0.04661  -0.00000
  28        3S         -0.00000  -0.00000  -0.00000  -0.00000   0.03276
  29        3PX         0.00000  -0.00000   0.00000  -0.00000   0.01744
  30        3PY         0.00000   0.00000  -0.00000  -0.00000  -0.00513
  31        3PZ         0.17516  -0.07613  -0.15231  -0.07327  -0.00000
  32        4S          0.00000   0.00001  -0.00001   0.00000   0.14167
  33        4PX        -0.00000  -0.00000   0.00000  -0.00000   0.01210
  34        4PY         0.00000  -0.00000  -0.00000  -0.00000   0.00876
  35        4PZ         0.20755  -0.13635  -0.25934  -0.13389  -0.00000
  36        5S          0.00000   0.00007   0.00009   0.00009   0.08836
  37        5PX         0.00000  -0.00004  -0.00008  -0.00006   0.46685
  38        5PY         0.00002  -0.00008  -0.00016  -0.00013   0.48688
  39        5PZ         0.06732  -0.11401  -0.22203  -0.14312  -0.00002
  40        6D 0       -0.00000  -0.00000   0.00000  -0.00000  -0.00459
  41        6D+1        0.00236  -0.01067   0.00232  -0.01652  -0.00000
  42        6D-1        0.00019  -0.01295   0.01747  -0.02215  -0.00000
  43        6D+2        0.00000   0.00000  -0.00000   0.00000  -0.00252
  44        6D-2       -0.00000  -0.00000   0.00000  -0.00000   0.00531
  45 3   C  1S          0.00000   0.00000  -0.00000   0.00000  -0.00569
  46        2S          0.00000   0.00000  -0.00000   0.00000  -0.00947
  47        2PX        -0.00000   0.00000  -0.00000  -0.00000   0.01134
  48        2PY         0.00000   0.00000  -0.00000   0.00000   0.00225
  49        2PZ         0.00525  -0.03980   0.10737  -0.07313   0.00000
  50        3S         -0.00000  -0.00000   0.00000  -0.00000   0.02797
  51        3PX        -0.00000  -0.00000  -0.00000  -0.00000   0.01823
  52        3PY         0.00000   0.00000   0.00000   0.00000   0.00455
  53        3PZ         0.01121  -0.06249   0.17088  -0.11512   0.00000
  54        4S         -0.00000  -0.00000   0.00001   0.00000   0.10725
  55        4PX         0.00000   0.00000  -0.00001  -0.00000   0.02530
  56        4PY         0.00000   0.00000  -0.00000  -0.00000   0.02474
  57        4PZ         0.00436  -0.12250   0.29641  -0.21929   0.00000
  58        5S         -0.00004   0.00010   0.00016   0.00011   0.39799
  59        5PX         0.00000   0.00001   0.00003   0.00003   0.02287
  60        5PY         0.00001  -0.00005  -0.00012  -0.00009   0.54756
  61        5PZ        -0.00083  -0.09389   0.24365  -0.23214   0.00000
  62        6D 0       -0.00000  -0.00000   0.00000   0.00000  -0.00474
  63        6D+1        0.01135  -0.00953   0.00111  -0.01511  -0.00000
  64        6D-1       -0.01861   0.01359   0.01365   0.01757   0.00000
  65        6D+2       -0.00000  -0.00000   0.00000   0.00000  -0.00352
  66        6D-2       -0.00000   0.00000  -0.00000   0.00000  -0.00494
  67 4   C  1S          0.00000   0.00000  -0.00000   0.00000  -0.00801
  68        2S          0.00000   0.00000  -0.00000   0.00000  -0.01350
  69        2PX         0.00000   0.00000  -0.00000   0.00000   0.00362
  70        2PY         0.00000   0.00000  -0.00000  -0.00000   0.02017
  71        2PZ        -0.08902   0.07682  -0.00609   0.11256   0.00000
  72        3S         -0.00000  -0.00000   0.00000  -0.00000   0.04110
  73        3PX         0.00000   0.00000  -0.00000   0.00000   0.00371
  74        3PY         0.00000   0.00000  -0.00000  -0.00000   0.02781
  75        3PZ        -0.14463   0.11785  -0.00880   0.17880   0.00000
  76        4S          0.00000  -0.00000  -0.00001  -0.00000   0.21070
  77        4PX         0.00000   0.00000   0.00000   0.00000  -0.04938
  78        4PY        -0.00000   0.00000   0.00001   0.00000   0.05390
  79        4PZ        -0.17094   0.24398  -0.02346   0.32911   0.00000
  80        5S          0.00000   0.00000  -0.00019  -0.00010   1.43721
  81        5PX        -0.00000   0.00003   0.00013   0.00009  -0.96925
  82        5PY        -0.00000   0.00000   0.00002   0.00001   0.79144
  83        5PZ        -0.04540   0.24890   0.03583   0.39840   0.00001
  84        6D 0       -0.00000  -0.00000   0.00000   0.00000  -0.00613
  85        6D+1        0.00000  -0.00243   0.03080  -0.00563   0.00000
  86        6D-1        0.00341   0.00695   0.00021   0.01138   0.00000
  87        6D+2       -0.00000  -0.00000   0.00000  -0.00000   0.00232
  88        6D-2        0.00000   0.00000  -0.00000   0.00000   0.00238
  89 5   C  1S         -0.00000  -0.00000   0.00000  -0.00000  -0.00523
  90        2S         -0.00000  -0.00000   0.00000  -0.00000  -0.00879
  91        2PX         0.00000   0.00000   0.00000   0.00000  -0.00406
  92        2PY        -0.00000  -0.00000  -0.00000  -0.00000   0.01427
  93        2PZ        -0.06666   0.08576  -0.06239  -0.09933  -0.00000
  94        3S          0.00000   0.00000  -0.00000  -0.00000   0.02579
  95        3PX         0.00000   0.00000  -0.00000   0.00000  -0.00433
  96        3PY        -0.00000  -0.00000   0.00000  -0.00000   0.01912
  97        3PZ        -0.10767   0.13041  -0.09883  -0.15796  -0.00000
  98        4S          0.00000  -0.00001  -0.00001  -0.00000   0.19452
  99        4PX         0.00000   0.00000  -0.00000  -0.00000   0.04579
 100        4PY        -0.00000   0.00000   0.00001   0.00000   0.01450
 101        4PZ        -0.12130   0.24616  -0.18516  -0.26191  -0.00000
 102        5S          0.00001  -0.00002  -0.00001  -0.00000   1.83705
 103        5PX         0.00001  -0.00001  -0.00006  -0.00004   0.69857
 104        5PY         0.00000   0.00000   0.00001   0.00000   0.49061
 105        5PZ        -0.02549   0.21278  -0.20658  -0.26988  -0.00000
 106        6D 0        0.00000   0.00000  -0.00000   0.00000  -0.00507
 107        6D+1       -0.00230   0.01711   0.01812  -0.00510   0.00000
 108        6D-1        0.00370   0.00709  -0.00243  -0.00733  -0.00000
 109        6D+2        0.00000   0.00000  -0.00000  -0.00000   0.00025
 110        6D-2        0.00000   0.00000  -0.00000  -0.00000  -0.00207
 111 6   C  1S         -0.00000  -0.00000   0.00000   0.00000  -0.00315
 112        2S         -0.00000  -0.00000   0.00000   0.00000  -0.00521
 113        2PX         0.00000   0.00000   0.00000  -0.00000  -0.00564
 114        2PY        -0.00000  -0.00000   0.00000   0.00000  -0.00008
 115        2PZ         0.01471  -0.10394  -0.04211   0.06918   0.00000
 116        3S          0.00000   0.00000  -0.00000  -0.00000   0.01467
 117        3PX         0.00000   0.00000   0.00000   0.00000  -0.01077
 118        3PY        -0.00000  -0.00000   0.00000   0.00000   0.00068
 119        3PZ         0.02472  -0.16279  -0.06710   0.10821   0.00000
 120        4S          0.00000   0.00001   0.00001   0.00000   0.04959
 121        4PX         0.00000   0.00000   0.00000   0.00000  -0.01041
 122        4PY        -0.00000  -0.00000  -0.00000  -0.00000   0.01927
 123        4PZ         0.01897  -0.27266  -0.11590   0.17975   0.00000
 124        5S          0.00000   0.00006   0.00032   0.00022   0.05360
 125        5PX         0.00000   0.00000  -0.00001  -0.00001   0.00154
 126        5PY         0.00000  -0.00002  -0.00011  -0.00008   0.28240
 127        5PZ         0.00428  -0.20156  -0.08221   0.17317  -0.00000
 128        6D 0        0.00000   0.00000   0.00000  -0.00000  -0.00331
 129        6D+1       -0.00816   0.00964  -0.00882  -0.01292  -0.00000
 130        6D-1       -0.01137   0.00560  -0.01858  -0.01196  -0.00000
 131        6D+2        0.00000   0.00000   0.00000   0.00000  -0.00185
 132        6D-2       -0.00000   0.00000  -0.00000  -0.00000   0.00283
 133 7   C  1S         -0.00000   0.00000   0.00000   0.00000  -0.00379
 134        2S         -0.00000   0.00000   0.00000   0.00000  -0.00626
 135        2PX         0.00000  -0.00000  -0.00000   0.00000  -0.00492
 136        2PY        -0.00000   0.00000   0.00000  -0.00000  -0.00021
 137        2PZ         0.06463  -0.00032   0.09814   0.03251   0.00000
 138        3S          0.00000  -0.00000  -0.00000  -0.00000   0.01771
 139        3PX         0.00000  -0.00000   0.00000   0.00000  -0.00871
 140        3PY        -0.00000   0.00000  -0.00000  -0.00000  -0.00180
 141        3PZ         0.10596   0.00093   0.15614   0.05108   0.00000
 142        4S         -0.00000  -0.00001   0.00000   0.00000   0.09495
 143        4PX        -0.00000  -0.00001  -0.00000  -0.00000   0.00871
 144        4PY         0.00000  -0.00000  -0.00000  -0.00000   0.01175
 145        4PZ         0.12135  -0.00720   0.25793   0.08797   0.00000
 146        5S         -0.00001  -0.00003  -0.00004  -0.00001   0.73740
 147        5PX        -0.00000  -0.00000   0.00003   0.00003  -0.07607
 148        5PY         0.00000  -0.00003  -0.00018  -0.00013   0.27310
 149        5PZ         0.03725  -0.00175   0.20279   0.09981   0.00001
 150        6D 0        0.00000   0.00000  -0.00000   0.00000  -0.00300
 151        6D+1       -0.00161   0.01261  -0.00488  -0.01284  -0.00000
 152        6D-1        0.00176  -0.02395  -0.00451   0.01853   0.00000
 153        6D+2       -0.00000  -0.00000   0.00000   0.00000  -0.00198
 154        6D-2       -0.00000  -0.00000   0.00000   0.00000  -0.00319
 155 8   C  1S         -0.00000  -0.00000   0.00000   0.00000  -0.00497
 156        2S         -0.00000  -0.00000   0.00000   0.00000  -0.00843
 157        2PX        -0.00000   0.00000   0.00000   0.00000  -0.00352
 158        2PY        -0.00000  -0.00000   0.00000   0.00000  -0.01373
 159        2PZ        -0.00532   0.10345  -0.03096  -0.09485  -0.00000
 160        3S          0.00000   0.00000  -0.00000  -0.00000   0.02806
 161        3PX        -0.00000   0.00000  -0.00000  -0.00000  -0.00357
 162        3PY        -0.00000  -0.00000   0.00000   0.00000  -0.02022
 163        3PZ        -0.00869   0.15880  -0.04692  -0.14956  -0.00000
 164        4S          0.00000   0.00001   0.00000   0.00001   0.00941
 165        4PX        -0.00000  -0.00001   0.00001   0.00001  -0.02500
 166        4PY         0.00000   0.00000   0.00000   0.00000  -0.07466
 167        4PZ        -0.00963   0.29004  -0.08609  -0.25866  -0.00000
 168        5S         -0.00001   0.00005   0.00031   0.00024  -1.50173
 169        5PX        -0.00001   0.00003   0.00031   0.00023  -0.55413
 170        5PY         0.00000   0.00000  -0.00002  -0.00001  -0.42754
 171        5PZ         0.00786   0.21705  -0.03246  -0.30798  -0.00002
 172        6D 0        0.00000   0.00000   0.00000  -0.00000  -0.00481
 173        6D+1       -0.01358  -0.01150  -0.02140   0.00368  -0.00000
 174        6D-1       -0.00184  -0.00857   0.00326   0.00720  -0.00000
 175        6D+2        0.00000   0.00000  -0.00000  -0.00000   0.00129
 176        6D-2       -0.00000   0.00000   0.00000   0.00000   0.00089
 177 9   C  1S         -0.00000   0.00000   0.00000  -0.00000  -0.01378
 178        2S         -0.00000   0.00000   0.00000  -0.00000  -0.02316
 179        2PX        -0.00000   0.00000  -0.00000   0.00000  -0.00221
 180        2PY        -0.00000   0.00000   0.00000   0.00000  -0.03055
 181        2PZ         0.02861  -0.01262   0.00637  -0.00245   0.00000
 182        3S          0.00000   0.00000  -0.00000   0.00000   0.06065
 183        3PX        -0.00000   0.00000  -0.00000   0.00000  -0.00365
 184        3PY         0.00000   0.00000   0.00000   0.00000  -0.04623
 185        3PZ         0.03827  -0.01950   0.00900  -0.00378   0.00000
 186        4S          0.00000  -0.00003  -0.00009  -0.00003   0.42534
 187        4PX         0.00001  -0.00001   0.00001   0.00000  -0.02183
 188        4PY        -0.00000   0.00000   0.00002   0.00001  -0.02477
 189        4PZ         0.07522  -0.09934   0.05860  -0.00236   0.00000
 190        5S          0.00002  -0.00010  -0.00031  -0.00027   0.87937
 191        5PX         0.00002  -0.00006  -0.00004  -0.00003   0.40281
 192        5PY         0.00000  -0.00001  -0.00004  -0.00004  -0.46650
 193        5PZ         0.12899  -0.40225   0.19987  -0.03118   0.00001
 194        6D 0        0.00000   0.00000   0.00000  -0.00000  -0.00865
 195        6D+1       -0.00353   0.00717   0.02272  -0.01409   0.00000
 196        6D-1       -0.01927  -0.02870   0.00577  -0.00278  -0.00000
 197        6D+2       -0.00000  -0.00000   0.00000   0.00000   0.00245
 198        6D-2       -0.00000  -0.00000   0.00000  -0.00000   0.00058
 199 10  C  1S         -0.00000  -0.00000   0.00000   0.00000  -0.01036
 200        2S         -0.00000  -0.00000   0.00000   0.00000  -0.01765
 201        2PX         0.00000   0.00000  -0.00000   0.00000  -0.00165
 202        2PY        -0.00000   0.00000   0.00000  -0.00000   0.02323
 203        2PZ         0.16965   0.02202   0.03214   0.01490   0.00000
 204        3S          0.00000  -0.00000  -0.00000  -0.00000   0.05866
 205        3PX         0.00000   0.00000  -0.00000   0.00000  -0.00261
 206        3PY         0.00000  -0.00000  -0.00000  -0.00000   0.03256
 207        3PZ         0.27593   0.03311   0.05285   0.02347   0.00000
 208        4S         -0.00000   0.00001   0.00003   0.00001   0.06894
 209        4PX         0.00000   0.00000  -0.00000  -0.00000   0.00858
 210        4PY         0.00000  -0.00000  -0.00001  -0.00000   0.20268
 211        4PZ         0.34203   0.08848   0.08854   0.05232   0.00000
 212        5S          0.00002  -0.00008  -0.00025  -0.00020   1.57018
 213        5PX        -0.00001  -0.00003   0.00008   0.00003   0.40618
 214        5PY         0.00000  -0.00000  -0.00002  -0.00000   1.91338
 215        5PZ         0.09634   0.33312   0.01189   0.11322   0.00000
 216        6D 0        0.00000  -0.00000  -0.00000  -0.00000  -0.00738
 217        6D+1        0.00126  -0.00740  -0.02960  -0.00607  -0.00000
 218        6D-1        0.00074   0.01304  -0.00077   0.00360   0.00000
 219        6D+2       -0.00000   0.00000   0.00000  -0.00000   0.00099
 220        6D-2       -0.00000  -0.00000   0.00000   0.00000  -0.00033
 221 11  C  1S          0.00000   0.00000  -0.00000   0.00000  -0.00668
 222        2S          0.00000   0.00000  -0.00000   0.00000  -0.01147
 223        2PX         0.00000   0.00000  -0.00000   0.00000   0.00145
 224        2PY         0.00000   0.00000  -0.00000   0.00000   0.00987
 225        2PZ        -0.09923  -0.04290   0.10667  -0.08305   0.00000
 226        3S         -0.00000  -0.00001   0.00000  -0.00000   0.04504
 227        3PX         0.00000   0.00000  -0.00000   0.00000   0.00146
 228        3PY         0.00000   0.00000  -0.00000   0.00000   0.01522
 229        3PZ        -0.15990  -0.06628   0.16720  -0.13511   0.00000
 230        4S         -0.00001  -0.00001   0.00001  -0.00000   0.01531
 231        4PX         0.00001   0.00000  -0.00002  -0.00001   0.10148
 232        4PY         0.00001  -0.00000  -0.00001   0.00000  -0.01059
 233        4PZ        -0.20955  -0.11142   0.31182  -0.24268   0.00000
 234        5S         -0.00004   0.00007   0.00047   0.00030  -4.13138
 235        5PX         0.00001  -0.00000  -0.00020  -0.00014   1.29204
 236        5PY        -0.00003   0.00019   0.00037   0.00032  -2.33175
 237        5PZ        -0.12565   0.15119   0.30208  -0.25695   0.00000
 238        6D 0       -0.00000  -0.00000   0.00000  -0.00000  -0.00809
 239        6D+1       -0.00438   0.01506  -0.00484   0.01692   0.00000
 240        6D-1       -0.00329  -0.01782  -0.01658  -0.01919  -0.00000
 241        6D+2       -0.00000  -0.00000   0.00000  -0.00000  -0.00572
 242        6D-2       -0.00000   0.00000  -0.00000   0.00000   0.00135
 243 12  C  1S         -0.00000  -0.00000   0.00000  -0.00000  -0.00731
 244        2S         -0.00000  -0.00000   0.00000  -0.00000  -0.01247
 245        2PX        -0.00000  -0.00000   0.00000   0.00000   0.00203
 246        2PY        -0.00000  -0.00000   0.00000  -0.00000  -0.01037
 247        2PZ        -0.01006  -0.04290  -0.11731  -0.05370  -0.00000
 248        3S          0.00000   0.00000  -0.00000   0.00000   0.04294
 249        3PX        -0.00000  -0.00000  -0.00000  -0.00000   0.00546
 250        3PY        -0.00000  -0.00000   0.00000  -0.00000  -0.01440
 251        3PZ        -0.01755  -0.06140  -0.18840  -0.08951  -0.00000
 252        4S          0.00000   0.00000  -0.00000  -0.00000   0.16807
 253        4PX        -0.00000   0.00001   0.00002   0.00001  -0.12079
 254        4PY        -0.00000  -0.00001   0.00000   0.00000  -0.09232
 255        4PZ        -0.02194  -0.16249  -0.33931  -0.14606  -0.00001
 256        5S          0.00004  -0.00017  -0.00057  -0.00042   4.80989
 257        5PX         0.00000  -0.00004   0.00015   0.00007  -0.25549
 258        5PY        -0.00001   0.00012   0.00031   0.00024  -4.18975
 259        5PZ         0.01324  -0.40005  -0.36083  -0.21537  -0.00001
 260        6D 0        0.00000   0.00000   0.00000   0.00000  -0.00888
 261        6D+1       -0.02765   0.01098  -0.00589   0.01318   0.00000
 262        6D-1        0.01785   0.01658  -0.01594   0.02331  -0.00000
 263        6D+2       -0.00000   0.00000  -0.00000   0.00000  -0.00515
 264        6D-2       -0.00000  -0.00000   0.00000  -0.00000  -0.00143
 265 13  C  1S         -0.00000  -0.00000   0.00000  -0.00000  -0.00532
 266        2S         -0.00000  -0.00000   0.00000  -0.00000  -0.00917
 267        2PX         0.00000   0.00000  -0.00000   0.00000  -0.00308
 268        2PY        -0.00000  -0.00000   0.00000  -0.00000   0.00897
 269        2PZ        -0.07511  -0.11397  -0.06490   0.06963  -0.00000
 270        3S          0.00000   0.00000  -0.00000   0.00000   0.03708
 271        3PX         0.00000   0.00000  -0.00000   0.00000  -0.00474
 272        3PY        -0.00000  -0.00000   0.00000  -0.00000   0.01234
 273        3PZ        -0.12107  -0.17668  -0.10153   0.11349  -0.00000
 274        4S          0.00001   0.00002   0.00001   0.00000  -0.03447
 275        4PX         0.00001   0.00002   0.00002   0.00001  -0.12892
 276        4PY        -0.00001  -0.00001  -0.00002  -0.00000   0.01687
 277        4PZ        -0.15553  -0.30197  -0.21418   0.18132  -0.00000
 278        5S         -0.00001   0.00014   0.00043   0.00029  -3.20548
 279        5PX        -0.00001   0.00006   0.00007   0.00008  -0.55414
 280        5PY        -0.00003   0.00006   0.00055   0.00038  -2.05220
 281        5PZ        -0.09337  -0.06836  -0.38003   0.25787  -0.00001
 282        6D 0        0.00000   0.00000   0.00000  -0.00000  -0.00729
 283        6D+1        0.00412  -0.01807   0.00581   0.01210   0.00000
 284        6D-1       -0.00547  -0.00887   0.01950   0.01188   0.00000
 285        6D+2        0.00000   0.00000   0.00000  -0.00000  -0.00547
 286        6D-2        0.00000   0.00000  -0.00000  -0.00000  -0.00149
 287 14  C  1S          0.00000   0.00000   0.00000   0.00000  -0.00602
 288        2S          0.00000   0.00000   0.00000   0.00000  -0.01024
 289        2PX        -0.00000  -0.00000  -0.00000  -0.00000  -0.00016
 290        2PY         0.00000   0.00000   0.00000   0.00000  -0.01036
 291        2PZ        -0.02261   0.01145   0.09483   0.03409   0.00000
 292        3S         -0.00000  -0.00000  -0.00000  -0.00000   0.03547
 293        3PX        -0.00000  -0.00000   0.00000   0.00000  -0.00297
 294        3PY         0.00000   0.00000   0.00000   0.00000  -0.01431
 295        3PZ        -0.03555   0.02356   0.14838   0.05966   0.00000
 296        4S          0.00000   0.00000   0.00000  -0.00000   0.11005
 297        4PX        -0.00000  -0.00001  -0.00003  -0.00001   0.15366
 298        4PY         0.00000   0.00000  -0.00000   0.00000  -0.07718
 299        4PZ        -0.04497   0.00647   0.29798   0.07620   0.00000
 300        5S          0.00003  -0.00018  -0.00071  -0.00051   5.15111
 301        5PX         0.00000  -0.00003   0.00014   0.00008   0.73828
 302        5PY        -0.00003   0.00005   0.00035   0.00023  -3.14865
 303        5PZ        -0.00885  -0.17582   0.43714   0.02805   0.00001
 304        6D 0       -0.00000  -0.00000   0.00000   0.00000  -0.00762
 305        6D+1        0.02430  -0.01211   0.01481   0.01446   0.00000
 306        6D-1        0.01449   0.02881   0.00808  -0.01755   0.00000
 307        6D+2        0.00000  -0.00000  -0.00000   0.00000  -0.00405
 308        6D-2       -0.00000  -0.00000   0.00000  -0.00000   0.00302
 309 15  H  1S          0.00000  -0.00000  -0.00000  -0.00000   0.00758
 310        2S          0.00000  -0.00000   0.00000  -0.00000   0.00251
 311        3S         -0.00000   0.00000   0.00000   0.00000  -0.08016
 312        4S          0.00000  -0.00001  -0.00003  -0.00003  -0.66951
 313        5PX        -0.00000  -0.00000   0.00000   0.00000   0.00036
 314        5PY        -0.00000  -0.00000   0.00000  -0.00000   0.00543
 315        5PZ         0.00012   0.00994  -0.00127   0.01387   0.00000
 316 16  H  1S          0.00000   0.00000  -0.00000   0.00000  -0.00093
 317        2S          0.00000   0.00000  -0.00000  -0.00000  -0.00926
 318        3S          0.00000   0.00000  -0.00000  -0.00000  -0.05297
 319        4S          0.00000   0.00000  -0.00000   0.00000  -0.50419
 320        5PX         0.00000   0.00000   0.00000   0.00000  -0.00313
 321        5PY         0.00000   0.00000  -0.00000  -0.00000   0.00251
 322        5PZ         0.00926  -0.00467  -0.01026  -0.00483  -0.00000
 323 17  H  1S         -0.00000   0.00000  -0.00000   0.00000  -0.00077
 324        2S         -0.00000   0.00000   0.00000   0.00000  -0.01303
 325        3S         -0.00000  -0.00000  -0.00000  -0.00000  -0.05769
 326        4S         -0.00000   0.00000   0.00000   0.00000  -0.48143
 327        5PX        -0.00000   0.00000  -0.00000   0.00000  -0.00280
 328        5PY         0.00000   0.00000  -0.00000   0.00000  -0.00230
 329        5PZ         0.00079  -0.00367   0.01132  -0.00767   0.00000
 330 18  H  1S          0.00000   0.00000  -0.00000   0.00000   0.00712
 331        2S          0.00000   0.00000  -0.00000  -0.00000  -0.00148
 332        3S          0.00000   0.00000  -0.00001  -0.00000  -0.07322
 333        4S          0.00000   0.00000  -0.00001  -0.00000  -0.85568
 334        5PX         0.00000   0.00000  -0.00000  -0.00000   0.00146
 335        5PY         0.00000   0.00000   0.00000   0.00000  -0.00600
 336        5PZ        -0.00666   0.00845  -0.00022   0.01358   0.00000
 337 19  H  1S          0.00000  -0.00000  -0.00000   0.00000   0.00908
 338        2S          0.00000  -0.00000   0.00000   0.00000  -0.00788
 339        3S         -0.00000   0.00000   0.00000   0.00000  -0.20471
 340        4S         -0.00000   0.00000   0.00001   0.00000  -1.70828
 341        5PX         0.00000   0.00000   0.00000   0.00000  -0.00068
 342        5PY         0.00000   0.00000  -0.00000   0.00000  -0.00657
 343        5PZ         0.01412   0.00568   0.00276   0.00262   0.00000
 344 20  H  1S         -0.00000  -0.00000  -0.00000  -0.00000   0.00722
 345        2S         -0.00000  -0.00000  -0.00000  -0.00000   0.00390
 346        3S         -0.00000  -0.00000  -0.00000  -0.00000  -0.02954
 347        4S         -0.00000  -0.00001  -0.00001  -0.00001  -0.53377
 348        5PX         0.00000   0.00000   0.00000   0.00000  -0.00169
 349        5PY        -0.00000  -0.00000   0.00000   0.00000  -0.00394
 350        5PZ        -0.00473   0.00906  -0.00616  -0.01101  -0.00000
 351 21  H  1S          0.00000  -0.00000  -0.00000   0.00000  -0.00060
 352        2S          0.00000   0.00000   0.00000   0.00000  -0.00899
 353        3S          0.00000   0.00000  -0.00000  -0.00000  -0.02530
 354        4S          0.00000   0.00000   0.00001   0.00001  -0.23010
 355        5PX         0.00000   0.00000  -0.00000   0.00000   0.00084
 356        5PY        -0.00000  -0.00000   0.00000   0.00000  -0.00127
 357        5PZ         0.00139  -0.01004  -0.00465   0.00713   0.00000
 358 22  H  1S         -0.00000  -0.00000   0.00000   0.00000  -0.00108
 359        2S         -0.00000  -0.00000  -0.00000  -0.00000  -0.00548
 360        3S         -0.00000  -0.00000  -0.00000  -0.00000  -0.02164
 361        4S         -0.00000  -0.00001  -0.00001  -0.00001  -0.24569
 362        5PX         0.00000   0.00000  -0.00000  -0.00000   0.00143
 363        5PY        -0.00000  -0.00000   0.00000  -0.00000   0.00130
 364        5PZ         0.00560   0.00045   0.01024   0.00334   0.00000
 365 23  H  1S          0.00000   0.00000  -0.00000  -0.00000   0.00647
 366        2S          0.00000   0.00000  -0.00000  -0.00000   0.00489
 367        3S          0.00000   0.00000   0.00000   0.00000  -0.07148
 368        4S          0.00000  -0.00001  -0.00003  -0.00002  -0.36418
 369        5PX        -0.00000  -0.00000  -0.00000  -0.00000  -0.00062
 370        5PY         0.00000   0.00000  -0.00000  -0.00000   0.00397
 371        5PZ         0.00011   0.01204  -0.00402  -0.01058  -0.00000
 372 24  H  1S          0.04197   0.03776  -0.01004   0.00285   0.00134
 373        2S          0.07367   0.09253  -0.03145   0.00517  -0.02101
[...]
 190        5S          0.34520
 191        5PX        -0.26365
 192        5PY         0.03644
 193        5PZ        -0.02825
 194        6D 0        0.00821
 195        6D+1        0.00854
 196        6D-1        0.01214
 197        6D+2        0.01209
 198        6D-2        0.01364
 199 10  C  1S          1.10550
 200        2S          0.88522
 201        2PX         0.24236
 202        2PY         0.24084
 203        2PZ         0.11523
 204        3S          0.79957
 205        3PX         0.55138
 206        3PY         0.54933
 207        3PZ         0.31176
 208        4S          0.41314
 209        4PX         0.15801
 210        4PY         0.34421
 211        4PZ         0.25655
 212        5S          0.02918
 213        5PX        -0.37363
 214        5PY         0.19792
 215        5PZ         0.04227
 216        6D 0        0.00299
 217        6D+1        0.01274
 218        6D-1        0.00361
 219        6D+2        0.02116
 220        6D-2        0.01509
 221 11  C  1S          1.10533
 222        2S          0.88546
 223        2PX         0.23935
 224        2PY         0.23138
 225        2PZ         0.14973
 226        3S          0.77105
 227        3PX         0.53780
 228        3PY         0.53135
 229        3PZ         0.39553
 230        4S          0.39341
 231        4PX         0.26092
 232        4PY         0.22646
 233        4PZ         0.31285
 234        5S          0.16008
 235        5PX        -0.26013
 236        5PY         0.61788
 237        5PZ         0.01069
 238        6D 0        0.00383
 239        6D+1        0.01098
 240        6D-1        0.00983
 241        6D+2        0.02306
 242        6D-2        0.02048
 243 12  C  1S          1.10521
 244        2S          0.88565
 245        2PX         0.23382
 246        2PY         0.22895
 247        2PZ         0.17363
 248        3S          0.75267
 249        3PX         0.52932
 250        3PY         0.52840
 251        3PZ         0.45778
 252        4S          0.38330
 253        4PX         0.16115
 254        4PY         0.19685
 255        4PZ         0.39642
 256        5S         -0.58962
 257        5PX        -0.46239
 258        5PY         0.30989
 259        5PZ        -0.05913
 260        6D 0        0.00447
 261        6D+1        0.00729
 262        6D-1        0.00804
 263        6D+2        0.02280
 264        6D-2        0.02200
 265 13  C  1S          1.10531
 266        2S          0.88559
 267        2PX         0.22570
 268        2PY         0.23700
 269        2PZ         0.15546
 270        3S          0.76448
 271        3PX         0.52774
 272        3PY         0.53097
 273        3PZ         0.40709
 274        4S          0.41829
 275        4PX         0.27492
 276        4PY         0.21139
 277        4PZ         0.33637
 278        5S          0.10806
 279        5PX        -0.30233
 280        5PY         0.62479
 281        5PZ         0.01740
 282        6D 0        0.00398
 283        6D+1        0.00881
 284        6D-1        0.01146
 285        6D+2        0.02013
 286        6D-2        0.02099
 287 14  C  1S          1.10520
 288        2S          0.88559
 289        2PX         0.22825
 290        2PY         0.23769
 291        2PZ         0.17541
 292        3S          0.75239
 293        3PX         0.52282
 294        3PY         0.53455
 295        3PZ         0.46248
 296        4S          0.36055
 297        4PX         0.14121
 298        4PY         0.19113
 299        4PZ         0.39426
 300        5S         -0.48056
 301        5PX        -0.47226
 302        5PY         0.28919
 303        5PZ        -0.06225
 304        6D 0        0.00444
 305        6D+1        0.00753
 306        6D-1        0.00996
 307        6D+2        0.02296
 308        6D-2        0.02292
 309 15  H  1S          0.27308
 310        2S          0.46330
 311        3S          0.02987
 312        4S         -0.03047
 313        5PX         0.00341
 314        5PY         0.01512
 315        5PZ         0.00453
 316 16  H  1S          0.27301
 317        2S          0.46086
 318        3S          0.00838
 319        4S         -0.02977
 320        5PX         0.01249
 321        5PY         0.00654
 322        5PZ         0.00355
 323 17  H  1S          0.27326
 324        2S          0.46266
 325        3S          0.01720
 326        4S         -0.03004
 327        5PX         0.01253
 328        5PY         0.00617
 329        5PZ         0.00442
 330 18  H  1S          0.27381
 331        2S          0.46475
 332        3S          0.03098
 333        4S         -0.01998
 334        5PX         0.00349
 335        5PY         0.01536
 336        5PZ         0.00419
 337 19  H  1S          0.27271
 338        2S          0.45420
 339        3S          0.01781
 340        4S          0.04281
 341        5PX         0.00340
 342        5PY         0.01637
 343        5PZ         0.00292
 344 20  H  1S          0.27334
 345        2S          0.46523
 346        3S          0.03921
 347        4S         -0.01965
 348        5PX         0.00343
 349        5PY         0.01487
 350        5PZ         0.00463
 351 21  H  1S          0.27301
 352        2S          0.46341
 353        3S          0.02248
 354        4S         -0.02704
 355        5PX         0.01146
 356        5PY         0.00683
 357        5PZ         0.00454
 358 22  H  1S          0.27387
 359        2S          0.46366
 360        3S          0.01655
 361        4S         -0.02674
 362        5PX         0.01261
 363        5PY         0.00640
 364        5PZ         0.00404
 365 23  H  1S          0.27377
 366        2S          0.46424
 367        3S          0.03617
 368        4S         -0.03269
 369        5PX         0.00330
 370        5PY         0.01457
 371        5PZ         0.00477
 372 24  H  1S          0.26268
 373        2S          0.42804
 374        3S          0.01150
 375        4S          0.02727
 376        5PX         0.00343
 377        5PY         0.00772
 378        5PZ         0.00917
 379 25  H  1S          0.26268
 380        2S          0.42804
 381        3S          0.01151
 382        4S          0.02728
 383        5PX         0.00343
 384        5PY         0.00772
 385        5PZ         0.00917
          Condensed to atoms (all electrons):
               1          2          3          4          5          6
     1  C    8.234645   0.536140  -0.637995   1.697974  -0.008554  -0.079425
     2  C    0.536140   7.225908   0.472586  -1.053183  -0.043678  -0.013167
     3  C   -0.637995   0.472586   6.648438   0.715258  -0.104937   0.016315
     4  C    1.697974  -1.053183   0.715258  12.062297  -0.380448  -0.152447
     5  C   -0.008554  -0.043678  -0.104937  -0.380448  10.102813   0.880103
     6  C   -0.079425  -0.013167   0.016315  -0.152447   0.880103   6.611611
     7  C   -0.034472  -0.001840  -0.013193   0.035181  -1.170319   0.110270
     8  C    0.402323   0.001736  -0.107551  -0.095260   2.224962  -0.314498
     9  C   -1.069202  -0.939792   0.283928   0.226990  -0.475060   0.310997
    10  C   -1.148439   0.139454  -0.226852  -2.799573  -2.263769  -0.502371
    11  C    0.385841  -0.672975   0.759542  -0.595303  -1.291260  -0.031396
    12  C   -1.780329   0.973259  -1.361526  -1.779688  -0.135666  -0.369598
    13  C    0.236302  -0.194709  -0.279617  -1.626824  -0.124375   1.268267
    14  C   -1.224121  -0.312764  -0.050120  -0.643936  -1.532877  -1.601731
    15  H    0.366795  -0.105739  -0.004211   0.025605   0.006380   0.001210
    16  H   -0.019354   0.380738  -0.023113   0.018059  -0.001629  -0.000345
    17  H   -0.016392  -0.025922   0.382684  -0.067848   0.000104   0.000402
    18  H    0.046246   0.003030  -0.084085   0.479433   0.005572  -0.005169
    19  H   -0.040899  -0.007067   0.048502  -0.096417  -0.048795   0.053792
    20  H    0.006510   0.002014  -0.005270   0.006323   0.442710  -0.083764
    21  H   -0.001246  -0.000400   0.000389   0.000361  -0.064031   0.363978
    22  H    0.000275   0.000287  -0.000297  -0.001230   0.009063  -0.013072
    23  H    0.007143  -0.002012   0.000979   0.003787   0.028282   0.005167
    24  H    0.038808   0.016173  -0.001381  -0.011239  -0.012406  -0.001729
    25  H    0.038784   0.016168  -0.001383  -0.011241  -0.012401  -0.001733
               7          8          9         10         11         12
     1  C   -0.034472   0.402323  -1.069202  -1.148439   0.385841  -1.780329
     2  C   -0.001840   0.001736  -0.939792   0.139454  -0.672975   0.973259
     3  C   -0.013193  -0.107551   0.283928  -0.226852   0.759542  -1.361526
     4  C    0.035181  -0.095260   0.226990  -2.799573  -0.595303  -1.779688
     5  C   -1.170319   2.224962  -0.475060  -2.263769  -1.291260  -0.135666
     6  C    0.110270  -0.314498   0.310997  -0.502371  -0.031396  -0.369598
     7  C    7.211090  -0.092393  -0.759042   0.400908  -0.375805  -0.003751
     8  C   -0.092393   9.030410  -1.129543  -1.387396   0.284454  -0.961952
     9  C   -0.759042  -1.129543   9.673313   0.202257   1.480605  -2.283321
    10  C    0.400908  -1.387396   0.202257   9.052392  -0.192243   2.357804
    11  C   -0.375805   0.284454   1.480605  -0.192243  14.779866  -4.137668
    12  C   -0.003751  -0.961952  -2.283321   2.357804  -4.137668  16.487979
    13  C   -1.127677   0.343869   1.431737  -0.676583   1.020224  -4.496641
    14  C    1.952800  -2.696017  -1.519034   2.513748  -4.869071   3.021103
    15  H   -0.002959   0.004360   0.088553  -0.007280  -0.034216  -0.005912
    16  H    0.000404   0.001247   0.002704  -0.010149   0.027350  -0.032755
    17  H   -0.000361  -0.001383  -0.004091   0.018210  -0.018406   0.075346
    18  H    0.002204   0.006973  -0.019963   0.003393  -0.011963  -0.045007
    19  H   -0.009407  -0.047337   0.071572   0.418622   0.076452  -0.108077
    20  H    0.003071   0.053231  -0.026739   0.020408  -0.012158  -0.000254
    21  H   -0.001329  -0.037545  -0.006694   0.020636  -0.006135   0.004611
    22  H    0.373985  -0.016956   0.003009  -0.007616   0.001642  -0.006519
    23  H   -0.111275   0.370230   0.093610  -0.011778   0.011965   0.002489
    24  H    0.011840   0.025247   0.356048   0.005307   0.028982  -0.058730
    25  H    0.011836   0.025230   0.356072   0.005311   0.028983  -0.058700
              13         14         15         16         17         18
     1  C    0.236302  -1.224121   0.366795  -0.019354  -0.016392   0.046246
     2  C   -0.194709  -0.312764  -0.105739   0.380738  -0.025922   0.003030
     3  C   -0.279617  -0.050120  -0.004211  -0.023113   0.382684  -0.084085
     4  C   -1.626824  -0.643936   0.025605   0.018059  -0.067848   0.479433
     5  C   -0.124375  -1.532877   0.006380  -0.001629   0.000104   0.005572
     6  C    1.268267  -1.601731   0.001210  -0.000345   0.000402  -0.005169
     7  C   -1.127677   1.952800  -0.002959   0.000404  -0.000361   0.002204
     8  C    0.343869  -2.696017   0.004360   0.001247  -0.001383   0.006973
     9  C    1.431737  -1.519034   0.088553   0.002704  -0.004091  -0.019963
    10  C   -0.676583   2.513748  -0.007280  -0.010149   0.018210   0.003393
    11  C    1.020224  -4.869071  -0.034216   0.027350  -0.018406  -0.011963
    12  C   -4.496641   3.021103  -0.005912  -0.032755   0.075346  -0.045007
    13  C   13.978576  -3.175733  -0.005380   0.003931  -0.006256  -0.012479
    14  C   -3.175733  15.672794   0.008346  -0.011100   0.005282  -0.030144
    15  H   -0.005380   0.008346   0.431152  -0.008464   0.001590   0.000294
    16  H    0.003931  -0.011100  -0.008464   0.411741  -0.006763   0.002018
    17  H   -0.006256   0.005282   0.001590  -0.006763   0.418914  -0.010257
    18  H   -0.012479  -0.030144   0.000294   0.002018  -0.010257   0.447110
    19  H    0.086796  -0.022547   0.000425  -0.000560   0.001763  -0.005907
    20  H   -0.002961  -0.068151  -0.000125   0.000021  -0.000170   0.001262
    21  H   -0.031905   0.103558   0.000018  -0.000007   0.000010  -0.000116
    22  H    0.022322  -0.027790  -0.000123   0.000007  -0.000006   0.000011
    23  H   -0.028482  -0.044721   0.000545  -0.000126   0.000010  -0.000103
    24  H   -0.004395  -0.057168  -0.001009   0.000610  -0.000130   0.000127
    25  H   -0.004403  -0.057151  -0.001008   0.000610  -0.000130   0.000127
              19         20         21         22         23         24
     1  C   -0.040899   0.006510  -0.001246   0.000275   0.007143   0.038808
     2  C   -0.007067   0.002014  -0.000400   0.000287  -0.002012   0.016173
     3  C    0.048502  -0.005270   0.000389  -0.000297   0.000979  -0.001381
     4  C   -0.096417   0.006323   0.000361  -0.001230   0.003787  -0.011239
     5  C   -0.048795   0.442710  -0.064031   0.009063   0.028282  -0.012406
     6  C    0.053792  -0.083764   0.363978  -0.013072   0.005167  -0.001729
     7  C   -0.009407   0.003071  -0.001329   0.373985  -0.111275   0.011840
     8  C   -0.047337   0.053231  -0.037545  -0.016956   0.370230   0.025247
     9  C    0.071572  -0.026739  -0.006694   0.003009   0.093610   0.356048
    10  C    0.418622   0.020408   0.020636  -0.007616  -0.011778   0.005307
    11  C    0.076452  -0.012158  -0.006135   0.001642   0.011965   0.028982
    12  C   -0.108077  -0.000254   0.004611  -0.006519   0.002489  -0.058730
    13  C    0.086796  -0.002961  -0.031905   0.022322  -0.028482  -0.004395
    14  C   -0.022547  -0.068151   0.103558  -0.027790  -0.044721  -0.057168
    15  H    0.000425  -0.000125   0.000018  -0.000123   0.000545  -0.001009
    16  H   -0.000560   0.000021  -0.000007   0.000007  -0.000126   0.000610
    17  H    0.001763  -0.000170   0.000010  -0.000006   0.000010  -0.000130
    18  H   -0.005907   0.001262  -0.000116   0.000011  -0.000103   0.000127
    19  H    0.444389  -0.007054   0.001097  -0.000506   0.000226   0.000572
    20  H   -0.007054   0.459722  -0.009838   0.001843  -0.000046   0.000237
    21  H    0.001097  -0.009838   0.424141  -0.005864   0.001297  -0.000148
    22  H   -0.000506   0.001843  -0.005864   0.425861  -0.009225   0.000644
    23  H    0.000226  -0.000046   0.001297  -0.009225   0.447612  -0.000722
    24  H    0.000572   0.000237  -0.000148   0.000644  -0.000722   0.492603
    25  H    0.000572   0.000238  -0.000148   0.000644  -0.000722  -0.078326
              25
     1  C    0.038784
     2  C    0.016168
     3  C   -0.001383
     4  C   -0.011241
     5  C   -0.012401
     6  C   -0.001733
     7  C    0.011836
     8  C    0.025230
     9  C    0.356072
    10  C    0.005311
    11  C    0.028983
    12  C   -0.058700
    13  C   -0.004403
    14  C   -0.057151
    15  H   -0.001008
    16  H    0.000610
    17  H   -0.000130
    18  H    0.000127
    19  H    0.000572
    20  H    0.000238
    21  H   -0.000148
    22  H    0.000644
    23  H   -0.000722
    24  H   -0.078326
    25  H    0.492591
 Mulliken charges:
               1
     1  C    0.062644
     2  C   -0.394243
     3  C   -0.427091
     4  C    0.043370
     5  C   -0.029785
     6  C   -0.451665
     7  C   -0.409767
     8  C    0.113558
     9  C   -0.348914
    10  C    0.075599
    11  C   -0.637307
    12  C    0.703503
    13  C   -0.593604
    14  C    0.666545
    15  H    0.241151
    16  H    0.264925
    17  H    0.253800
    18  H    0.227392
    19  H    0.189793
    20  H    0.218940
    21  H    0.245310
    22  H    0.249613
    23  H    0.235870
    24  H    0.250184
    25  H    0.250178
 Sum of Mulliken charges =   1.00000
 Mulliken charges with hydrogens summed into heavy atoms:
               1
     1  C    0.303795
     2  C   -0.129318
     3  C   -0.173291
     4  C    0.270762
     5  C    0.189154
     6  C   -0.206355
     7  C   -0.160153
     8  C    0.349428
     9  C    0.151448
    10  C    0.265392
    11  C   -0.637307
    12  C    0.703503
    13  C   -0.593604
    14  C    0.666545
 Electronic spatial extent (au):  <R**2>=           2868.4774
 Charge=              1.0000 electrons
 Dipole moment (field-independent basis, Debye):
    X=              1.6116    Y=              0.1379    Z=              0.0000  Tot=              1.6175
 Quadrupole moment (field-independent basis, Debye-Ang):
   XX=            -30.6062   YY=            -56.2211   ZZ=            -84.2449
   XY=              0.1299   XZ=              0.0002   YZ=             -0.0000
 Traceless Quadrupole moment (field-independent basis, Debye-Ang):
   XX=             26.4179   YY=              0.8030   ZZ=            -27.2208
   XY=              0.1299   XZ=              0.0002   YZ=             -0.0000
 Octapole moment (field-independent basis, Debye-Ang**2):
  XXX=             17.9082  YYY=              5.2433  ZZZ=              0.0000  XYY=              3.7790
  XXY=             -5.5352  XXZ=             -0.0000  XZZ=              2.3503  YZZ=             -3.1539
  YYZ=              0.0000  XYZ=             -0.0004
 Hexadecapole moment (field-independent basis, Debye-Ang**3):
 XXXX=          -2124.7525 YYYY=           -611.7653 ZZZZ=            -99.6446 XXXY=             -3.6814
 XXXZ=             -0.0007 YYYX=              1.4663 YYYZ=             -0.0002 ZZZX=             -0.0002
 ZZZY=             -0.0001 XXYY=           -508.8786 XXZZ=           -594.0060 YYZZ=           -146.4590
 XXYZ=              0.0001 YYXZ=              0.0008 ZZXY=              0.7517
 N-N= 7.795377173850D+02 E-N=-2.795351313264D+03  KE= 5.374143176014D+02
 Orbital energies and kinetic energies (alpha):
                                 1                 2
  43         O                -0.539612          1.561790
  44         O                -0.523379          1.039450
  45         O                -0.478278          1.143445
  46         O                -0.460873          1.147780
  47         O                -0.431960          1.150888
  48         V                -0.261550          1.268534
  49         V                -0.147551          1.114555
  50         V                -0.140319          1.302661
  51         V                -0.127934          1.274671
  52         V                -0.111946          0.204552
 Total kinetic energy from orbitals= 5.374143176014D+02
 Unable to Open any file for archive entry.
 1\1\GINC-GADI-CPU-CLX-0957\SP\RM062X\6-311++G(d,p)\C14H11(1+)\TS1578\1
 4-Jul-2022\0\\#n M062X/6-311++G(d,p) SP pop=reg formcheck\\SP_-18\\1,1
 \C,0,2.4650677595,1.3724306935,0.\C,0,3.6743219204,0.6676523923,0.\C,0
 ,3.6732960607,-0.7375777883,0.\C,0,2.5086104514,-1.4177315675,0.\C,0,-
 2.4292095486,-1.387079126,0.\C,0,-3.7113346327,-0.6760882519,0.\C,0,-3
 .7452287731,0.6960889947,0.\C,0,-2.5309889741,1.3731693065,0.\C,0,-0.0
 153262208,1.4653874272,0.\C,0,0.0577964711,-1.4243453467,0.\C,0,1.2838
 239393,0.7104116578,0.\C,0,1.2551476077,-0.7273377185,0.\C,0,-1.245231
 4075,0.664802302,0.\C,0,-1.2261570455,-0.7193976282,0.\H,0,2.484679417
 3,2.4572067337,0.\H,0,4.6129791465,1.2096349651,0.\H,0,4.6159822815,-1
 .270098412,0.\H,0,2.4931632458,-2.5010789947,0.\H,0,0.049302421,-2.507
 2006935,0.\H,0,-2.4540167542,-2.4726423923,0.\H,0,-4.623368412,-1.2627
 122815,0.\H,0,-4.6807468937,1.2358557284,0.\H,0,-2.5053605827,2.458868
 613,0.\H,0,-0.0851251539,2.1568646533,-0.8632160402\H,0,-0.0853098071,
 2.1568646533,0.8632160402\\Version=ES64L-G16RevC.01\State=1-A\HF=-539.
 7445491\RMSD=3.865e-09\Dipole=0.6334454,-0.0608555,-0.000001\Quadrupol
 e=19.6369526,0.6010652,-20.2380178,-0.2952333,-0.0001252,-0.0000054\PG
 =C01 [X(C14H11)]\\@
 The archive entry for this job was punched.


 THE PROBLEM WITH THE LADDER OF SUCCESS IS YOU CAN'T
 CLIMB IT WHILE YOU'RE TWIDDLING YOUR THUMBS.
 FChkPn:  Coordinates translated and rotated.
 FChkPn:  Coordinates match /B/ after translation and rotation.
 Job cpu time:       0 days  0 hours 20 minutes  8.3 seconds.
 Elapsed time:       0 days  0 hours  2 minutes 53.5 seconds.
 File lengths (MBytes):  RWF=     80 Int=      0 D2E=      0 Chk=     10 Scr=      1
 Normal termination of Gaussian 16 at Thu Jul 14 17:33:21 2022.
