 argument  1 = fexcnw-4.nw
 


============================== echo of input deck ==============================
echo

restart fexcnw-4

title fexcnw-4
charge 1

geometry units angstroms print xyz autosym
    C                     -2.47332787       1.38356056   0.00000000
    C                     -3.68688958       0.69345348   0.00000000
    C                     -3.70297787      -0.70841605   0.00000000
    C                     -2.52184172      -1.40894861   0.00000000
    C                      2.43744681      -1.41016255   0.00000000
    C                      3.70491288      -0.73480196   0.00000000
    C                      3.75350449       0.64358401   0.00000000
    C                      2.55122219       1.33653502   0.00000000
    C                      0.02879271       1.47372713   0.00000000
    C                     -0.07127941      -1.43062525   0.00000000
    C                     -1.26856833       0.70661571   0.00000000
    C                     -1.26565516      -0.72984216   0.00000000
    C                      1.27326976       0.65342507   0.00000000
    C                      1.22590146      -0.72461784   0.00000000
    H                     -2.48088206       2.46581069   0.00000000
    H                     -4.61624260       1.24413091   0.00000000
    H                     -4.64613039      -1.23596669   0.00000000
    H                     -2.52561802      -2.49012991   0.00000000
    H                     -0.07146891      -2.51009199   0.00000000
    H                      2.43963241      -2.49264802   0.00000000
    H                      4.60925165      -1.32592047   0.00000000
    H                      4.69505373       1.17088471   0.00000000
    H                      2.54967909       2.41889405   0.00000000
    H                      0.06896188       2.15166033   0.86431926
    H                      0.06896188       2.15166033  -0.86431926
end

basis
  * library 6-311++G(2d,2p)
end

dft
  xc b3lyp
  mult 1
  iterations 300
end

tddft
  cis
  nroots 3
  notriplet
  target 1
  civecs
  grad
    root 1
  end
end

driver
  maxiter 50
end

task tddft freq
================================================================================


                                         
                                         
 
 
             Northwest Computational Chemistry Package (NWChem) 7.0.0
             --------------------------------------------------------
 
 
                    Environmental Molecular Sciences Laboratory
                       Pacific Northwest National Laboratory
                                Richland, WA 99352
 
                              Copyright (c) 1994-2019
                       Pacific Northwest National Laboratory
                            Battelle Memorial Institute
 
             NWChem is an open-source computational chemistry package
                        distributed under the terms of the
                      Educational Community License (ECL) 2.0
             A copy of the license is included with this distribution
                              in the LICENSE.TXT file
 
                                  ACKNOWLEDGMENT
                                  --------------

            This software and its documentation were developed at the
            EMSL at Pacific Northwest National Laboratory, a multiprogram
            national laboratory, operated for the U.S. Department of Energy
            by Battelle under Contract Number DE-AC05-76RL01830. Support
            for this work was provided by the Department of Energy Office
            of Biological and Environmental Research, Office of Basic
            Energy Sciences, and the Office of Advanced Scientific Computing.


           Job information
           ---------------

    hostname        = gadi-cpu-clx-2302.gadi.nci.org.au
    program         = nwchem
    date            = Tue Sep 14 09:30:31 2021

    compiled        = Tue_Apr_28_15:46:55_2020
    source          = /jobfs/4837200.gadi-pbs/0/nwchem/7.0.0/source/nwchem-7.0.0
    nwchem branch   = 7.0.0
    nwchem revision = 36492d0
    ga revision     = N/A
    use scalapack   = T
    input           = fexcnw-4.nw
    prefix          = fexcnw-4.
    data base       = ./fexcnw-4.db
    status          = restart
    nproc           =       32
    time left       =     -1s



           Memory information
           ------------------

    heap     =   13107200 doubles =    100.0 Mbytes
    stack    =   13107197 doubles =    100.0 Mbytes
    global   =   26214400 doubles =    200.0 Mbytes (distinct from heap & stack)
    total    =   52428797 doubles =    400.0 Mbytes
    verify   = yes
    hardfail = no 


           Directory information
           ---------------------
 
  0 permanent = .
  0 scratch   = /jobfs/28366860.gadi-pbs
 
 
           Previous task information
           -------------------------

    Theory    = tddft                           
    Operation = freq                          
    Status    = fail                          
    Qmmm      = F
    Ignore    = F

 
           Geometries in the database
           --------------------------
 
       Name                              Natoms  Last Modified
       --------------------------------  ------  ------------------------
    1  geometry                              25  Mon Sep 13 10:58:10 2021  
    2  reference                             25  Mon Sep 13 11:16:30 2021  
    3  reference   6 2 minus                 25  Tue Sep 14 09:06:20 2021  
 
  The geometry named "reference   6 2 minus" is the default for restart
 
 
 
           Basis sets in the database
           --------------------------
 
       Name                              Natoms  Last Modified
        --------------------------------  ------  ------------------------
    1  ao basis                               0  Mon Sep 13 10:58:10 2021  
 
  The basis set named "ao basis" is the default AO basis for restart
 
 
 
 
                                NWChem Input Module
                                -------------------
 
 
                                     fexcnw-4
                                     --------

 Scaling coordinates for geometry "geometry" by  1.889725989
 (inverse scale =  0.529177249)

 CS  symmetry detected

          ------
          auto-z
          ------
  no constraints, skipping   0.000000000000000E+000
  no constraints, skipping   0.000000000000000E+000
 
 
                             Geometry "geometry" -> ""
                             -------------------------
 
 Output coordinates in angstroms (scale by  1.889725989 to convert to a.u.)
 
  No.       Tag          Charge          X              Y              Z
 ---- ---------------- ---------- -------------- -------------- --------------
    1 C                    6.0000     1.38310590     2.47350966     0.00000000
    2 C                    6.0000     0.69282328     3.68697153     0.00000000
    3 C                    6.0000    -0.70904857     3.70285704     0.00000000
    4 C                    6.0000    -1.40941026     2.52161956     0.00000000
    5 C                    6.0000    -1.40990682    -2.43766909     0.00000000
    6 C                    6.0000    -0.73436290    -3.70503745     0.00000000
    7 C                    6.0000     0.64403009    -3.75342968     0.00000000
    8 C                    6.0000     1.33680718    -2.55104715     0.00000000
    9 C                    6.0000     1.47363441    -0.02859785     0.00000000
   10 C                    6.0000    -1.43073242     0.07105414     0.00000000
   11 C                    6.0000     0.70633533     1.26865221     0.00000000
   12 C                    6.0000    -0.73012211     1.26553125     0.00000000
   13 C                    6.0000     0.65351237    -1.27319355     0.00000000
   14 C                    6.0000    -0.72453738    -1.22602459     0.00000000
   15 H                    1.0000     2.46535492     2.48122040     0.00000000
   16 H                    1.0000     1.24336627     4.61640420     0.00000000
   17 H                    1.0000    -1.23673563     4.64593323     0.00000000
   18 H                    1.0000    -2.49059210     2.52523947     0.00000000
   19 H                    1.0000    -2.51019918     0.07108749     0.00000000
   20 H                    1.0000    -2.49239197    -2.44001128     0.00000000
   21 H                    1.0000    -1.32535059    -4.60946172     0.00000000
   22 H                    1.0000     1.17146698    -4.69490263     0.00000000
   23 H                    1.0000     2.41916597    -2.54934748     0.00000000
   24 H                    1.0000     2.15157341    -0.06866896     0.86431926
   25 H                    1.0000     2.15157341    -0.06866896    -0.86431926
 
      Atomic Mass 
      ----------- 
 
      C                 12.000000
      H                  1.007825
 

 Effective nuclear repulsion energy (a.u.)     777.9499637234

            Nuclear Dipole moment (a.u.) 
            ----------------------------
        X                 Y               Z
 ---------------- ---------------- ----------------
    -0.0000000000     0.0000000000     0.0000000000
 
      Symmetry information
      --------------------
 
 Group name             Cs        
 Group number              2
 Group order               2
 No. of unique centers    24
 
      Symmetry unique atoms
 
     1    2    3    4    5    6    7    8    9   10   11   12   13   14   15
    16   17   18   19   20   21   22   23   24
 


                                Z-matrix (autoz)
                                -------- 

 Units are Angstrom for bonds and degrees for angles
 
      Type          Name      I     J     K     L     M      Value
      ----------- --------  ----- ----- ----- ----- ----- ----------
    1 Stretch                  1     2                       1.39606
    2 Stretch                  1    11                       1.38192
    3 Stretch                  1    15                       1.08228
    4 Stretch                  2     3                       1.40196
    5 Stretch                  2    16                       1.08025
    6 Stretch                  3     4                       1.37325
    7 Stretch                  3    17                       1.08067
    8 Stretch                  4    12                       1.42800
    9 Stretch                  4    18                       1.08119
   10 Stretch                  5     6                       1.43617
   11 Stretch                  5    14                       1.39205
   12 Stretch                  5    20                       1.08249
   13 Stretch                  6     7                       1.37924
   14 Stretch                  6    21                       1.08039
   15 Stretch                  7     8                       1.38768
   16 Stretch                  7    22                       1.07915
   17 Stretch                  8    13                       1.44907
   18 Stretch                  8    23                       1.08236
   19 Stretch                  9    11                       1.50718
   20 Stretch                  9    13                       1.49051
   21 Stretch                  9    24                       1.09921
   22 Stretch                  9    25                       1.09921
   23 Stretch                 10    12                       1.38479
   24 Stretch                 10    14                       1.47686
   25 Stretch                 10    19                       1.07947
   26 Stretch                 11    12                       1.43646
   27 Stretch                 13    14                       1.37886
   28 Bend                     1     2     3               120.28278
   29 Bend                     1     2    16               119.72636
   30 Bend                     1    11     9               120.07348
   31 Bend                     1    11    12               119.44748
   32 Bend                     2     1    11               121.04344
   33 Bend                     2     1    15               119.22535
   34 Bend                     2     3     4               120.01469
   35 Bend                     2     3    17               119.87790
   36 Bend                     3     2    16               119.99086
   37 Bend                     3     4    12               120.93172
   38 Bend                     3     4    18               120.47209
   39 Bend                     4     3    17               120.10741
   40 Bend                     4    12    10               121.20224
   41 Bend                     4    12    11               118.27988
   42 Bend                     5     6     7               120.06960
   43 Bend                     5     6    21               118.77886
   44 Bend                     5    14    10               121.93913
   45 Bend                     5    14    13               117.53437
   46 Bend                     6     5    14               122.44633
   47 Bend                     6     5    20               117.93493
   48 Bend                     6     7     8               117.93857
   49 Bend                     6     7    22               121.26935
   50 Bend                     7     6    21               121.15154
   51 Bend                     7     8    13               121.91639
   52 Bend                     7     8    23               120.03924
   53 Bend                     8     7    22               120.79208
   54 Bend                     8    13     9               118.48291
   55 Bend                     8    13    14               120.09474
   56 Bend                     9    11    12               120.47903
   57 Bend                     9    13    14               121.42235
   58 Bend                    10    12    11               120.51787
   59 Bend                    10    14    13               120.52650
   60 Bend                    11     1    15               119.73121
   61 Bend                    11     9    13               116.01373
   62 Bend                    11     9    24               110.20392
   63 Bend                    11     9    25               110.20392
   64 Bend                    12     4    18               118.59620
   65 Bend                    12    10    14               121.04051
   66 Bend                    12    10    19               120.39162
   67 Bend                    13     8    23               118.04437
   68 Bend                    13     9    24               107.99389
   69 Bend                    13     9    25               107.99389
   70 Bend                    14     5    20               119.61874
   71 Bend                    14    10    19               118.56787
   72 Bend                    24     9    25               103.68438
   73 Torsion                  1     2     3     4           0.00000
   74 Torsion                  1     2     3    17         180.00000
   75 Torsion                  1    11     9    13         180.00000
   76 Torsion                  1    11     9    24          56.91550
   77 Torsion                  1    11     9    25         -56.91550
   78 Torsion                  1    11    12     4           0.00000
   79 Torsion                  1    11    12    10         180.00000
   80 Torsion                  2     1    11     9         180.00000
   81 Torsion                  2     1    11    12           0.00000
   82 Torsion                  2     3     4    12           0.00000
   83 Torsion                  2     3     4    18         180.00000
   84 Torsion                  3     2     1    11           0.00000
   85 Torsion                  3     2     1    15         180.00000
   86 Torsion                  3     4    12    10         180.00000
   87 Torsion                  3     4    12    11           0.00000
   88 Torsion                  4     3     2    16         180.00000
   89 Torsion                  4    12    10    14         180.00000
   90 Torsion                  4    12    10    19           0.00000
   91 Torsion                  4    12    11     9         180.00000
   92 Torsion                  5     6     7     8           0.00000
   93 Torsion                  5     6     7    22         180.00000
   94 Torsion                  5    14    10    12         180.00000
   95 Torsion                  5    14    10    19           0.00000
   96 Torsion                  5    14    13     8           0.00000
   97 Torsion                  5    14    13     9         180.00000
   98 Torsion                  6     5    14    10         180.00000
   99 Torsion                  6     5    14    13           0.00000
  100 Torsion                  6     7     8    13           0.00000
  101 Torsion                  6     7     8    23         180.00000
  102 Torsion                  7     6     5    14           0.00000
  103 Torsion                  7     6     5    20         180.00000
  104 Torsion                  7     8    13     9         180.00000
  105 Torsion                  7     8    13    14           0.00000
  106 Torsion                  8     7     6    21         180.00000
  107 Torsion                  8    13     9    11         180.00000
  108 Torsion                  8    13     9    24         -55.76619
  109 Torsion                  8    13     9    25          55.76619
  110 Torsion                  8    13    14    10         180.00000
  111 Torsion                  9    11     1    15           0.00000
  112 Torsion                  9    11    12    10           0.00000
  113 Torsion                  9    13     8    23           0.00000
  114 Torsion                  9    13    14    10           0.00000
  115 Torsion                 10    12     4    18           0.00000
  116 Torsion                 10    14     5    20           0.00000
  117 Torsion                 11     1     2    16         180.00000
  118 Torsion                 11     9    13    14           0.00000
  119 Torsion                 11    12     4    18         180.00000
  120 Torsion                 11    12    10    14           0.00000
  121 Torsion                 11    12    10    19         180.00000
  122 Torsion                 12     4     3    17         180.00000
  123 Torsion                 12    10    14    13           0.00000
  124 Torsion                 12    11     1    15         180.00000
  125 Torsion                 12    11     9    13           0.00000
  126 Torsion                 12    11     9    24        -123.08450
  127 Torsion                 12    11     9    25         123.08450
  128 Torsion                 13     8     7    22         180.00000
  129 Torsion                 13    14     5    20         180.00000
  130 Torsion                 13    14    10    19         180.00000
  131 Torsion                 14     5     6    21         180.00000
  132 Torsion                 14    13     8    23         180.00000
  133 Torsion                 14    13     9    24         124.23381
  134 Torsion                 14    13     9    25        -124.23381
  135 Torsion                 15     1     2    16           0.00000
  136 Torsion                 16     2     3    17           0.00000
  137 Torsion                 17     3     4    18           0.00000
  138 Torsion                 20     5     6    21           0.00000
  139 Torsion                 21     6     7    22           0.00000
  140 Torsion                 22     7     8    23           0.00000
 
 
            XYZ format geometry
            -------------------
    25
 geometry
 C                     1.38310590     2.47350966     0.00000000
 C                     0.69282328     3.68697153     0.00000000
 C                    -0.70904857     3.70285704     0.00000000
 C                    -1.40941026     2.52161956     0.00000000
 C                    -1.40990682    -2.43766909     0.00000000
 C                    -0.73436290    -3.70503745     0.00000000
 C                     0.64403009    -3.75342968     0.00000000
 C                     1.33680718    -2.55104715     0.00000000
 C                     1.47363441    -0.02859785     0.00000000
 C                    -1.43073242     0.07105414     0.00000000
 C                     0.70633533     1.26865221     0.00000000
 C                    -0.73012211     1.26553125     0.00000000
 C                     0.65351237    -1.27319355     0.00000000
 C                    -0.72453738    -1.22602459     0.00000000
 H                     2.46535492     2.48122040     0.00000000
 H                     1.24336627     4.61640420     0.00000000
 H                    -1.23673563     4.64593323     0.00000000
 H                    -2.49059210     2.52523947     0.00000000
 H                    -2.51019918     0.07108749     0.00000000
 H                    -2.49239197    -2.44001128     0.00000000
 H                    -1.32535059    -4.60946172     0.00000000
 H                     1.17146698    -4.69490263     0.00000000
 H                     2.41916597    -2.54934748     0.00000000
 H                     2.15157341    -0.06866896     0.86431926
 H                     2.15157341    -0.06866896    -0.86431926
 
 ==============================================================================
                                internuclear distances
 ------------------------------------------------------------------------------
       center one      |      center two      | atomic units |  angstroms
 ------------------------------------------------------------------------------
    2 C                |   1 C                |     2.63817  |     1.39606
    3 C                |   2 C                |     2.64932  |     1.40196
    4 C                |   3 C                |     2.59508  |     1.37325
    6 C                |   5 C                |     2.71397  |     1.43617
    7 C                |   6 C                |     2.60639  |     1.37924
    8 C                |   7 C                |     2.62234  |     1.38768
   11 C                |   1 C                |     2.61145  |     1.38192
   11 C                |   9 C                |     2.84817  |     1.50718
   12 C                |   4 C                |     2.69853  |     1.42800
   12 C                |  10 C                |     2.61686  |     1.38479
   12 C                |  11 C                |     2.71452  |     1.43646
   13 C                |   8 C                |     2.73834  |     1.44907
   13 C                |   9 C                |     2.81665  |     1.49051
   14 C                |   5 C                |     2.63060  |     1.39205
   14 C                |  10 C                |     2.79087  |     1.47686
   14 C                |  13 C                |     2.60566  |     1.37886
   15 H                |   1 C                |     2.04521  |     1.08228
   16 H                |   2 C                |     2.04138  |     1.08025
   17 H                |   3 C                |     2.04217  |     1.08067
   18 H                |   4 C                |     2.04315  |     1.08119
   19 H                |  10 C                |     2.03990  |     1.07947
   20 H                |   5 C                |     2.04561  |     1.08249
   21 H                |   6 C                |     2.04165  |     1.08039
   22 H                |   7 C                |     2.03929  |     1.07915
   23 H                |   8 C                |     2.04536  |     1.08236
   24 H                |   9 C                |     2.07720  |     1.09921
   25 H                |   9 C                |     2.07720  |     1.09921
 ------------------------------------------------------------------------------
                         number of included internuclear distances:         27
 ==============================================================================



 ==============================================================================
                                 internuclear angles
 ------------------------------------------------------------------------------
        center 1       |       center 2       |       center 3       |  degrees
 ------------------------------------------------------------------------------
    2 C                |   1 C                |  11 C                |   121.04
    2 C                |   1 C                |  15 H                |   119.23
   11 C                |   1 C                |  15 H                |   119.73
    1 C                |   2 C                |   3 C                |   120.28
    1 C                |   2 C                |  16 H                |   119.73
    3 C                |   2 C                |  16 H                |   119.99
    2 C                |   3 C                |   4 C                |   120.01
    2 C                |   3 C                |  17 H                |   119.88
    4 C                |   3 C                |  17 H                |   120.11
    3 C                |   4 C                |  12 C                |   120.93
    3 C                |   4 C                |  18 H                |   120.47
   12 C                |   4 C                |  18 H                |   118.60
    6 C                |   5 C                |  14 C                |   122.45
    6 C                |   5 C                |  20 H                |   117.93
   14 C                |   5 C                |  20 H                |   119.62
    5 C                |   6 C                |   7 C                |   120.07
    5 C                |   6 C                |  21 H                |   118.78
    7 C                |   6 C                |  21 H                |   121.15
    6 C                |   7 C                |   8 C                |   117.94
    6 C                |   7 C                |  22 H                |   121.27
    8 C                |   7 C                |  22 H                |   120.79
    7 C                |   8 C                |  13 C                |   121.92
    7 C                |   8 C                |  23 H                |   120.04
   13 C                |   8 C                |  23 H                |   118.04
   11 C                |   9 C                |  13 C                |   116.01
   11 C                |   9 C                |  24 H                |   110.20
   11 C                |   9 C                |  25 H                |   110.20
   13 C                |   9 C                |  24 H                |   107.99
   13 C                |   9 C                |  25 H                |   107.99
   24 H                |   9 C                |  25 H                |   103.68
   12 C                |  10 C                |  14 C                |   121.04
   12 C                |  10 C                |  19 H                |   120.39
   14 C                |  10 C                |  19 H                |   118.57
    1 C                |  11 C                |   9 C                |   120.07
    1 C                |  11 C                |  12 C                |   119.45
    9 C                |  11 C                |  12 C                |   120.48
    4 C                |  12 C                |  10 C                |   121.20
    4 C                |  12 C                |  11 C                |   118.28
   10 C                |  12 C                |  11 C                |   120.52
    8 C                |  13 C                |   9 C                |   118.48
    8 C                |  13 C                |  14 C                |   120.09
    9 C                |  13 C                |  14 C                |   121.42
    5 C                |  14 C                |  10 C                |   121.94
    5 C                |  14 C                |  13 C                |   117.53
   10 C                |  14 C                |  13 C                |   120.53
 ------------------------------------------------------------------------------
                            number of included internuclear angles:         45
 ==============================================================================



  library name resolved from: environment
  library file name is: </apps/nwchem/7.0.0/data/basissets/>
  


 Summary of "ao basis" -> "" (cartesian)
 ------------------------------------------------------------------------------
       Tag                 Description            Shells   Functions and Types
 ---------------- ------------------------------  ------  ---------------------
 *                      6-311++G(2d,2p)               on all atoms 


 tddft_input: filename not found; default name will be used
 
 
                   NWChem Nuclear Hessian and Frequency Analysis
                   ---------------------------------------------
 
 
 
                         NWChem Finite-difference Hessian
                         --------------------------------
 
 
  
 initial hessian

              1        2        3        4        5        6        7        8
    1    0.7233  -0.0074  -0.0000   0.0000   0.0000   0.0000   0.0000   0.0000
    2   -0.0061   0.5865   0.0000   0.0000   0.0000   0.0000   0.0000   0.0000
    3    0.0000  -0.0000   0.1366   0.0000   0.0000   0.0000   0.0000   0.0000
    4   -0.3670   0.0903   0.0000   0.6238   0.0550   0.0000   0.0000   0.0000
    5    0.2300  -0.4990   0.0000   0.0558   0.6900  -0.0000   0.0000   0.0000
    6    0.0000   0.0000  -0.1257  -0.0000  -0.0000   0.1400   0.0000   0.0000
    7   -0.0243   0.0843   0.0000  -0.6016  -0.0397  -0.0000   0.6073  -0.0569
    8    0.0739   0.0669  -0.0000   0.0608  -0.2531  -0.0000  -0.0556   0.7157
    9    0.0000  -0.0000   0.0123  -0.0000   0.0000  -0.1282  -0.0000  -0.0000
   10   -0.0010  -0.0123   0.0000  -0.0480  -0.0609   0.0000  -0.3703  -0.2473
   11   -0.0137  -0.0980   0.0000  -0.0908   0.0414   0.0000  -0.1238  -0.6083
   12   -0.0000  -0.0000  -0.0066   0.0000   0.0000   0.0131  -0.0000   0.0000
   13   -0.0026  -0.0001  -0.0000   0.0037  -0.0016   0.0000  -0.0042  -0.0046
   14    0.0013   0.0203   0.0000   0.0051  -0.0021  -0.0000   0.0003  -0.0068
   15    0.0000   0.0000   0.0002   0.0000  -0.0000   0.0002  -0.0000   0.0000
   16   -0.0064   0.0120   0.0000  -0.0068  -0.0047   0.0000   0.0153   0.0013

              9       10       11       12       13       14       15       16
    7    0.0000   0.0000   0.0000   0.0000   0.0000   0.0000   0.0000   0.0000
    8    0.0000   0.0000   0.0000   0.0000   0.0000   0.0000   0.0000   0.0000
    9    0.1379   0.0000   0.0000   0.0000   0.0000   0.0000   0.0000   0.0000
   10    0.0000   0.7190   0.0507   0.0000   0.0000   0.0000   0.0000   0.0000
   11   -0.0000   0.0544   0.6061   0.0000   0.0000   0.0000   0.0000   0.0000
   12   -0.1245   0.0000  -0.0000   0.1383   0.0000   0.0000   0.0000   0.0000
   13    0.0000   0.0042   0.0013   0.0000   0.7059   0.0306   0.0000   0.0000
   14   -0.0000   0.0034  -0.0207   0.0000   0.0250   0.5720  -0.0000   0.0000
   15    0.0003   0.0000  -0.0000  -0.0003   0.0000   0.0000   0.1548   0.0000
   16    0.0000   0.0074  -0.0201  -0.0000  -0.3550   0.0773   0.0000   0.6626

             17       18       19       20       21       22       23       24
   16    0.0820   0.0000   0.0000   0.0000   0.0000   0.0000   0.0000   0.0000

             25       26       27       28       29       30       31       32

             33       34       35       36       37       38       39       40

             41       42       43       44       45       46       47       48

             49       50       51       52       53       54       55       56

             57       58       59       60       61       62       63       64

             65       66       67       68       69       70       71       72

             73       74       75      
  
  **** gen_hess restart ****
  iatom_start =                      6
  ixyz_start  =                      2
 atom:   6 xyz: 2(+) wall time:       0.4      date:  Tue Sep 14 09:30:31 2021

 
                                 NWChem DFT Module
                                 -----------------
 
 
                                     fexcnw-4
 
 
                      Basis "ao basis" -> "ao basis" (cartesian)
                      -----
  C (Carbon)
  ----------
            Exponent  Coefficients 
       -------------- ---------------------------------------------------------
  1 S  4.56324000E+03  0.001967
  1 S  6.82024000E+02  0.015231
  1 S  1.54973000E+02  0.076127
  1 S  4.44553000E+01  0.260801
  1 S  1.30290000E+01  0.616462
  1 S  1.82773000E+00  0.221006
 
  2 S  2.09642000E+01  0.114660
  2 S  4.80331000E+00  0.919999
  2 S  1.45933000E+00 -0.003031
 
  3 P  2.09642000E+01  0.040249
  3 P  4.80331000E+00  0.237594
  3 P  1.45933000E+00  0.815854
 
  4 S  4.83456000E-01  1.000000
 
  5 P  4.83456000E-01  1.000000
 
  6 S  1.45585000E-01  1.000000
 
  7 P  1.45585000E-01  1.000000
 
  8 S  4.38000000E-02  1.000000
 
  9 P  4.38000000E-02  1.000000
 
 10 D  1.25200000E+00  1.000000
 
 11 D  3.13000000E-01  1.000000
 
  H (Hydrogen)
  ------------
            Exponent  Coefficients 
       -------------- ---------------------------------------------------------
  1 S  3.38650000E+01  0.025494
  1 S  5.09479000E+00  0.190373
  1 S  1.15879000E+00  0.852161
 
  2 S  3.25840000E-01  1.000000
 
  3 S  1.02741000E-01  1.000000
 
  4 S  3.60000000E-02  1.000000
 
  5 P  1.50000000E+00  1.000000
 
  6 P  3.75000000E-01  1.000000
 


 Summary of "ao basis" -> "ao basis" (cartesian)
 ------------------------------------------------------------------------------
       Tag                 Description            Shells   Functions and Types
 ---------------- ------------------------------  ------  ---------------------
 C                      6-311++G(2d,2p)             11       29   5s4p2d
 H                      6-311++G(2d,2p)              6       10   4s2p


 
  Caching 1-el integrals 
 
 WARNING : Found    12 linear dependencies 
 S eigenvalue threshold:     1.00000E-05
 Smallest S eigenvalue :     6.51953E-08
 Largest  S eigenvalue :     5.62054E-06
 
   Time after variat. SCF:      1.0
   Time prior to 1st pass:      1.0


         Total DFT energy =     -540.026188178309
      One electron energy =    -2255.557487467109
           Coulomb energy =     1017.445433654241
    Exchange-Corr. energy =      -79.873811962437
 Nuclear repulsion energy =      777.959677596996

 Numeric. integr. density =       93.999970846727

     Total iterative time =     96.5s


                                NWChem TDDFT Module
                                -------------------
 
 
                                     fexcnw-4
 
 
 
    3 smallest eigenvalue differences (eV) 
--------------------------------------------------------
  No. Spin  Occ  Vir  Irrep   E(Occ)    E(Vir)   E(Diff)
--------------------------------------------------------
    1    1   47   48 a        -0.391    -0.287     2.822
    2    1   46   48 a        -0.415    -0.287     3.489
    3    1   45   48 a        -0.421    -0.287     3.658
--------------------------------------------------------
              Target root =      1
          Target symmetry = none
      Ground state energy =   -540.026188178309
        Excitation energy =      0.083216875838
     Excited state energy =   -539.942971302472
 
  stored tddft:energy   -539.942971302472     
 fn_civecs: 
 ./fexcnw-4.civecs_singlet                                                      
                                                                                
                                                                                
                   

  CI vectors are stored in ./fexcnw-4.civecs_singlet       
 
 
                           NWChem TDDFT Gradient Module
                           ----------------------------
 
 
 ./fexcnw-4.civecs_singlet                                                      
                                                                                
                                                                                
                   
                                     fexcnw-4
 
 
 Calculated gradients of:
 Number of Singlet roots   1
 Singlet roots    1 
 nroot:                      1
TDDFT Energy Check(  1) =       0.08321687583670


Iterative solution of linear equations
  No. of variables    21479
  No. of equations        1
  Maximum subspace       40
        Iterations      250
       Convergence  1.0D-04
        Start time   1252.5


   iter   nsub   residual    time
   ----  ------  --------  ---------
     1      1    3.00D-01    1337.5
     2      2    5.07D-02    1422.6
     3      3    1.64D-02    1507.1
     4      4    4.07D-03    1591.8
     5      5    1.28D-03    1676.0
     6      6    4.00D-04    1759.8
     7      7    1.68D-04    1843.4
     8      8    6.91D-05    1926.4
 
     Multipole analysis of the density
     ---------------------------------
 
     L   x y z        total
     -   - - -        -----
     0   0 0 0      1.000000
 
     1   1 0 0      0.166426
     1   0 1 0     -1.819295
     1   0 0 1      0.000000
 
     2   2 0 0    -42.711623
     2   1 1 0      1.107017
     2   1 0 1      0.000000
     2   0 2 0    -20.277836
     2   0 1 1     -0.000000
     2   0 0 2    -61.714886
 
 
     No. of electrons (tr(P*S)):     0.9400000E+02
 


                         Root   1

                         TDDFT ENERGY GRADIENTS

    atom               coordinates                        gradient
                 x          y          z           x          y          z
   1 C       2.613691   4.674255   0.000000    0.000077   0.000061   0.000000
   2 C       1.309246   6.967366   0.000000    0.000168  -0.000088  -0.000000
   3 C      -1.339908   6.997385   0.000000   -0.000180  -0.000222   0.000000
   4 C      -2.663399   4.765170   0.000000    0.000219   0.000097  -0.000000
   5 C      -2.664338  -4.606527   0.000000    0.000236   0.000006  -0.000000
   6 C      -1.387745  -7.000506   0.000000    0.000081   0.000592  -0.000000
   7 C       1.217040  -7.092954   0.000000   -0.000006  -0.000068  -0.000000
   8 C       2.526199  -4.820780   0.000000   -0.000384   0.000227   0.000000
   9 C       2.784765  -0.054042   0.000000    0.000063   0.000101  -0.000000
  10 C      -2.703692   0.134273   0.000000    0.000219  -0.000060   0.000000
  11 C       1.334780   2.397405   0.000000   -0.000359   0.000198   0.000000
  12 C      -1.379731   2.391507   0.000000    0.000169   0.000023   0.000000
  13 C       1.234959  -2.405987   0.000000   -0.000288  -0.000566   0.000000
  14 C      -1.369177  -2.316851   0.000000   -0.000018  -0.000209   0.000000
  15 H       4.658845   4.688827   0.000000    0.000016  -0.000047  -0.000000
  16 H       2.349622   8.723739   0.000000   -0.000008   0.000033   0.000000
  17 H      -2.337091   8.779541   0.000000   -0.000109   0.000149  -0.000000
  18 H      -4.706537   4.772011   0.000000   -0.000052  -0.000019   0.000000
  19 H      -4.743589   0.134336   0.000000   -0.000123  -0.000040   0.000000
  20 H      -4.709938  -4.610953   0.000000   -0.000006   0.000026  -0.000000
  21 H      -2.504549  -8.710620   0.000000   -0.000066  -0.000283   0.000000
  22 H       2.213752  -8.872080   0.000000   -0.000053   0.000069  -0.000000
  23 H       4.571561  -4.817568   0.000000    0.000224   0.000015  -0.000000
  24 H       4.065884  -0.129766   1.633327    0.000091   0.000003   0.000120
  25 H       4.065884  -0.129766  -1.633327    0.000091   0.000003  -0.000120
 atom:   6 xyz: 2(-) wall time:    2462.4      date:  Tue Sep 14 10:11:33 2021

 
                                 NWChem DFT Module
                                 -----------------
 
 
                                     fexcnw-4
 
 
 
  Caching 1-el integrals 
 
 WARNING : Found    12 linear dependencies 
 S eigenvalue threshold:     1.00000E-05
 Smallest S eigenvalue :     6.52018E-08
 Largest  S eigenvalue :     5.62193E-06
 
   Time after variat. SCF:   2462.8
   Time prior to 1st pass:   2462.8


         Total DFT energy =     -540.026118554060
      One electron energy =    -2255.518036898036
           Coulomb energy =     1017.425303092944
    Exchange-Corr. energy =      -79.873637188668
 Nuclear repulsion energy =      777.940252439700

 Numeric. integr. density =       93.999970852531

     Total iterative time =    108.5s


                                NWChem TDDFT Module
                                -------------------
 
 
                                     fexcnw-4
 
 
 
    3 smallest eigenvalue differences (eV) 
--------------------------------------------------------
  No. Spin  Occ  Vir  Irrep   E(Occ)    E(Vir)   E(Diff)
--------------------------------------------------------
    1    1   47   48 a        -0.390    -0.287     2.820
    2    1   46   48 a        -0.415    -0.287     3.489
    3    1   45   48 a        -0.421    -0.287     3.658
--------------------------------------------------------
              Target root =      1
          Target symmetry = none
      Ground state energy =   -540.026118554060
        Excitation energy =      0.083153282351
     Excited state energy =   -539.942965271709
 
  stored tddft:energy   -539.942965271709     
 fn_civecs: 
 ./fexcnw-4.civecs_singlet                                                      
                                                                                
                                                                                
                   

  CI vectors are stored in ./fexcnw-4.civecs_singlet       
 
 
                           NWChem TDDFT Gradient Module
                           ----------------------------
 
 
 ./fexcnw-4.civecs_singlet                                                      
                                                                                
                                                                                
                   
                                     fexcnw-4
 
 
 Calculated gradients of:
 Number of Singlet roots   1
 Singlet roots    1 
 nroot:                      1
TDDFT Energy Check(  1) =       0.08315328235000


Iterative solution of linear equations
  No. of variables    21479
  No. of equations        1
  Maximum subspace       40
        Iterations      250
       Convergence  1.0D-04
        Start time   3723.9


   iter   nsub   residual    time
   ----  ------  --------  ---------
     1      1    3.00D-01    3808.9
     2      2    5.07D-02    3894.1
     3      3    1.64D-02    3978.6
     4      4    4.07D-03    4062.8
     5      5    1.27D-03    4146.7
     6      6    3.99D-04    4230.5
     7      7    1.67D-04    4313.7
     8      8    6.92D-05    4396.5
 
     Multipole analysis of the density
     ---------------------------------
 
     L   x y z        total
     -   - - -        -----
     0   0 0 0      1.000000
 
     1   1 0 0      0.167397
     1   0 1 0     -1.820192
     1   0 0 1      0.000000
 
     2   2 0 0    -42.712925
     2   1 1 0      1.106009
     2   1 0 1      0.000000
     2   0 2 0    -20.274920
     2   0 1 1     -0.000000
     2   0 0 2    -61.715403
 
 
     No. of electrons (tr(P*S)):     0.9400000E+02
 


                         Root   1

                         TDDFT ENERGY GRADIENTS

    atom               coordinates                        gradient
                 x          y          z           x          y          z
   1 C       2.613691   4.674255   0.000000    0.000078   0.000081   0.000000
   2 C       1.309246   6.967366   0.000000    0.000165  -0.000090   0.000000
   3 C      -1.339908   6.997385   0.000000   -0.000168  -0.000219  -0.000000
   4 C      -2.663399   4.765170   0.000000    0.000222   0.000091  -0.000000
   5 C      -2.664338  -4.606527   0.000000    0.000059   0.000452  -0.000000
   6 C      -1.387745  -7.002506   0.000000   -0.000096  -0.000676  -0.000000
   7 C       1.217040  -7.092954   0.000000    0.000006   0.000168  -0.000000
   8 C       2.526199  -4.820780   0.000000   -0.000300   0.000183   0.000000
   9 C       2.784765  -0.054042   0.000000    0.000049   0.000114  -0.000000
  10 C      -2.703692   0.134273   0.000000    0.000219  -0.000090   0.000000
  11 C       1.334780   2.397405   0.000000   -0.000365   0.000197   0.000000
  12 C      -1.379731   2.391507   0.000000    0.000170   0.000042   0.000000
  13 C       1.234959  -2.405987   0.000000   -0.000352  -0.000535   0.000000
  14 C      -1.369177  -2.316851   0.000000   -0.000015  -0.000110   0.000000
  15 H       4.658845   4.688827   0.000000    0.000016  -0.000048  -0.000000
  16 H       2.349622   8.723739   0.000000   -0.000011   0.000027   0.000000
  17 H      -2.337091   8.779541   0.000000   -0.000107   0.000144  -0.000000
  18 H      -4.706537   4.772011   0.000000   -0.000048  -0.000020  -0.000000
  19 H      -4.743589   0.134336   0.000000   -0.000115  -0.000040   0.000000
  20 H      -4.709938  -4.610953   0.000000    0.000040   0.000018  -0.000000
  21 H      -2.504549  -8.710620   0.000000    0.000200   0.000237   0.000000
  22 H       2.213752  -8.872080   0.000000   -0.000100   0.000044   0.000000
  23 H       4.571561  -4.817568   0.000000    0.000251   0.000024  -0.000000
  24 H       4.065884  -0.129766   1.633327    0.000103   0.000004   0.000129
  25 H       4.065884  -0.129766  -1.633327    0.000103   0.000004  -0.000129
 atom:   6 xyz: 3(+) wall time:    4921.9      date:  Tue Sep 14 10:52:33 2021

 
                                 NWChem DFT Module
                                 -----------------
 
 
                                     fexcnw-4
 
 
 
  Caching 1-el integrals 
 
 WARNING : Found    12 linear dependencies 
 S eigenvalue threshold:     1.00000E-05
 Smallest S eigenvalue :     6.51999E-08
 Largest  S eigenvalue :     5.62128E-06
 
   Time after variat. SCF:   4922.4
   Time prior to 1st pass:   4922.4


         Total DFT energy =     -540.026153624674
      One electron energy =    -2255.537753999976
           Coulomb energy =     1017.435363988719
    Exchange-Corr. energy =      -79.873724296875
 Nuclear repulsion energy =      777.949960683459

 Numeric. integr. density =       93.999970849085

     Total iterative time =    105.1s


                                NWChem TDDFT Module
                                -------------------
 
 
                                     fexcnw-4
 
 
 
    3 smallest eigenvalue differences (eV) 
--------------------------------------------------------
  No. Spin  Occ  Vir  Irrep   E(Occ)    E(Vir)   E(Diff)
--------------------------------------------------------
    1    1   47   48 a        -0.391    -0.287     2.821
    2    1   46   48 a        -0.415    -0.287     3.489
    3    1   45   48 a        -0.421    -0.287     3.658
--------------------------------------------------------
              Target root =      1
          Target symmetry = none
      Ground state energy =   -540.026153624674
        Excitation energy =      0.083185457804
     Excited state energy =   -539.942968166870
 
  stored tddft:energy   -539.942968166870     
 fn_civecs: 
 ./fexcnw-4.civecs_singlet                                                      
                                                                                
                                                                                
                   

  CI vectors are stored in ./fexcnw-4.civecs_singlet       
 
 
                           NWChem TDDFT Gradient Module
                           ----------------------------
 
 
 ./fexcnw-4.civecs_singlet                                                      
                                                                                
                                                                                
                   
                                     fexcnw-4
 
 
 Calculated gradients of:
 Number of Singlet roots   1
 Singlet roots    1 
 nroot:                      1
TDDFT Energy Check(  1) =       0.08318545780295


Iterative solution of linear equations
  No. of variables    21479
  No. of equations        1
  Maximum subspace       40
        Iterations      250
       Convergence  1.0D-04
        Start time   6182.8


   iter   nsub   residual    time
   ----  ------  --------  ---------
     1      1    3.00D-01    6267.9
     2      2    5.07D-02    6353.0
     3      3    1.64D-02    6437.7
     4      4    4.07D-03    6521.5
     5      5    1.27D-03    6605.8
     6      6    4.00D-04    6689.8
     7      7    1.68D-04    6773.1
     8      8    6.91D-05    6856.4
 
     Multipole analysis of the density
     ---------------------------------
 
     L   x y z        total
     -   - - -        -----
     0   0 0 0      1.000000
 
     1   1 0 0      0.166989
     1   0 1 0     -1.819737
     1   0 0 1     -0.000016
 
     2   2 0 0    -42.712289
     2   1 1 0      1.106239
     2   1 0 1      0.000044
     2   0 2 0    -20.276086
     2   0 1 1      0.000169
     2   0 0 2    -61.715138
 
 
     No. of electrons (tr(P*S)):     0.9400000E+02
 


                         Root   1

                         TDDFT ENERGY GRADIENTS

    atom               coordinates                        gradient
                 x          y          z           x          y          z
   1 C       2.613691   4.674255   0.000000    0.000078   0.000071  -0.000000
   2 C       1.309246   6.967366   0.000000    0.000166  -0.000089   0.000000
   3 C      -1.339908   6.997385   0.000000   -0.000174  -0.000220   0.000000
   4 C      -2.663399   4.765170   0.000000    0.000220   0.000094  -0.000000
   5 C      -2.664338  -4.606527   0.000000    0.000147   0.000229  -0.000069
   6 C      -1.387745  -7.001506   0.001000   -0.000010  -0.000037   0.000141
   7 C       1.217040  -7.092954   0.000000    0.000001   0.000050  -0.000061
   8 C       2.526199  -4.820780   0.000000   -0.000341   0.000204   0.000006
   9 C       2.784765  -0.054042   0.000000    0.000056   0.000108   0.000001
  10 C      -2.703692   0.134273   0.000000    0.000219  -0.000075   0.000006
  11 C       1.334780   2.397405   0.000000   -0.000362   0.000197  -0.000000
  12 C      -1.379731   2.391507   0.000000    0.000169   0.000032   0.000000
  13 C       1.234959  -2.405987   0.000000   -0.000322  -0.000550  -0.000005
  14 C      -1.369177  -2.316851   0.000000   -0.000017  -0.000162   0.000006
  15 H       4.658845   4.688827   0.000000    0.000016  -0.000048  -0.000000
  16 H       2.349622   8.723739   0.000000   -0.000009   0.000030  -0.000000
  17 H      -2.337091   8.779541   0.000000   -0.000108   0.000146  -0.000000
  18 H      -4.706537   4.772011   0.000000   -0.000050  -0.000019   0.000000
  19 H      -4.743589   0.134336   0.000000   -0.000118  -0.000040  -0.000000
  20 H      -4.709938  -4.610953   0.000000    0.000020   0.000021   0.000009
  21 H      -2.504549  -8.710620   0.000000    0.000067  -0.000024  -0.000041
  22 H       2.213752  -8.872080   0.000000   -0.000076   0.000055   0.000003
  23 H       4.571561  -4.817568   0.000000    0.000239   0.000020   0.000005
  24 H       4.065884  -0.129766   1.633327    0.000097   0.000004   0.000125
  25 H       4.065884  -0.129766  -1.633327    0.000097   0.000003  -0.000125
 atom:   6 xyz: 3(-) wall time:    7366.8      date:  Tue Sep 14 11:33:18 2021

 
                                 NWChem DFT Module
                                 -----------------
 
 
                                     fexcnw-4
 
 
 
  Caching 1-el integrals 
 
 WARNING : Found    12 linear dependencies 
 S eigenvalue threshold:     1.00000E-05
 Smallest S eigenvalue :     6.51999E-08
 Largest  S eigenvalue :     5.62128E-06
 
   Time after variat. SCF:   7367.3
   Time prior to 1st pass:   7367.3


         Total DFT energy =     -540.026153624674
      One electron energy =    -2255.537753999979
           Coulomb energy =     1017.435363988721
    Exchange-Corr. energy =      -79.873724296876
 Nuclear repulsion energy =      777.949960683459

 Numeric. integr. density =       93.999970849085

     Total iterative time =    102.1s


                                NWChem TDDFT Module
                                -------------------
 
 
                                     fexcnw-4
 
 
 
    3 smallest eigenvalue differences (eV) 
--------------------------------------------------------
  No. Spin  Occ  Vir  Irrep   E(Occ)    E(Vir)   E(Diff)
--------------------------------------------------------
    1    1   47   48 a        -0.391    -0.287     2.821
    2    1   46   48 a        -0.415    -0.287     3.489
    3    1   45   48 a        -0.421    -0.287     3.658
--------------------------------------------------------
              Target root =      1
          Target symmetry = none
      Ground state energy =   -540.026153624674
        Excitation energy =      0.083185457804
     Excited state energy =   -539.942968166871
 
  stored tddft:energy   -539.942968166871     
 fn_civecs: 
 ./fexcnw-4.civecs_singlet                                                      
                                                                                
                                                                                
                   

  CI vectors are stored in ./fexcnw-4.civecs_singlet       
 
 
                           NWChem TDDFT Gradient Module
                           ----------------------------
 
 
 ./fexcnw-4.civecs_singlet                                                      
                                                                                
                                                                                
                   
                                     fexcnw-4
 
 
 Calculated gradients of:
 Number of Singlet roots   1
 Singlet roots    1 
 nroot:                      1
TDDFT Energy Check(  1) =       0.08318545780277


Iterative solution of linear equations
  No. of variables    21479
  No. of equations        1
  Maximum subspace       40
        Iterations      250
       Convergence  1.0D-04
        Start time   8620.5


   iter   nsub   residual    time
   ----  ------  --------  ---------
     1      1    3.00D-01    8706.0
     2      2    5.07D-02    8791.1
     3      3    1.64D-02    8875.8
     4      4    4.07D-03    8960.0
     5      5    1.27D-03    9044.2
     6      6    4.00D-04    9128.7
     7      7    1.68D-04    9212.6
     8      8    6.91D-05    9295.7
 
     Multipole analysis of the density
     ---------------------------------
 
     L   x y z        total
     -   - - -        -----
     0   0 0 0      1.000000
 
     1   1 0 0      0.166989
     1   0 1 0     -1.819737
     1   0 0 1      0.000016
 
     2   2 0 0    -42.712289
     2   1 1 0      1.106239
     2   1 0 1     -0.000044
     2   0 2 0    -20.276086
     2   0 1 1     -0.000169
     2   0 0 2    -61.715138
 
 
     No. of electrons (tr(P*S)):     0.9400000E+02
 


                         Root   1

                         TDDFT ENERGY GRADIENTS

    atom               coordinates                        gradient
                 x          y          z           x          y          z
   1 C       2.613691   4.674255   0.000000    0.000078   0.000071   0.000000
   2 C       1.309246   6.967366   0.000000    0.000166  -0.000089  -0.000000
   3 C      -1.339908   6.997385   0.000000   -0.000174  -0.000220  -0.000000
   4 C      -2.663399   4.765170   0.000000    0.000220   0.000094   0.000000
   5 C      -2.664338  -4.606527   0.000000    0.000147   0.000229   0.000069
   6 C      -1.387745  -7.001506  -0.001000   -0.000010  -0.000037  -0.000141
   7 C       1.217040  -7.092954   0.000000    0.000001   0.000050   0.000061
   8 C       2.526199  -4.820780   0.000000   -0.000341   0.000204  -0.000006
   9 C       2.784765  -0.054042   0.000000    0.000056   0.000108  -0.000001
  10 C      -2.703692   0.134273   0.000000    0.000219  -0.000075  -0.000006
  11 C       1.334780   2.397405   0.000000   -0.000362   0.000197   0.000000
  12 C      -1.379731   2.391507   0.000000    0.000169   0.000031  -0.000000
  13 C       1.234959  -2.405987   0.000000   -0.000322  -0.000550   0.000005
  14 C      -1.369177  -2.316851   0.000000   -0.000017  -0.000162  -0.000006
  15 H       4.658845   4.688827   0.000000    0.000016  -0.000048   0.000000
  16 H       2.349622   8.723739   0.000000   -0.000009   0.000030   0.000000
  17 H      -2.337091   8.779541   0.000000   -0.000108   0.000146   0.000000
  18 H      -4.706537   4.772011   0.000000   -0.000050  -0.000019  -0.000000
  19 H      -4.743589   0.134336   0.000000   -0.000118  -0.000040   0.000000
  20 H      -4.709938  -4.610953   0.000000    0.000020   0.000022  -0.000009
  21 H      -2.504549  -8.710620   0.000000    0.000067  -0.000024   0.000041
  22 H       2.213752  -8.872080   0.000000   -0.000076   0.000055  -0.000003
  23 H       4.571561  -4.817568   0.000000    0.000239   0.000020  -0.000005
  24 H       4.065884  -0.129766   1.633327    0.000097   0.000003   0.000125
  25 H       4.065884  -0.129766  -1.633327    0.000097   0.000004  -0.000125
 atom:   7 xyz: 1(+) wall time:    9804.4      date:  Tue Sep 14 12:13:55 2021

 
                                 NWChem DFT Module
                                 -----------------
 
 
                                     fexcnw-4
 
 
 
  Caching 1-el integrals 
 
 WARNING : Found    12 linear dependencies 
 S eigenvalue threshold:     1.00000E-05
 Smallest S eigenvalue :     6.51937E-08
 Largest  S eigenvalue :     5.62442E-06
 
   Time after variat. SCF:   9805.0
   Time prior to 1st pass:   9805.0


         Total DFT energy =     -540.026160589071
      One electron energy =    -2255.528836794492
           Coulomb energy =     1017.430745616435
    Exchange-Corr. energy =      -79.873645358599
 Nuclear repulsion energy =      777.945575947585

 Numeric. integr. density =       93.999970782265

     Total iterative time =     95.3s


                                NWChem TDDFT Module
                                -------------------
 
 
                                     fexcnw-4
 
 
 
    3 smallest eigenvalue differences (eV) 
--------------------------------------------------------
  No. Spin  Occ  Vir  Irrep   E(Occ)    E(Vir)   E(Diff)
--------------------------------------------------------
    1    1   47   48 a        -0.391    -0.287     2.821
    2    1   46   48 a        -0.415    -0.287     3.489
    3    1   45   48 a        -0.421    -0.287     3.658
--------------------------------------------------------
              Target root =      1
          Target symmetry = none
      Ground state energy =   -540.026160589071
        Excitation energy =      0.083198194469
     Excited state energy =   -539.942962394602
 
  stored tddft:energy   -539.942962394602     
 fn_civecs: 
 ./fexcnw-4.civecs_singlet                                                      
                                                                                
                                                                                
                   

  CI vectors are stored in ./fexcnw-4.civecs_singlet       
 
 
                           NWChem TDDFT Gradient Module
                           ----------------------------
 
 
 ./fexcnw-4.civecs_singlet                                                      
                                                                                
                                                                                
                   
                                     fexcnw-4
 
 
 Calculated gradients of:
 Number of Singlet roots   1
 Singlet roots    1 
 nroot:                      1
TDDFT Energy Check(  1) =       0.08319819446831


Iterative solution of linear equations
  No. of variables    21479
  No. of equations        1
  Maximum subspace       40
        Iterations      250
       Convergence  1.0D-04
        Start time  11040.1


   iter   nsub   residual    time
   ----  ------  --------  ---------
     1      1    3.00D-01   11124.6
     2      2    5.07D-02   11208.9
     3      3    1.64D-02   11293.5
     4      4    4.07D-03   11377.5
     5      5    1.28D-03   11460.9
     6      6    4.01D-04   11544.2
     7      7    1.68D-04   11626.8
     8      8    6.92D-05   11708.9
 
     Multipole analysis of the density
     ---------------------------------
 
     L   x y z        total
     -   - - -        -----
     0   0 0 0      1.000000
 
     1   1 0 0      0.166310
     1   0 1 0     -1.819667
     1   0 0 1      0.000000
 
     2   2 0 0    -42.712295
     2   1 1 0      1.107985
     2   1 0 1      0.000000
     2   0 2 0    -20.276004
     2   0 1 1     -0.000000
     2   0 0 2    -61.715434
 
 
     No. of electrons (tr(P*S)):     0.9400000E+02
 


                         Root   1

                         TDDFT ENERGY GRADIENTS

    atom               coordinates                        gradient
                 x          y          z           x          y          z
   1 C       2.613691   4.674255   0.000000    0.000078   0.000069   0.000000
   2 C       1.309246   6.967366   0.000000    0.000168  -0.000087   0.000000
   3 C      -1.339908   6.997385   0.000000   -0.000174  -0.000220  -0.000000
   4 C      -2.663399   4.765170   0.000000    0.000219   0.000098  -0.000000
   5 C      -2.664338  -4.606527   0.000000    0.000154   0.000254  -0.000000
   6 C      -1.387745  -7.001506   0.000000   -0.000363  -0.000044  -0.000000
   7 C       1.218040  -7.092954   0.000000    0.000653  -0.000015  -0.000000
   8 C       2.526199  -4.820780   0.000000   -0.000513   0.000128   0.000000
   9 C       2.784765  -0.054042   0.000000    0.000044   0.000112  -0.000000
  10 C      -2.703692   0.134273   0.000000    0.000223  -0.000053  -0.000000
  11 C       1.334780   2.397405   0.000000   -0.000351   0.000200   0.000000
  12 C      -1.379731   2.391507   0.000000    0.000165   0.000027   0.000000
  13 C       1.234959  -2.405987   0.000000   -0.000264  -0.000537   0.000000
  14 C      -1.369177  -2.316851   0.000000   -0.000068  -0.000211   0.000000
  15 H       4.658845   4.688827   0.000000    0.000017  -0.000047  -0.000000
  16 H       2.349622   8.723739   0.000000   -0.000009   0.000030   0.000000
  17 H      -2.337091   8.779541   0.000000   -0.000109   0.000147  -0.000000
  18 H      -4.706537   4.772011   0.000000   -0.000053  -0.000019  -0.000000
  19 H      -4.743589   0.134336   0.000000   -0.000125  -0.000040   0.000000
  20 H      -4.709938  -4.610953   0.000000    0.000015   0.000027  -0.000000
  21 H      -2.504549  -8.710620   0.000000    0.000069  -0.000002   0.000000
  22 H       2.213752  -8.872080   0.000000   -0.000207   0.000187  -0.000000
  23 H       4.571561  -4.817568   0.000000    0.000239  -0.000007  -0.000000
  24 H       4.065884  -0.129766   1.633327    0.000098   0.000002   0.000126
  25 H       4.065884  -0.129766  -1.633327    0.000098   0.000002  -0.000126
 atom:   7 xyz: 1(-) wall time:   12212.3      date:  Tue Sep 14 12:54:03 2021

 
                                 NWChem DFT Module
                                 -----------------
 
 
                                     fexcnw-4
 
 
 
  Caching 1-el integrals 
 
 WARNING : Found    12 linear dependencies 
 S eigenvalue threshold:     1.00000E-05
 Smallest S eigenvalue :     6.52033E-08
 Largest  S eigenvalue :     5.61843E-06
 
   Time after variat. SCF:  12212.9
   Time prior to 1st pass:  12213.0


         Total DFT energy =     -540.026146054852
      One electron energy =    -2255.546690627491
           Coulomb energy =     1017.439993718302
    Exchange-Corr. energy =      -79.873804006253
 Nuclear repulsion energy =      777.954354860590

 Numeric. integr. density =       93.999970915809

     Total iterative time =     95.0s


                                NWChem TDDFT Module
                                -------------------
 
 
                                     fexcnw-4
 
 
 
    3 smallest eigenvalue differences (eV) 
--------------------------------------------------------
  No. Spin  Occ  Vir  Irrep   E(Occ)    E(Vir)   E(Diff)
--------------------------------------------------------
    1    1   47   48 a        -0.391    -0.287     2.821
    2    1   46   48 a        -0.415    -0.287     3.489
    3    1   45   48 a        -0.421    -0.287     3.658
--------------------------------------------------------
              Target root =      1
          Target symmetry = none
      Ground state energy =   -540.026146054852
        Excitation energy =      0.083172091148
     Excited state energy =   -539.942973963704
 
  stored tddft:energy   -539.942973963704     
 fn_civecs: 
 ./fexcnw-4.civecs_singlet                                                      
                                                                                
                                                                                
                   

  CI vectors are stored in ./fexcnw-4.civecs_singlet       
 
 
                           NWChem TDDFT Gradient Module
                           ----------------------------
 
 
 ./fexcnw-4.civecs_singlet                                                      
                                                                                
                                                                                
                   
                                     fexcnw-4
 
 
 Calculated gradients of:
 Number of Singlet roots   1
 Singlet roots    1 
 nroot:                      1
TDDFT Energy Check(  1) =       0.08317209114677


Iterative solution of linear equations
  No. of variables    21479
  No. of equations        1
  Maximum subspace       40
        Iterations      250
       Convergence  1.0D-04
        Start time  13460.9


   iter   nsub   residual    time
   ----  ------  --------  ---------
     1      1    3.00D-01   13546.3
     2      2    5.07D-02   13631.7
     3      3    1.64D-02   13716.1
     4      4    4.07D-03   13800.3
     5      5    1.27D-03   13884.3
     6      6    3.99D-04   13967.3
     7      7    1.68D-04   14050.1
     8      8    6.91D-05   14132.7
 
     Multipole analysis of the density
     ---------------------------------
 
     L   x y z        total
     -   - - -        -----
     0   0 0 0      1.000000
 
     1   1 0 0      0.167559
     1   0 1 0     -1.819907
     1   0 0 1      0.000000
 
     2   2 0 0    -42.712345
     2   1 1 0      1.104503
     2   1 0 1      0.000000
     2   0 2 0    -20.277636
     2   0 1 1     -0.000000
     2   0 0 2    -61.714866
 
 
     No. of electrons (tr(P*S)):     0.9400000E+02
 


                         Root   1

                         TDDFT ENERGY GRADIENTS

    atom               coordinates                        gradient
                 x          y          z           x          y          z
   1 C       2.613691   4.674255   0.000000    0.000077   0.000075   0.000000
   2 C       1.309246   6.967366   0.000000    0.000164  -0.000092   0.000000
   3 C      -1.339908   6.997385   0.000000   -0.000172  -0.000220  -0.000000
   4 C      -2.663399   4.765170   0.000000    0.000222   0.000091  -0.000000
   5 C      -2.664338  -4.606527   0.000000    0.000139   0.000199  -0.000000
   6 C      -1.387745  -7.001506   0.000000    0.000345  -0.000033  -0.000000
   7 C       1.216040  -7.092954   0.000000   -0.000653   0.000115  -0.000000
   8 C       2.526199  -4.820780   0.000000   -0.000169   0.000277   0.000000
   9 C       2.784765  -0.054042   0.000000    0.000067   0.000105  -0.000000
  10 C      -2.703692   0.134273   0.000000    0.000213  -0.000096   0.000000
  11 C       1.334780   2.397405   0.000000   -0.000373   0.000197   0.000000
  12 C      -1.379731   2.391507   0.000000    0.000175   0.000038  -0.000000
  13 C       1.234959  -2.405987   0.000000   -0.000374  -0.000564   0.000000
  14 C      -1.369177  -2.316851   0.000000    0.000031  -0.000110   0.000000
  15 H       4.658845   4.688827   0.000000    0.000015  -0.000048  -0.000000
  16 H       2.349622   8.723739   0.000000   -0.000011   0.000028   0.000000
  17 H      -2.337091   8.779541   0.000000   -0.000107   0.000144  -0.000000
  18 H      -4.706537   4.772011   0.000000   -0.000047  -0.000019  -0.000000
  19 H      -4.743589   0.134336   0.000000   -0.000114  -0.000040   0.000000
  20 H      -4.709938  -4.610953   0.000000    0.000022   0.000017  -0.000000
  21 H      -2.504549  -8.710620   0.000000    0.000065  -0.000046   0.000000
  22 H       2.213752  -8.872080   0.000000    0.000055  -0.000076  -0.000000
  23 H       4.571561  -4.817568   0.000000    0.000238   0.000047  -0.000000
  24 H       4.065884  -0.129766   1.633327    0.000097   0.000005   0.000124
  25 H       4.065884  -0.129766  -1.633327    0.000097   0.000005  -0.000124
 atom:   7 xyz: 2(+) wall time:   14651.8      date:  Tue Sep 14 13:34:43 2021

 
                                 NWChem DFT Module
                                 -----------------
 
 
                                     fexcnw-4
 
 
 
  Caching 1-el integrals 
 
 WARNING : Found    12 linear dependencies 
 S eigenvalue threshold:     1.00000E-05
 Smallest S eigenvalue :     6.51993E-08
 Largest  S eigenvalue :     5.61836E-06
 
   Time after variat. SCF:  14652.3
   Time prior to 1st pass:  14652.3


         Total DFT energy =     -540.026166769058
      One electron energy =    -2255.558450200419
           Coulomb energy =     1017.445883529156
    Exchange-Corr. energy =      -79.873852405990
 Nuclear repulsion energy =      777.960252308195

 Numeric. integr. density =       93.999970805590

     Total iterative time =     94.6s


                                NWChem TDDFT Module
                                -------------------
 
 
                                     fexcnw-4
 
 
 
    3 smallest eigenvalue differences (eV) 
--------------------------------------------------------
  No. Spin  Occ  Vir  Irrep   E(Occ)    E(Vir)   E(Diff)
--------------------------------------------------------
    1    1   47   48 a        -0.391    -0.287     2.821
    2    1   46   48 a        -0.415    -0.287     3.489
    3    1   45   48 a        -0.421    -0.287     3.658
--------------------------------------------------------
              Target root =      1
          Target symmetry = none
      Ground state energy =   -540.026166769058
        Excitation energy =      0.083189161067
     Excited state energy =   -539.942977607991
 
  stored tddft:energy   -539.942977607991     
 fn_civecs: 
 ./fexcnw-4.civecs_singlet                                                      
                                                                                
                                                                                
                   

  CI vectors are stored in ./fexcnw-4.civecs_singlet       
 
 
                           NWChem TDDFT Gradient Module
                           ----------------------------
 
 
 ./fexcnw-4.civecs_singlet                                                      
                                                                                
                                                                                
                   
                                     fexcnw-4
 
 
 Calculated gradients of:
 Number of Singlet roots   1
 Singlet roots    1 
 nroot:                      1
TDDFT Energy Check(  1) =       0.08318916106596


Iterative solution of linear equations
  No. of variables    21479
  No. of equations        1
  Maximum subspace       40
        Iterations      250
       Convergence  1.0D-04
        Start time  15884.0


   iter   nsub   residual    time
   ----  ------  --------  ---------
     1      1    3.00D-01   15968.8
     2      2    5.07D-02   16053.7
     3      3    1.64D-02   16138.1
     4      4    4.07D-03   16222.8
     5      5    1.28D-03   16306.2
     6      6    4.01D-04   16389.9
     7      7    1.67D-04   16473.7
     8      8    6.92D-05   16556.2
 
     Multipole analysis of the density
     ---------------------------------
 
     L   x y z        total
     -   - - -        -----
     0   0 0 0      1.000000
 
     1   1 0 0      0.166823
     1   0 1 0     -1.820367
     1   0 0 1      0.000000
 
     2   2 0 0    -42.712457
     2   1 1 0      1.108100
     2   1 0 1      0.000000
     2   0 2 0    -20.274190
     2   0 1 1     -0.000000
     2   0 0 2    -61.714752
 
 
     No. of electrons (tr(P*S)):     0.9400000E+02
 


                         Root   1

                         TDDFT ENERGY GRADIENTS

    atom               coordinates                        gradient
                 x          y          z           x          y          z
   1 C       2.613691   4.674255   0.000000    0.000076   0.000068   0.000000
   2 C       1.309246   6.967366   0.000000    0.000166  -0.000089   0.000000
   3 C      -1.339908   6.997385   0.000000   -0.000173  -0.000220  -0.000000
   4 C      -2.663399   4.765170   0.000000    0.000221   0.000092  -0.000000
   5 C      -2.664338  -4.606527   0.000000    0.000192   0.000246  -0.000000
   6 C      -1.387745  -7.001506   0.000000    0.000013  -0.000155   0.000000
   7 C       1.217040  -7.091954   0.000000   -0.000063   0.000763   0.000000
   8 C       2.526199  -4.820780   0.000000   -0.000450  -0.000078   0.000000
   9 C       2.784765  -0.054042   0.000000    0.000054   0.000106  -0.000000
  10 C      -2.703692   0.134273   0.000000    0.000227  -0.000074   0.000000
  11 C       1.334780   2.397405   0.000000   -0.000363   0.000197   0.000000
  12 C      -1.379731   2.391507   0.000000    0.000169   0.000029   0.000000
  13 C       1.234959  -2.405987   0.000000   -0.000311  -0.000575   0.000000
  14 C      -1.369177  -2.316851   0.000000   -0.000056  -0.000177   0.000000
  15 H       4.658845   4.688827   0.000000    0.000015  -0.000048  -0.000000
  16 H       2.349622   8.723739   0.000000   -0.000010   0.000029  -0.000000
  17 H      -2.337091   8.779541   0.000000   -0.000108   0.000146  -0.000000
  18 H      -4.706537   4.772011   0.000000   -0.000049  -0.000019   0.000000
  19 H      -4.743589   0.134336   0.000000   -0.000115  -0.000040   0.000000
  20 H      -4.709938  -4.610953   0.000000    0.000026   0.000017  -0.000000
  21 H      -2.504549  -8.710620   0.000000    0.000041  -0.000017   0.000000
  22 H       2.213752  -8.872080   0.000000    0.000051  -0.000229  -0.000000
  23 H       4.571561  -4.817568   0.000000    0.000257   0.000024  -0.000000
  24 H       4.065884  -0.129766   1.633327    0.000096   0.000003   0.000124
  25 H       4.065884  -0.129766  -1.633327    0.000096   0.000003  -0.000124
 atom:   7 xyz: 2(-) wall time:   17063.4      date:  Tue Sep 14 14:14:54 2021

 
                                 NWChem DFT Module
                                 -----------------
 
 
                                     fexcnw-4
 
 
 
  Caching 1-el integrals 
 
 WARNING : Found    12 linear dependencies 
 S eigenvalue threshold:     1.00000E-05
 Smallest S eigenvalue :     6.51978E-08
 Largest  S eigenvalue :     5.62411E-06
 
   Time after variat. SCF:  17063.8
   Time prior to 1st pass:  17063.8


         Total DFT energy =     -540.026139870943
      One electron energy =    -2255.517074453664
           Coulomb energy =     1017.424853349420
    Exchange-Corr. energy =      -79.873596770070
 Nuclear repulsion energy =      777.939678003371

 Numeric. integr. density =       93.999970893528

     Total iterative time =     95.2s


                                NWChem TDDFT Module
                                -------------------
 
 
                                     fexcnw-4
 
 
 
    3 smallest eigenvalue differences (eV) 
--------------------------------------------------------
  No. Spin  Occ  Vir  Irrep   E(Occ)    E(Vir)   E(Diff)
--------------------------------------------------------
    1    1   47   48 a        -0.391    -0.287     2.821
    2    1   46   48 a        -0.415    -0.287     3.489
    3    1   45   48 a        -0.421    -0.287     3.658
--------------------------------------------------------
              Target root =      1
          Target symmetry = none
      Ground state energy =   -540.026139870943
        Excitation energy =      0.083183881872
     Excited state energy =   -539.942955989071
 
  stored tddft:energy   -539.942955989071     
 fn_civecs: 
 ./fexcnw-4.civecs_singlet                                                      
                                                                                
                                                                                
                   

  CI vectors are stored in ./fexcnw-4.civecs_singlet       
 
 
                           NWChem TDDFT Gradient Module
                           ----------------------------
 
 
 ./fexcnw-4.civecs_singlet                                                      
                                                                                
                                                                                
                   
                                     fexcnw-4
 
 
 Calculated gradients of:
 Number of Singlet roots   1
 Singlet roots    1 
 nroot:                      1
TDDFT Energy Check(  1) =       0.08318388187150


Iterative solution of linear equations
  No. of variables    21479
  No. of equations        1
  Maximum subspace       40
        Iterations      250
       Convergence  1.0D-04
        Start time  18298.5


   iter   nsub   residual    time
   ----  ------  --------  ---------
     1      1    3.00D-01   18383.5
     2      2    5.07D-02   18468.1
     3      3    1.64D-02   18552.2
     4      4    4.07D-03   18636.2
     5      5    1.27D-03   18720.1
     6      6    3.99D-04   18803.4
     7      7    1.68D-04   18886.1
     8      8    6.91D-05   18968.4
 
     Multipole analysis of the density
     ---------------------------------
 
     L   x y z        total
     -   - - -        -----
     0   0 0 0      1.000000
 
     1   1 0 0      0.167110
     1   0 1 0     -1.819041
     1   0 0 1      0.000000
 
     2   2 0 0    -42.712100
     2   1 1 0      1.104760
     2   1 0 1      0.000000
     2   0 2 0    -20.277758
     2   0 1 1     -0.000000
     2   0 0 2    -61.715504
 
 
     No. of electrons (tr(P*S)):     0.9400000E+02
 


                         Root   1

                         TDDFT ENERGY GRADIENTS

    atom               coordinates                        gradient
                 x          y          z           x          y          z
   1 C       2.613691   4.674255   0.000000    0.000080   0.000075   0.000000
   2 C       1.309246   6.967366   0.000000    0.000167  -0.000089   0.000000
   3 C      -1.339908   6.997385   0.000000   -0.000178  -0.000221   0.000000
   4 C      -2.663399   4.765170   0.000000    0.000219   0.000096  -0.000000
   5 C      -2.664338  -4.606527   0.000000    0.000103   0.000210  -0.000000
   6 C      -1.387745  -7.001506   0.000000   -0.000031   0.000080  -0.000000
   7 C       1.217040  -7.093954   0.000000    0.000068  -0.000656  -0.000000
   8 C       2.526199  -4.820780   0.000000   -0.000234   0.000480   0.000000
   9 C       2.784765  -0.054042   0.000000    0.000058   0.000110  -0.000000
  10 C      -2.703692   0.134273   0.000000    0.000211  -0.000074   0.000000
  11 C       1.334780   2.397405   0.000000   -0.000362   0.000198  -0.000000
  12 C      -1.379731   2.391507   0.000000    0.000168   0.000034  -0.000000
  13 C       1.234959  -2.405987   0.000000   -0.000334  -0.000528   0.000000
  14 C      -1.369177  -2.316851   0.000000    0.000023  -0.000147   0.000000
  15 H       4.658845   4.688827   0.000000    0.000018  -0.000047  -0.000000
  16 H       2.349622   8.723739   0.000000   -0.000008   0.000032   0.000000
  17 H      -2.337091   8.779541   0.000000   -0.000108   0.000147   0.000000
[...]
   3 C      -1.339908   6.997385   0.000000   -0.000285   0.000060  -0.000000
   4 C      -2.663399   4.765170   0.000000    0.000204   0.000105  -0.000000
   5 C      -2.664338  -4.606527   0.000000    0.000141   0.000216   0.000000
   6 C      -1.387745  -7.001506   0.000000   -0.000002  -0.000045  -0.000000
   7 C       1.217040  -7.092954   0.000000    0.000000   0.000052   0.000000
   8 C       2.526199  -4.820780   0.000000   -0.000336   0.000194   0.000000
   9 C       2.784765  -0.054042   0.000000    0.000055   0.000113  -0.000000
  10 C      -2.703692   0.134273   0.000000    0.000212  -0.000069   0.000000
  11 C       1.334780   2.397405   0.000000   -0.000358   0.000207   0.000000
  12 C      -1.379731   2.391507   0.000000    0.000180   0.000042   0.000000
  13 C       1.234959  -2.405987   0.000000   -0.000298  -0.000551   0.000000
  14 C      -1.369177  -2.316851   0.000000   -0.000027  -0.000157   0.000000
  15 H       4.658845   4.688827   0.000000    0.000009  -0.000048  -0.000000
  16 H       2.349622   8.723739   0.000000   -0.000014   0.000023   0.000000
  17 H      -2.337091   8.778541   0.000000    0.000018  -0.000141  -0.000000
  18 H      -4.706537   4.772011   0.000000   -0.000053  -0.000020  -0.000000
  19 H      -4.743589   0.134336   0.000000   -0.000125  -0.000040   0.000000
  20 H      -4.709938  -4.610953   0.000000    0.000011   0.000023  -0.000000
  21 H      -2.504549  -8.710620   0.000000    0.000066  -0.000023   0.000000
  22 H       2.213752  -8.872080   0.000000   -0.000079   0.000059  -0.000000
  23 H       4.571561  -4.817568   0.000000    0.000235   0.000021  -0.000000
  24 H       4.065884  -0.129766   1.633327    0.000097   0.000003   0.000124
  25 H       4.065884  -0.129766  -1.633327    0.000097   0.000003  -0.000124
 atom:  17 xyz: 3(+) wall time:  165575.8      date:  Thu Sep 16 07:30:07 2021

 
                                 NWChem DFT Module
                                 -----------------
 
 
                                     fexcnw-4
 
 
 
  Caching 1-el integrals 
 
 WARNING : Found    12 linear dependencies 
 S eigenvalue threshold:     1.00000E-05
 Smallest S eigenvalue :     6.51985E-08
 Largest  S eigenvalue :     5.62122E-06
 
   Time after variat. SCF: 165576.2
   Time prior to 1st pass: 165576.2


         Total DFT energy =     -540.026153680410
      One electron energy =    -2255.537759349256
           Coulomb energy =     1017.435366856014
    Exchange-Corr. energy =      -79.873724410187
 Nuclear repulsion energy =      777.949963223019

 Numeric. integr. density =       93.999970849066

     Total iterative time =     93.6s


                                NWChem TDDFT Module
                                -------------------
 
 
                                     fexcnw-4
 
 
 
    3 smallest eigenvalue differences (eV) 
--------------------------------------------------------
  No. Spin  Occ  Vir  Irrep   E(Occ)    E(Vir)   E(Diff)
--------------------------------------------------------
    1    1   47   48 a        -0.391    -0.287     2.821
    2    1   46   48 a        -0.415    -0.287     3.489
    3    1   45   48 a        -0.421    -0.287     3.659
--------------------------------------------------------
              Target root =      1
          Target symmetry = none
      Ground state energy =   -540.026153680410
        Excitation energy =      0.083180575485
     Excited state energy =   -539.942973104925
 
  stored tddft:energy   -539.942973104925     
 fn_civecs: 
 ./fexcnw-4.civecs_singlet                                                      
                                                                                
                                                                                
                   

  CI vectors are stored in ./fexcnw-4.civecs_singlet       
 
 
                           NWChem TDDFT Gradient Module
                           ----------------------------
 
 
 ./fexcnw-4.civecs_singlet                                                      
                                                                                
                                                                                
                   
                                     fexcnw-4
 
 
 Calculated gradients of:
 Number of Singlet roots   1
 Singlet roots    1 
 nroot:                      1
TDDFT Energy Check(  1) =       0.08318057548369


Iterative solution of linear equations
  No. of variables    21479
  No. of equations        1
  Maximum subspace       40
        Iterations      250
       Convergence  1.0D-04
        Start time 166816.7


   iter   nsub   residual    time
   ----  ------  --------  ---------
     1      1    3.00D-01  166901.4
     2      2    5.07D-02  166985.9
     3      3    1.64D-02  167070.9
     4      4    4.07D-03  167155.0
     5      5    1.28D-03  167238.6
     6      6    4.00D-04  167321.5
     7      7    1.68D-04  167404.6
     8      8    6.91D-05  167486.7
 
     Multipole analysis of the density
     ---------------------------------
 
     L   x y z        total
     -   - - -        -----
     0   0 0 0      1.000000
 
     1   1 0 0      0.166228
     1   0 1 0     -1.820490
     1   0 0 1      0.000135
 
     2   2 0 0    -42.712922
     2   1 1 0      1.106672
     2   1 0 1     -0.000410
     2   0 2 0    -20.285172
     2   0 1 1      0.001365
     2   0 0 2    -61.715316
 
 
     No. of electrons (tr(P*S)):     0.9400000E+02
 


                         Root   1

                         TDDFT ENERGY GRADIENTS

    atom               coordinates                        gradient
                 x          y          z           x          y          z
   1 C       2.613691   4.674255   0.000000    0.000074   0.000086   0.000006
   2 C       1.309246   6.967366   0.000000    0.000162  -0.000094   0.000003
   3 C      -1.339908   6.997385   0.000000   -0.000155  -0.000217  -0.000040
   4 C      -2.663399   4.765170   0.000000    0.000225   0.000100   0.000004
   5 C      -2.664338  -4.606527   0.000000    0.000137   0.000206  -0.000000
   6 C      -1.387745  -7.001506   0.000000    0.000001  -0.000049  -0.000000
   7 C       1.217040  -7.092954   0.000000    0.000001   0.000052  -0.000000
   8 C       2.526199  -4.820780   0.000000   -0.000332   0.000189   0.000000
   9 C       2.784765  -0.054042   0.000000    0.000052   0.000115  -0.000001
  10 C      -2.703692   0.134273   0.000000    0.000206  -0.000071  -0.000000
  11 C       1.334780   2.397405   0.000000   -0.000356   0.000211  -0.000001
  12 C      -1.379731   2.391507   0.000000    0.000180   0.000049   0.000008
  13 C       1.234959  -2.405987   0.000000   -0.000278  -0.000554   0.000000
  14 C      -1.369177  -2.316851   0.000000   -0.000038  -0.000154  -0.000001
  15 H       4.658845   4.688827   0.000000    0.000009  -0.000049  -0.000000
  16 H       2.349622   8.723739   0.000000   -0.000017   0.000016  -0.000003
  17 H      -2.337091   8.779541   0.001000   -0.000106   0.000140   0.000029
  18 H      -4.706537   4.772011   0.000000   -0.000054  -0.000020  -0.000004
  19 H      -4.743589   0.134336   0.000000   -0.000132  -0.000041   0.000000
  20 H      -4.709938  -4.610953   0.000000    0.000003   0.000023   0.000000
  21 H      -2.504549  -8.710620   0.000000    0.000065  -0.000023   0.000000
  22 H       2.213752  -8.872080   0.000000   -0.000079   0.000060   0.000000
  23 H       4.571561  -4.817568   0.000000    0.000235   0.000021   0.000000
  24 H       4.065884  -0.129766   1.633327    0.000100   0.000002   0.000127
  25 H       4.065884  -0.129766  -1.633327    0.000100   0.000003  -0.000127
 atom:  17 xyz: 3(-) wall time:  167997.0      date:  Thu Sep 16 08:10:28 2021

 
                                 NWChem DFT Module
                                 -----------------
 
 
                                     fexcnw-4
 
 
 
  Caching 1-el integrals 
 
 WARNING : Found    12 linear dependencies 
 S eigenvalue threshold:     1.00000E-05
 Smallest S eigenvalue :     6.51985E-08
 Largest  S eigenvalue :     5.62122E-06
 
   Time after variat. SCF: 167997.4
   Time prior to 1st pass: 167997.4


         Total DFT energy =     -540.026153680410
      One electron energy =    -2255.537759349254
           Coulomb energy =     1017.435366856013
    Exchange-Corr. energy =      -79.873724410187
 Nuclear repulsion energy =      777.949963223019

 Numeric. integr. density =       93.999970849066

     Total iterative time =     93.7s


                                NWChem TDDFT Module
                                -------------------
 
 
                                     fexcnw-4
 
 
 
    3 smallest eigenvalue differences (eV) 
--------------------------------------------------------
  No. Spin  Occ  Vir  Irrep   E(Occ)    E(Vir)   E(Diff)
--------------------------------------------------------
    1    1   47   48 a        -0.391    -0.287     2.821
    2    1   46   48 a        -0.415    -0.287     3.489
    3    1   45   48 a        -0.421    -0.287     3.659
--------------------------------------------------------
              Target root =      1
          Target symmetry = none
      Ground state energy =   -540.026153680410
        Excitation energy =      0.083180575484
     Excited state energy =   -539.942973104926
 
  stored tddft:energy   -539.942973104926     
 fn_civecs: 
 ./fexcnw-4.civecs_singlet                                                      
                                                                                
                                                                                
                   

  CI vectors are stored in ./fexcnw-4.civecs_singlet       
 
 
                           NWChem TDDFT Gradient Module
                           ----------------------------
 
 
 ./fexcnw-4.civecs_singlet                                                      
                                                                                
                                                                                
                   
                                     fexcnw-4
 
 
 Calculated gradients of:
 Number of Singlet roots   1
 Singlet roots    1 
 nroot:                      1
TDDFT Energy Check(  1) =       0.08318057548284


Iterative solution of linear equations
  No. of variables    21479
  No. of equations        1
  Maximum subspace       40
        Iterations      250
       Convergence  1.0D-04
        Start time 169248.2


   iter   nsub   residual    time
   ----  ------  --------  ---------
     1      1    3.00D-01  169333.1
     2      2    5.07D-02  169418.4
     3      3    1.64D-02  169503.2
     4      4    4.07D-03  169587.6
     5      5    1.28D-03  169671.6
     6      6    4.00D-04  169754.8
     7      7    1.68D-04  169837.7
     8      8    6.91D-05  169920.2
 
     Multipole analysis of the density
     ---------------------------------
 
     L   x y z        total
     -   - - -        -----
     0   0 0 0      1.000000
 
     1   1 0 0      0.166228
     1   0 1 0     -1.820490
     1   0 0 1     -0.000135
 
     2   2 0 0    -42.712922
     2   1 1 0      1.106672
     2   1 0 1      0.000410
     2   0 2 0    -20.285172
     2   0 1 1     -0.001365
     2   0 0 2    -61.715316
 
 
     No. of electrons (tr(P*S)):     0.9400000E+02
 


                         Root   1

                         TDDFT ENERGY GRADIENTS

    atom               coordinates                        gradient
                 x          y          z           x          y          z
   1 C       2.613691   4.674255   0.000000    0.000074   0.000086  -0.000006
   2 C       1.309246   6.967366   0.000000    0.000162  -0.000094  -0.000003
   3 C      -1.339908   6.997385   0.000000   -0.000155  -0.000217   0.000040
   4 C      -2.663399   4.765170   0.000000    0.000225   0.000100  -0.000004
   5 C      -2.664338  -4.606527   0.000000    0.000137   0.000206   0.000000
   6 C      -1.387745  -7.001506   0.000000    0.000001  -0.000049   0.000000
   7 C       1.217040  -7.092954   0.000000    0.000001   0.000052   0.000000
   8 C       2.526199  -4.820780   0.000000   -0.000332   0.000189  -0.000000
   9 C       2.784765  -0.054042   0.000000    0.000052   0.000115   0.000001
  10 C      -2.703692   0.134273   0.000000    0.000206  -0.000071   0.000000
  11 C       1.334780   2.397405   0.000000   -0.000356   0.000211   0.000001
  12 C      -1.379731   2.391507   0.000000    0.000180   0.000049  -0.000008
  13 C       1.234959  -2.405987   0.000000   -0.000278  -0.000554  -0.000000
  14 C      -1.369177  -2.316851   0.000000   -0.000038  -0.000154   0.000001
  15 H       4.658845   4.688827   0.000000    0.000009  -0.000049   0.000000
  16 H       2.349622   8.723739   0.000000   -0.000017   0.000016   0.000003
  17 H      -2.337091   8.779541  -0.001000   -0.000106   0.000140  -0.000029
  18 H      -4.706537   4.772011   0.000000   -0.000054  -0.000020   0.000004
  19 H      -4.743589   0.134336   0.000000   -0.000132  -0.000041  -0.000000
  20 H      -4.709938  -4.610953   0.000000    0.000003   0.000023  -0.000000
  21 H      -2.504549  -8.710620   0.000000    0.000065  -0.000023  -0.000000
  22 H       2.213752  -8.872080   0.000000   -0.000079   0.000060  -0.000000
  23 H       4.571561  -4.817568   0.000000    0.000235   0.000021  -0.000000
  24 H       4.065884  -0.129766   1.633327    0.000100   0.000003   0.000127
  25 H       4.065884  -0.129766  -1.633327    0.000100   0.000002  -0.000127
 atom:  18 xyz: 1(+) wall time:  170441.1      date:  Thu Sep 16 08:51:12 2021

 
                                 NWChem DFT Module
                                 -----------------
 
 
                                     fexcnw-4
 
 
 
  Caching 1-el integrals 
 
 WARNING : Found    12 linear dependencies 
 S eigenvalue threshold:     1.00000E-05
 Smallest S eigenvalue :     6.52001E-08
 Largest  S eigenvalue :     5.62110E-06
 
   Time after variat. SCF: 170441.5
   Time prior to 1st pass: 170441.5


         Total DFT energy =     -540.026153187150
      One electron energy =    -2255.543394358413
           Coulomb energy =     1017.438436250441
    Exchange-Corr. energy =      -79.873956358749
 Nuclear repulsion energy =      777.952761279571

 Numeric. integr. density =       93.999970873074

     Total iterative time =     94.5s


                                NWChem TDDFT Module
                                -------------------
 
 
                                     fexcnw-4
 
 
 
    3 smallest eigenvalue differences (eV) 
--------------------------------------------------------
  No. Spin  Occ  Vir  Irrep   E(Occ)    E(Vir)   E(Diff)
--------------------------------------------------------
    1    1   47   48 a        -0.391    -0.287     2.821
    2    1   46   48 a        -0.415    -0.287     3.489
    3    1   45   48 a        -0.421    -0.287     3.658
--------------------------------------------------------
              Target root =      1
          Target symmetry = none
      Ground state energy =   -540.026153187150
        Excitation energy =      0.083187295689
     Excited state energy =   -539.942965891461
 
  stored tddft:energy   -539.942965891461     
 fn_civecs: 
 ./fexcnw-4.civecs_singlet                                                      
                                                                                
                                                                                
                   

  CI vectors are stored in ./fexcnw-4.civecs_singlet       
 
 
                           NWChem TDDFT Gradient Module
                           ----------------------------
 
 
 ./fexcnw-4.civecs_singlet                                                      
                                                                                
                                                                                
                   
                                     fexcnw-4
 
 
 Calculated gradients of:
 Number of Singlet roots   1
 Singlet roots    1 
 nroot:                      1
TDDFT Energy Check(  1) =       0.08318729568806


Iterative solution of linear equations
  No. of variables    21479
  No. of equations        1
  Maximum subspace       40
        Iterations      250
       Convergence  1.0D-04
        Start time 171673.1


   iter   nsub   residual    time
   ----  ------  --------  ---------
     1      1    3.00D-01  171756.9
     2      2    5.07D-02  171841.3
     3      3    1.64D-02  171925.2
     4      4    4.07D-03  172008.6
     5      5    1.27D-03  172091.8
     6      6    4.00D-04  172175.1
     7      7    1.68D-04  172257.8
     8      8    6.91D-05  172339.7
 
     Multipole analysis of the density
     ---------------------------------
 
     L   x y z        total
     -   - - -        -----
     0   0 0 0      1.000000
 
     1   1 0 0      0.166199
     1   0 1 0     -1.819896
     1   0 0 1      0.000000
 
     2   2 0 0    -42.712401
     2   1 1 0      1.104659
     2   1 0 1      0.000000
     2   0 2 0    -20.280823
     2   0 1 1     -0.000000
     2   0 0 2    -61.714798
 
 
     No. of electrons (tr(P*S)):     0.9400000E+02
 


                         Root   1

                         TDDFT ENERGY GRADIENTS

    atom               coordinates                        gradient
                 x          y          z           x          y          z
   1 C       2.613691   4.674255   0.000000    0.000075   0.000077   0.000000
   2 C       1.309246   6.967366   0.000000    0.000170  -0.000098   0.000000
   3 C      -1.339908   6.997385   0.000000   -0.000164  -0.000200  -0.000000
   4 C      -2.663399   4.765170   0.000000   -0.000121   0.000097  -0.000000
   5 C      -2.664338  -4.606527   0.000000    0.000144   0.000220   0.000000
   6 C      -1.387745  -7.001506   0.000000   -0.000003  -0.000043  -0.000000
   7 C       1.217040  -7.092954   0.000000   -0.000000   0.000052   0.000000
   8 C       2.526199  -4.820780   0.000000   -0.000338   0.000196   0.000000
   9 C       2.784765  -0.054042   0.000000    0.000055   0.000112   0.000000
  10 C      -2.703692   0.134273   0.000000    0.000217  -0.000081   0.000000
  11 C       1.334780   2.397405   0.000000   -0.000351   0.000208   0.000000
  12 C      -1.379731   2.391507   0.000000    0.000170   0.000027   0.000000
  13 C       1.234959  -2.405987   0.000000   -0.000306  -0.000550   0.000000
  14 C      -1.369177  -2.316851   0.000000   -0.000021  -0.000160  -0.000000
  15 H       4.658845   4.688827   0.000000    0.000007  -0.000048  -0.000000
  16 H       2.349622   8.723739   0.000000   -0.000016   0.000021   0.000000
  17 H      -2.337091   8.779541   0.000000   -0.000108   0.000145  -0.000000
  18 H      -4.705537   4.772011   0.000000    0.000294  -0.000021  -0.000000
  19 H      -4.743589   0.134336   0.000000   -0.000128  -0.000039  -0.000000
  20 H      -4.709938  -4.610953   0.000000    0.000013   0.000022  -0.000000
  21 H      -2.504549  -8.710620   0.000000    0.000067  -0.000022   0.000000
  22 H       2.213752  -8.872080   0.000000   -0.000079   0.000059  -0.000000
  23 H       4.571561  -4.817568   0.000000    0.000235   0.000021  -0.000000
  24 H       4.065884  -0.129766   1.633327    0.000096   0.000003   0.000123
  25 H       4.065884  -0.129766  -1.633327    0.000096   0.000003  -0.000123
 atom:  18 xyz: 1(-) wall time:  172845.6      date:  Thu Sep 16 09:31:17 2021

 
                                 NWChem DFT Module
                                 -----------------
 
 
                                     fexcnw-4
 
 
 
  Caching 1-el integrals 
 
 WARNING : Found    12 linear dependencies 
 S eigenvalue threshold:     1.00000E-05
 Smallest S eigenvalue :     6.51970E-08
 Largest  S eigenvalue :     5.62134E-06
 
   Time after variat. SCF: 172846.0
   Time prior to 1st pass: 172846.0
