 Entering Gaussian System, Link 0=g16
 Initial command:
 /apps/gaussian/g16c01/g16/l1.exe "/jobfs/51125639.gadi-pbs/Gau-152744.inp" -scrdir="/jobfs/51125639.gadi-pbs/"
 Entering Link 1 = /apps/gaussian/g16c01/g16/l1.exe PID=    152745.
  
 Copyright (c) 1988-2019, Gaussian, Inc.  All Rights Reserved.
  
 This is part of the Gaussian(R) 16 program.  It is based on
 the Gaussian(R) 09 system (copyright 2009, Gaussian, Inc.),
 the Gaussian(R) 03 system (copyright 2003, Gaussian, Inc.),
 the Gaussian(R) 98 system (copyright 1998, Gaussian, Inc.),
 the Gaussian(R) 94 system (copyright 1995, Gaussian, Inc.),
 the Gaussian 92(TM) system (copyright 1992, Gaussian, Inc.),
 the Gaussian 90(TM) system (copyright 1990, Gaussian, Inc.),
 the Gaussian 88(TM) system (copyright 1988, Gaussian, Inc.),
 the Gaussian 86(TM) system (copyright 1986, Carnegie Mellon
 University), and the Gaussian 82(TM) system (copyright 1983,
 Carnegie Mellon University). Gaussian is a federally registered
 trademark of Gaussian, Inc.
  
 This software contains proprietary and confidential information,
 including trade secrets, belonging to Gaussian, Inc.
  
 This software is provided under written license and may be
 used, copied, transmitted, or stored only in accord with that
 written license.
  
 The following legend is applicable only to US Government
 contracts under FAR:
  
                    RESTRICTED RIGHTS LEGEND
  
 Use, reproduction and disclosure by the US Government is
 subject to restrictions as set forth in subparagraphs (a)
 and (c) of the Commercial Computer Software - Restricted
 Rights clause in FAR 52.227-19.
  
 Gaussian, Inc.
 340 Quinnipiac St., Bldg. 40, Wallingford CT 06492
  
  
 ---------------------------------------------------------------
 Warning -- This program may not be used in any manner that
 competes with the business of Gaussian, Inc. or will provide
 assistance to any competitor of Gaussian, Inc.  The licensee
 of this program is prohibited from giving any competitor of
 Gaussian, Inc. access to this program.  By using this program,
 the user acknowledges that Gaussian, Inc. is engaged in the
 business of creating and licensing software in the field of
 computational chemistry and represents and warrants to the
 licensee that it is not a competitor of Gaussian, Inc. and that
 it will not use this program in any manner prohibited above.
 ---------------------------------------------------------------
  

 Cite this work as:
 Gaussian 16, Revision C.01,
 M. J. Frisch, G. W. Trucks, H. B. Schlegel, G. E. Scuseria, 
 M. A. Robb, J. R. Cheeseman, G. Scalmani, V. Barone, 
 G. A. Petersson, H. Nakatsuji, X. Li, M. Caricato, A. V. Marenich, 
 J. Bloino, B. G. Janesko, R. Gomperts, B. Mennucci, H. P. Hratchian, 
 J. V. Ortiz, A. F. Izmaylov, J. L. Sonnenberg, D. Williams-Young, 
 F. Ding, F. Lipparini, F. Egidi, J. Goings, B. Peng, A. Petrone, 
 T. Henderson, D. Ranasinghe, V. G. Zakrzewski, J. Gao, N. Rega, 
 G. Zheng, W. Liang, M. Hada, M. Ehara, K. Toyota, R. Fukuda, 
 J. Hasegawa, M. Ishida, T. Nakajima, Y. Honda, O. Kitao, H. Nakai, 
 T. Vreven, K. Throssell, J. A. Montgomery, Jr., J. E. Peralta, 
 F. Ogliaro, M. J. Bearpark, J. J. Heyd, E. N. Brothers, K. N. Kudin, 
 V. N. Staroverov, T. A. Keith, R. Kobayashi, J. Normand, 
 K. Raghavachari, A. P. Rendell, J. C. Burant, S. S. Iyengar, 
 J. Tomasi, M. Cossi, J. M. Millam, M. Klene, C. Adamo, R. Cammi, 
 J. W. Ochterski, R. L. Martin, K. Morokuma, O. Farkas, 
 J. B. Foresman, and D. J. Fox, Gaussian, Inc., Wallingford CT, 2019.
 
 ******************************************
 Gaussian 16:  ES64L-G16RevC.01  3-Jul-2019
                14-Jul-2022 
 ******************************************
 %NProcShared=8
 Will use up to    8 processors via shared memory.
 %mem = 32GB
 %Chk=check_sp_18
 ----------------------------------------------
 #n M062X/6-311++G(d,p) TD SP pop=reg formcheck
 ----------------------------------------------
 1/38=1,172=1/1;
 2/12=2,17=6,18=5,40=1/2;
 3/5=4,6=6,7=1111,11=9,25=1,30=1,74=-55/1,2,3,8;
 4//1;
 5/5=2,38=5/2;
 8/6=1,10=2/1;
 9/42=1,70=2/14;
 6//1;
 99/5=1,9=1/99;
 -----
 SP_18
 -----
 Symbolic Z-matrix:
 Charge =  1 Multiplicity = 1
 C                     2.53191   1.37317   0. 
 C                     3.7456    0.69683   0. 
 C                     3.7117   -0.67664   0. 
 C                     2.42921  -1.38745   0. 
 C                    -2.50861  -1.4181    0. 
 C                    -3.67367  -0.73813   0. 
 C                    -3.67469   0.66839   0. 
 C                    -2.46599   1.37243   0. 
 C                     0.01533   1.46797   0. 
 C                    -0.0578   -1.42471   0. 
 C                     1.24542   0.66425   0. 
 C                     1.22597  -0.71958   0. 
 C                    -1.28401   0.70986   0. 
 C                    -1.25496  -0.72752   0. 
 H                     2.50536   2.45905   0. 
 H                     4.6813    1.23623   0. 
 H                     4.62374  -1.26308   0. 
 H                     2.45402  -2.47338   0. 
 H                    -0.0493   -2.50794   0. 
 H                    -2.49316  -2.50182   0. 
 H                    -4.61635  -1.27047   0. 
 H                    -4.61353   1.21      0. 
 H                    -2.48468   2.45739   0. 
 H                     0.08513   2.1565   -0.86432 
 H                     0.08531   2.1565    0.86432 
 
                          Input orientation:                          
 ---------------------------------------------------------------------
 Center     Atomic      Atomic             Coordinates (Angstroms)
 Number     Number       Type             X           Y           Z
 ---------------------------------------------------------------------
      1          6           0        2.531912    1.373169    0.000000
      2          6           0        3.745598    0.696828    0.000000
      3          6           0        3.711704   -0.676642    0.000000
      4          6           0        2.429210   -1.387448    0.000000
      5          6           0       -2.508610   -1.418101    0.000000
      6          6           0       -3.673665   -0.738132    0.000000
      7          6           0       -3.674691    0.668391    0.000000
      8          6           0       -2.465991    1.372431    0.000000
      9          6           0        0.015326    1.467973    0.000000
     10          6           0       -0.057796   -1.424715    0.000000
     11          6           0        1.245416    0.664248    0.000000
     12          6           0        1.225972   -0.719582    0.000000
     13          6           0       -1.284009    0.709858    0.000000
     14          6           0       -1.254963   -0.727522    0.000000
     15          1           0        2.505361    2.459053    0.000000
     16          1           0        4.681301    1.236225    0.000000
     17          1           0        4.623738   -1.263082    0.000000
     18          1           0        2.454017   -2.473381    0.000000
     19          1           0       -0.049302   -2.507939    0.000000
     20          1           0       -2.493163   -2.501818    0.000000
     21          1           0       -4.616352   -1.270468    0.000000
     22          1           0       -4.613533    1.210004    0.000000
     23          1           0       -2.484679    2.457391    0.000000
     24          1           0        0.085125    2.156495   -0.864324
     25          1           0        0.085310    2.156495    0.864324
 ---------------------------------------------------------------------
                    Distance matrix (angstroms):
                    1          2          3          4          5
     1  C    0.000000
     2  C    1.389414   0.000000
     3  C    2.365087   1.373888   0.000000
     4  C    2.762527   2.465175   1.466301   0.000000
     5  C    5.761776   6.602124   6.264349   4.937915   0.000000
     6  C    6.554905   7.556757   7.385625   6.137320   1.348967
     7  C    6.246490   7.420344   7.507859   6.440814   2.390229
     8  C    4.997903   6.248222   6.508657   5.619602   2.790857
     9  C    2.518371   3.809146   4.273474   3.739019   3.834016
    10  C    3.812446   4.355083   3.843013   2.487285   2.450823
    11  C    1.468891   2.500394   2.807234   2.368718   4.292889
    12  C    2.466797   2.890455   2.486102   1.376163   3.799347
    13  C    3.873143   5.029624   5.184547   4.264585   2.455170
    14  C    4.330511   5.199460   4.966928   3.742810   1.431269
    15  H    1.086209   2.154908   3.359740   3.847255   6.338157
    16  H    2.153747   1.080041   2.144570   3.457684   7.664220
    17  H    3.365346   2.147644   1.084305   2.198049   7.134033
    18  H    3.847339   3.423216   2.193182   1.086216   5.073587
    19  H    4.661081   4.967072   4.183159   2.720022   2.689971
    20  H    6.345621   7.010954   6.467739   5.046937   1.083827
    21  H    7.621450   8.590253   8.349200   7.046532   2.112905
    22  H    7.147308   8.374869   8.536335   7.506463   3.367141
    23  H    5.132419   6.474252   6.943870   6.239319   3.875566
    24  H    2.710613   4.034445   4.682499   4.336049   4.500251
    25  H    2.710446   4.034278   4.682356   4.335950   4.500357
                    6          7          8          9         10
     6  C    0.000000
     7  C    1.406523   0.000000
     8  C    2.431656   1.398795   0.000000
     9  C    4.298320   3.775654   2.483156   0.000000
    10  C    3.680476   4.178878   3.690992   2.893611   0.000000
    11  C    5.115079   4.920109   3.778368   1.469385   2.462139
    12  C    4.899673   5.093425   4.243479   2.500212   1.464675
    13  C    2.794125   2.391042   1.355022   1.504330   2.461706
    14  C    2.418726   2.793503   2.424127   2.536500   1.385382
    15  H    6.957180   6.434245   5.088721   2.680021   4.653324
    16  H    8.585077   8.375264   7.148590   4.671726   5.435038
    17  H    8.313992   8.520241   7.563741   5.356875   4.684324
    18  H    6.368640   6.887074   6.244737   4.634812   2.721931
    19  H    4.033389   4.820012   4.571395   3.976437   1.083258
    20  H    2.122304   3.383228   3.874344   4.695929   2.662924
    21  H    1.082607   2.155434   3.407193   5.380659   4.561164
    22  H    2.163004   1.083868   2.153676   4.636042   5.262745
    23  H    3.409554   2.148639   1.085122   2.688676   4.578265
    24  H    4.822285   4.134940   2.805353   1.107245   3.686807
    25  H    4.822428   4.135108   2.805521   1.107257   3.686814
                   11         12         13         14         15
    11  C    0.000000
    12  C    1.383967   0.000000
    13  C    2.529836   2.888478   0.000000
    14  C    2.861629   2.480948   1.437674   0.000000
    15  H    2.192894   3.426450   4.173608   4.928925   0.000000
    16  H    3.483168   3.970450   5.988487   6.252642   2.496002
    17  H    3.889429   3.440959   6.228479   5.903045   4.282734
    18  H    3.362355   2.141005   4.909770   4.099336   4.932701
    19  H    3.426233   2.196485   3.446551   2.150233   5.585456
    20  H    4.899076   4.124116   3.431751   2.163623   7.042406
    21  H    6.172799   5.868239   3.876364   3.404956   8.039161
    22  H    5.884313   6.150051   3.366880   3.877371   7.227639
    23  H    4.138716   4.884885   2.120256   3.414071   4.990040
    24  H    2.078493   3.212540   2.171254   3.295520   2.587689
    25  H    2.078390   3.212474   2.171370   3.295595   2.587517
                   16         17         18         19         20
    16  H    0.000000
    17  H    2.499969   0.000000
    18  H    4.326889   2.484454   0.000000
    19  H    6.033024   4.836008   2.503558   0.000000
    20  H    8.089864   7.223901   4.947262   2.443868   0.000000
    21  H    9.629634   9.240092   7.171967   4.731731   2.454415
    22  H    9.294871   9.562600   7.969792   5.886876   4.274762
    23  H    7.269286   8.023186   6.978770   5.530422   4.959216
    24  H    4.766423   5.748005   5.272045   4.745743   5.393932
    25  H    4.766245   5.747860   5.271962   4.745748   5.394021
                   21         22         23         24         25
    21  H    0.000000
    22  H    2.480474   0.000000
    23  H    4.294294   2.467386   0.000000
    24  H    5.881753   4.870348   2.727909   0.000000
    25  H    5.881900   4.870526   2.728083   1.728648   0.000000
 Stoichiometry    C14H11(1+)
 Framework group  C1[X(C14H11)]
 Deg. of freedom    69
 Full point group                 C1      NOp   1
 Largest Abelian subgroup         C1      NOp   1
 Largest concise Abelian subgroup C1      NOp   1
                         Standard orientation:                         
 ---------------------------------------------------------------------
 Center     Atomic      Atomic             Coordinates (Angstroms)
 Number     Number       Type             X           Y           Z
 ---------------------------------------------------------------------
      1          6           0        2.545063   -1.338016    0.000000
      2          6           0        3.751625   -0.649046    0.000000
      3          6           0        3.703400    0.723995    0.000000
      4          6           0        2.413558    1.421380    0.000000
      5          6           0       -2.524313    1.400504    0.000000
      6          6           0       -3.682209    0.708415    0.000000
      7          6           0       -3.668557   -0.698042    0.000000
      8          6           0       -2.452576   -1.389431    0.000000
      9          6           0        0.029603   -1.459075    0.000000
     10          6           0       -0.073701    1.432692    0.000000
     11          6           0        1.251239   -0.642558    0.000000
     12          6           0        1.217356    0.740994    0.000000
     13          6           0       -1.277572   -0.714560    0.000000
     14          6           0       -1.263527    0.723045    0.000000
     15          1           0        2.529844   -2.424118    0.000000
     16          1           0        4.692905   -1.178650    0.000000
     17          1           0        4.609265    1.319920    0.000000
     18          1           0        2.427032    2.507512    0.000000
     19          1           0       -0.076511    2.515946    0.000000
     20          1           0       -2.520175    2.484323    0.000000
     21          1           0       -4.630399    1.230885    0.000000
     22          1           0       -4.601696   -1.249423    0.000000
     23          1           0       -2.459942   -2.474527    0.000000
     24          1           0        0.106583   -2.146832    0.864324
     25          1           0        0.106767   -2.146830   -0.864324
 ---------------------------------------------------------------------
 Rotational constants (GHZ):           2.1249099           0.4424110           0.3669737
 Standard basis: 6-311++G(d,p) (5D, 7F)
 There are   399 symmetry adapted cartesian basis functions of A   symmetry.
 There are   385 symmetry adapted basis functions of A   symmetry.
   385 basis functions,   603 primitive gaussians,   399 cartesian basis functions
    47 alpha electrons       47 beta electrons
       nuclear repulsion energy       779.3813615399 Hartrees.
 NAtoms=   25 NActive=   25 NUniq=   25 SFac= 1.00D+00 NAtFMM=   60 NAOKFM=F Big=F
 Integral buffers will be    131072 words long.
 Regular integral format.
 Two-electron integral symmetry is turned on.
 One-electron integrals computed using PRISM.
 NBasis=   385 RedAO= T EigKep=  1.14D-06  NBF=   385
 NBsUse=   379 1.00D-06 EigRej=  8.63D-07 NBFU=   379
 ExpMin= 3.60D-02 ExpMax= 4.56D+03 ExpMxC= 6.82D+02 IAcc=3 IRadAn=         5 AccDes= 0.00D+00
 Harris functional with IExCor= 1009 and IRadAn=       5 diagonalized for initial guess.
 HarFok:  IExCor= 1009 AccDes= 0.00D+00 IRadAn=         5 IDoV= 1 UseB2=F ITyADJ=14
 ICtDFT=  3500011 ScaDFX=  1.000000  1.000000  1.000000  1.000000
 FoFCou: FMM=F IPFlag=           0 FMFlag=      100000 FMFlg1=           0
         NFxFlg=           0 DoJE=T BraDBF=F KetDBF=T FulRan=T
         wScrn=  0.000000 ICntrl=       500 IOpCl=  0 I1Cent=   200000004 NGrid=           0
         NMat0=    1 NMatS0=      1 NMatT0=    0 NMatD0=    1 NMtDS0=    0 NMtDT0=    0
 Petite list used in FoFCou.
 Requested convergence on RMS density matrix=1.00D-08 within 128 cycles.
 Requested convergence on MAX density matrix=1.00D-06.
 Requested convergence on             energy=1.00D-06.
 No special actions if energy rises.
 SCF Done:  E(RM062X) =  -539.744587619     A.U. after   16 cycles
            NFock= 16  Conv=0.40D-08     -V/T= 2.0044
 DoSCS=F DFT=T ScalE2(SS,OS)=  1.000000  1.000000
 ExpMin= 3.60D-02 ExpMax= 4.56D+03 ExpMxC= 6.82D+02 IAcc=3 IRadAn=         5 AccDes= 0.00D+00
 HarFok:  IExCor=  205 AccDes= 0.00D+00 IRadAn=         5 IDoV=-2 UseB2=F ITyADJ=14
 ICtDFT= 12500011 ScaDFX=  1.000000  1.000000  1.000000  1.000000
 Range of M.O.s used for correlation:    15   379
 NBasis=   385 NAE=    47 NBE=    47 NFC=    14 NFV=     0
 NROrb=    365 NOA=    33 NOB=    33 NVA=   332 NVB=   332

 **** Warning!!: The largest alpha MO coefficient is  0.14557563D+03

 Orbital symmetries:
       Occupied  (A) (A) (A) (A) (A) (A) (A) (A) (A) (A) (A) (A)
                 (A) (A) (A) (A) (A) (A) (A) (A) (A) (A) (A) (A)
                 (A) (A) (A) (A) (A) (A) (A) (A) (A) (A) (A) (A)
                 (A) (A) (A) (A) (A) (A) (A) (A) (A) (A) (A)
       Virtual   (A) (A) (A) (A) (A) (A) (A) (A) (A) (A) (A) (A)
                 (A) (A) (A) (A) (A) (A) (A) (A) (A) (A) (A) (A)
                 (A) (A) (A) (A) (A) (A) (A) (A) (A) (A) (A) (A)
                 (A) (A) (A) (A) (A) (A) (A) (A) (A) (A) (A) (A)
                 (A) (A) (A) (A) (A) (A) (A) (A) (A) (A) (A) (A)
                 (A) (A) (A) (A) (A) (A) (A) (A) (A) (A) (A) (A)
                 (A) (A) (A) (A) (A) (A) (A) (A) (A) (A) (A) (A)
                 (A) (A) (A) (A) (A) (A) (A) (A) (A) (A) (A) (A)
                 (A) (A) (A) (A) (A) (A) (A) (A) (A) (A) (A) (A)
                 (A) (A) (A) (A) (A) (A) (A) (A) (A) (A) (A) (A)
                 (A) (A) (A) (A) (A) (A) (A) (A) (A) (A) (A) (A)
                 (A) (A) (A) (A) (A) (A) (A) (A) (A) (A) (A) (A)
                 (A) (A) (A) (A) (A) (A) (A) (A) (A) (A) (A) (A)
                 (A) (A) (A) (A) (A) (A) (A) (A) (A) (A) (A) (A)
                 (A) (A) (A) (A) (A) (A) (A) (A) (A) (A) (A) (A)
                 (A) (A) (A) (A) (A) (A) (A) (A) (A) (A) (A) (A)
                 (A) (A) (A) (A) (A) (A) (A) (A) (A) (A) (A) (A)
                 (A) (A) (A) (A) (A) (A) (A) (A) (A) (A) (A) (A)
                 (A) (A) (A) (A) (A) (A) (A) (A) (A) (A) (A) (A)
                 (A) (A) (A) (A) (A) (A) (A) (A) (A) (A) (A) (A)
                 (A) (A) (A) (A) (A) (A) (A) (A) (A) (A) (A) (A)
                 (A) (A) (A) (A) (A) (A) (A) (A) (A) (A) (A) (A)
                 (A) (A) (A) (A) (A) (A) (A) (A) (A) (A) (A) (A)
                 (A) (A) (A) (A) (A) (A) (A) (A) (A) (A) (A) (A)
                 (A) (A) (A) (A) (A) (A) (A) (A) (A) (A) (A) (A)
                 (A) (A) (A) (A) (A) (A) (A) (A) (A) (A) (A) (A)
                 (A) (A) (A) (A) (A) (A) (A) (A) (A) (A) (A) (A)
                 (A) (A) (A) (A) (A) (A) (A) (A)
    12 initial guesses have been made.
 Convergence on wavefunction:    0.001000000000000
 Iteration     1 Dimension    12 NMult     0 NNew     12
 CISAX will form    12 AO SS matrices at one time.
 New state      2 was old state      3
 New state      3 was old state      2
 Iteration     2 Dimension    18 NMult    12 NNew      6
 New state      2 was old state      3
 New state      3 was old state      2
 Iteration     3 Dimension    24 NMult    18 NNew      6
 Iteration     4 Dimension    30 NMult    24 NNew      6
 Iteration     5 Dimension    36 NMult    30 NNew      6
 Iteration     6 Dimension    42 NMult    36 NNew      6
 ***********************************************************************
 Excited states from <AA,BB:AA,BB> singles matrix:
 ***********************************************************************
 
 Ground to excited state transition densities written to RWF  633
 Ground to excited state transition electric dipole moments (Au):
       state          X           Y           Z        Dip. S.      Osc.
         1         0.1079     -0.4937      0.0000      0.2554      0.0158
         2         2.1010      0.2469      0.0000      4.4752      0.3786
         3        -1.3915      0.3468      0.0000      2.0566      0.1788
 Ground to excited state transition velocity dipole moments (Au):
       state          X           Y           Z        Dip. S.      Osc.
         1        -0.0058      0.0522      0.0000      0.0028      0.0198
         2        -0.2650     -0.0338     -0.0000      0.0714      0.3749
         3         0.1876     -0.0483     -0.0000      0.0375      0.1919
 Ground to excited state transition magnetic dipole moments (Au):
       state          X           Y           Z
         1        -0.0000      0.0000      0.1428
         2        -0.0000     -0.0000      1.4406
         3         0.0000     -0.0000      0.2302
 Ground to excited state transition velocity quadrupole moments (Au):
       state          XX          YY          ZZ          XY          XZ          YZ
         1         0.2057      0.0205     -0.0072      0.0870      0.0000     -0.0000
         2         0.0008     -0.0283      0.0037      0.2692      0.0000     -0.0000
         3        -0.2745     -0.0201      0.0064      0.1789     -0.0000      0.0000
 <0|del|b> * <b|rxdel|0> + <0|del|b> * <b|delr+rdel|0>
 Rotatory Strengths (R) in cgs (10**-40 erg-esu-cm/Gauss)
       state          XX          YY          ZZ    R(velocity)    E-M Angle
         1         0.0030      0.0007      0.0025      0.0020       90.00
         2         0.0005      0.0104      0.0072      0.0060       90.00
         3        -0.0017      0.0101      0.0006      0.0030       90.00
 1/2[<0|r|b>*<b|rxdel|0> + (<0|rxdel|b>*<b|r|0>)*]
 Rotatory Strengths (R) in cgs (10**-40 erg-esu-cm/Gauss)
       state          XX          YY          ZZ     R(length)
         1         0.0003      0.0026     -0.0001      0.0010
         2         0.0173      0.0010     -0.0092      0.0030
         3         0.0093      0.0008     -0.0004      0.0033
  1/2[<0|del|b>*<b|r|0> + (<0|r|b>*<b|del|0>)*] (Au)
       state          X           Y           Z        Dip. S.   Osc.(frdel)
         1        -0.0006     -0.0258      0.0000      0.0264      0.0176
         2        -0.5567     -0.0083     -0.0000      0.5651      0.3767
         3        -0.2611     -0.0167     -0.0000      0.2778      0.1852

 Excitation energies and oscillator strengths:
 
 Excited State   1:      Singlet-A      2.5250 eV  491.03 nm  f=0.0158  <S**2>=0.000
      47 -> 48         0.70330
 This state for optimization and/or second-order correction.
 Total Energy, E(TD-HF/TD-DFT) =  -539.651796287    
 Copying the excited state density for this state as the 1-particle RhoCI density.
 
 Excited State   2:      Singlet-A      3.4530 eV  359.06 nm  f=0.3786  <S**2>=0.000
      45 -> 48         0.26447
      46 -> 48         0.64490
 
 Excited State   3:      Singlet-A      3.5478 eV  349.46 nm  f=0.1788  <S**2>=0.000
      45 -> 48         0.64987
      46 -> 48        -0.26426
 SavETr:  write IOETrn=   770 NScale= 10 NData=  16 NLR=1 NState=    3 LETran=      64.

 **********************************************************************

            Population analysis using the SCF Density.

 **********************************************************************

 Orbital symmetries:
       Occupied  (A) (A) (A) (A) (A) (A) (A) (A) (A) (A) (A) (A)
                 (A) (A) (A) (A) (A) (A) (A) (A) (A) (A) (A) (A)
                 (A) (A) (A) (A) (A) (A) (A) (A) (A) (A) (A) (A)
                 (A) (A) (A) (A) (A) (A) (A) (A) (A) (A) (A)
       Virtual   (A) (A) (A) (A) (A) (A) (A) (A) (A) (A) (A) (A)
                 (A) (A) (A) (A) (A) (A) (A) (A) (A) (A) (A) (A)
                 (A) (A) (A) (A) (A) (A) (A) (A) (A) (A) (A) (A)
                 (A) (A) (A) (A) (A) (A) (A) (A) (A) (A) (A) (A)
                 (A) (A) (A) (A) (A) (A) (A) (A) (A) (A) (A) (A)
                 (A) (A) (A) (A) (A) (A) (A) (A) (A) (A) (A) (A)
                 (A) (A) (A) (A) (A) (A) (A) (A) (A) (A) (A) (A)
                 (A) (A) (A) (A) (A) (A) (A) (A) (A) (A) (A) (A)
                 (A) (A) (A) (A) (A) (A) (A) (A) (A) (A) (A) (A)
                 (A) (A) (A) (A) (A) (A) (A) (A) (A) (A) (A) (A)
                 (A) (A) (A) (A) (A) (A) (A) (A) (A) (A) (A) (A)
                 (A) (A) (A) (A) (A) (A) (A) (A) (A) (A) (A) (A)
                 (A) (A) (A) (A) (A) (A) (A) (A) (A) (A) (A) (A)
                 (A) (A) (A) (A) (A) (A) (A) (A) (A) (A) (A) (A)
                 (A) (A) (A) (A) (A) (A) (A) (A) (A) (A) (A) (A)
                 (A) (A) (A) (A) (A) (A) (A) (A) (A) (A) (A) (A)
                 (A) (A) (A) (A) (A) (A) (A) (A) (A) (A) (A) (A)
                 (A) (A) (A) (A) (A) (A) (A) (A) (A) (A) (A) (A)
                 (A) (A) (A) (A) (A) (A) (A) (A) (A) (A) (A) (A)
                 (A) (A) (A) (A) (A) (A) (A) (A) (A) (A) (A) (A)
                 (A) (A) (A) (A) (A) (A) (A) (A) (A) (A) (A) (A)
                 (A) (A) (A) (A) (A) (A) (A) (A) (A) (A) (A) (A)
                 (A) (A) (A) (A) (A) (A) (A) (A) (A) (A) (A) (A)
                 (A) (A) (A) (A) (A) (A) (A) (A) (A) (A) (A) (A)
                 (A) (A) (A) (A) (A) (A) (A) (A) (A) (A) (A) (A)
                 (A) (A) (A) (A) (A) (A) (A) (A) (A) (A) (A) (A)
                 (A) (A) (A) (A) (A) (A) (A) (A) (A) (A) (A) (A)
                 (A) (A) (A) (A) (A) (A) (A) (A)
 The electronic state is 1-A.
 Alpha  occ. eigenvalues --  -10.77565 -10.74103 -10.73111 -10.72764 -10.72534
 Alpha  occ. eigenvalues --  -10.72101 -10.71799 -10.71092 -10.70686 -10.70421
 Alpha  occ. eigenvalues --  -10.70126 -10.69756 -10.69611 -10.69320  -1.16429
 Alpha  occ. eigenvalues --   -1.12279  -1.06747  -1.05837  -1.01130  -1.00481
 Alpha  occ. eigenvalues --   -0.95301  -0.90896  -0.86336  -0.85719  -0.83696
 Alpha  occ. eigenvalues --   -0.78171  -0.76104  -0.74170  -0.69986  -0.69204
 Alpha  occ. eigenvalues --   -0.68087  -0.67977  -0.67827  -0.65554  -0.64125
 Alpha  occ. eigenvalues --   -0.62401  -0.61360  -0.60600  -0.59334  -0.58920
 Alpha  occ. eigenvalues --   -0.56765  -0.55524  -0.53955  -0.52334  -0.47820
 Alpha  occ. eigenvalues --   -0.46089  -0.43199
 Alpha virt. eigenvalues --   -0.26162  -0.14755  -0.14036  -0.12795  -0.11194
 Alpha virt. eigenvalues --   -0.10098  -0.09292  -0.07938  -0.07901  -0.07500
 Alpha virt. eigenvalues --   -0.07213  -0.07134  -0.05666  -0.05574  -0.05392
 Alpha virt. eigenvalues --   -0.03865  -0.03666  -0.03279  -0.03159  -0.02151
 Alpha virt. eigenvalues --   -0.01314  -0.00985   0.00165   0.00546   0.00634
 Alpha virt. eigenvalues --    0.01077   0.01484   0.01900   0.02051   0.02291
 Alpha virt. eigenvalues --    0.02439   0.02663   0.02780   0.03143   0.03489
 Alpha virt. eigenvalues --    0.04189   0.04477   0.04744   0.05014   0.05378
 Alpha virt. eigenvalues --    0.06024   0.06238   0.06545   0.07048   0.07273
 Alpha virt. eigenvalues --    0.07888   0.07951   0.08307   0.08666   0.08846
 Alpha virt. eigenvalues --    0.09375   0.09513   0.09792   0.10593   0.10803
 Alpha virt. eigenvalues --    0.11122   0.11936   0.12181   0.12469   0.12994
 Alpha virt. eigenvalues --    0.13498   0.13516   0.13924   0.14127   0.15553
 Alpha virt. eigenvalues --    0.16260   0.16453   0.17239   0.17300   0.17671
 Alpha virt. eigenvalues --    0.18030   0.19019   0.19353   0.19707   0.20024
 Alpha virt. eigenvalues --    0.21408   0.21534   0.22447   0.23111   0.23518
 Alpha virt. eigenvalues --    0.23977   0.24471   0.25403   0.26887   0.27461
 Alpha virt. eigenvalues --    0.28739   0.29255   0.29853   0.31250   0.35452
 Alpha virt. eigenvalues --    0.36225   0.38147   0.39191   0.40846   0.41153
 Alpha virt. eigenvalues --    0.41823   0.42051   0.43029   0.43594   0.44525
 Alpha virt. eigenvalues --    0.44537   0.44942   0.45737   0.46260   0.47851
 Alpha virt. eigenvalues --    0.48270   0.48616   0.49079   0.50694   0.50839
 Alpha virt. eigenvalues --    0.51000   0.52158   0.52176   0.52531   0.54149
 Alpha virt. eigenvalues --    0.54214   0.54505   0.55565   0.56130   0.57633
 Alpha virt. eigenvalues --    0.58171   0.59047   0.61501   0.62191   0.62300
 Alpha virt. eigenvalues --    0.62957   0.63421   0.64596   0.65095   0.67557
 Alpha virt. eigenvalues --    0.70064   0.70261   0.71179   0.72512   0.72902
 Alpha virt. eigenvalues --    0.75387   0.75876   0.76385   0.76674   0.77106
 Alpha virt. eigenvalues --    0.77816   0.78093   0.78266   0.80012   0.80253
 Alpha virt. eigenvalues --    0.81093   0.81548   0.82549   0.82841   0.85196
 Alpha virt. eigenvalues --    0.86894   0.87823   0.88115   0.89308   0.90703
 Alpha virt. eigenvalues --    0.90885   0.91543   0.93311   0.94413   0.96216
 Alpha virt. eigenvalues --    0.96858   1.00018   1.01191   1.01299   1.02856
 Alpha virt. eigenvalues --    1.02871   1.03150   1.04844   1.06266   1.08793
 Alpha virt. eigenvalues --    1.19521   1.22618   1.23492   1.24094   1.28951
 Alpha virt. eigenvalues --    1.29423   1.32274   1.34080   1.35710   1.35804
 Alpha virt. eigenvalues --    1.39096   1.39305   1.40438   1.42682   1.43156
 Alpha virt. eigenvalues --    1.43205   1.43904   1.46108   1.46375   1.46581
 Alpha virt. eigenvalues --    1.47637   1.48066   1.51574   1.53456   1.55264
 Alpha virt. eigenvalues --    1.55398   1.56104   1.56400   1.57643   1.61141
 Alpha virt. eigenvalues --    1.62513   1.63355   1.64372   1.65880   1.67967
 Alpha virt. eigenvalues --    1.68072   1.68500   1.69676   1.74200   1.75660
 Alpha virt. eigenvalues --    1.76775   1.78132   1.78998   1.79559   1.81301
 Alpha virt. eigenvalues --    1.82328   1.82820   1.83174   1.83681   1.84010
 Alpha virt. eigenvalues --    1.84621   1.85146   1.86359   1.88380   1.91195
 Alpha virt. eigenvalues --    1.92034   1.93508   1.95449   1.97486   1.97849
 Alpha virt. eigenvalues --    1.99595   2.01926   2.04283   2.07023   2.11268
 Alpha virt. eigenvalues --    2.11925   2.14233   2.14864   2.18567   2.20746
 Alpha virt. eigenvalues --    2.22201   2.27757   2.29788   2.33585   2.34128
 Alpha virt. eigenvalues --    2.35803   2.38070   2.39496   2.41732   2.44012
 Alpha virt. eigenvalues --    2.45580   2.45677   2.48502   2.52483   2.53165
 Alpha virt. eigenvalues --    2.54243   2.56814   2.57909   2.58587   2.59134
 Alpha virt. eigenvalues --    2.60049   2.61141   2.61877   2.63447   2.63624
 Alpha virt. eigenvalues --    2.64829   2.64913   2.65067   2.65815   2.67346
 Alpha virt. eigenvalues --    2.67775   2.70596   2.70725   2.73304   2.74639
 Alpha virt. eigenvalues --    2.76100   2.76958   2.79406   2.82666   2.83218
 Alpha virt. eigenvalues --    2.83954   2.86037   2.91834   2.96921   2.99021
 Alpha virt. eigenvalues --    2.99948   3.04070   3.06933   3.10088   3.13937
 Alpha virt. eigenvalues --    3.18877   3.19900   3.24641   3.28227   3.30757
 Alpha virt. eigenvalues --    3.32007   3.34890   3.44112   3.45934   3.46172
 Alpha virt. eigenvalues --    3.47717   3.48881   3.55922   3.65573   3.66561
 Alpha virt. eigenvalues --    3.67947   3.92728   3.93179   3.94713   3.96159
 Alpha virt. eigenvalues --    4.03301   4.05564   4.07101   4.11810   4.34451
 Alpha virt. eigenvalues --    4.59429   4.67651   4.69801  23.44782  23.59002
 Alpha virt. eigenvalues --   23.76422  23.78333  23.81784  23.88450  23.90929
 Alpha virt. eigenvalues --   23.94566  23.94942  23.98608  24.05804  24.10025
 Alpha virt. eigenvalues --   24.11361  24.16091
     Molecular Orbital Coefficients:
                          43        44        45        46        47
                           O         O         O         O         O
     Eigenvalues --    -0.53955  -0.52334  -0.47820  -0.46089  -0.43199
   1 1   C  1S          0.00268  -0.00000   0.00000   0.00000  -0.00000
   2        2S          0.00445  -0.00000   0.00000   0.00000  -0.00000
   3        2PX         0.09082  -0.00000   0.00000   0.00000  -0.00000
   4        2PY        -0.03612  -0.00000  -0.00000   0.00000   0.00000
   5        2PZ         0.00000   0.07640   0.02810  -0.06681   0.12519
   6        3S         -0.01478   0.00000  -0.00000  -0.00000   0.00000
   7        3PX         0.13157  -0.00000   0.00000   0.00000  -0.00000
   8        3PY        -0.05246  -0.00000  -0.00000  -0.00000   0.00000
   9        3PZ         0.00000   0.12253   0.04528  -0.10801   0.20469
  10        4S          0.02181   0.00000  -0.00000  -0.00000  -0.00000
  11        4PX         0.06675   0.00000   0.00000   0.00000  -0.00000
  12        4PY        -0.04266   0.00000  -0.00000  -0.00000  -0.00000
  13        4PZ         0.00000   0.10049   0.03972  -0.09681   0.18806
  14        5S         -0.16058  -0.00001  -0.00007  -0.00004  -0.00007
  15        5PX        -0.09655   0.00000   0.00006   0.00004   0.00007
  16        5PY        -0.02655   0.00000   0.00000   0.00000   0.00000
  17        5PZ         0.00000  -0.00190   0.02302  -0.00986   0.04316
  18        6D 0       -0.00022   0.00000   0.00000  -0.00000  -0.00000
  19        6D+1       -0.00000   0.00815  -0.00348  -0.01482  -0.01008
  20        6D-1        0.00000   0.00799   0.00100  -0.00477   0.00677
  21        6D+2       -0.01001  -0.00000   0.00000  -0.00000  -0.00000
  22        6D-2        0.01038  -0.00000   0.00000   0.00000  -0.00000
  23 2   C  1S         -0.00298   0.00000  -0.00000  -0.00000   0.00000
  24        2S         -0.00497   0.00000  -0.00000  -0.00000   0.00000
  25        2PX        -0.07465   0.00000  -0.00000  -0.00000   0.00000
  26        2PY         0.03271   0.00000  -0.00000  -0.00000   0.00000
  27        2PZ        -0.00000   0.10293  -0.00045  -0.11387   0.00339
  28        3S          0.01691  -0.00000   0.00000   0.00000  -0.00000
  29        3PX        -0.10830   0.00000  -0.00000  -0.00000   0.00000
  30        3PY         0.04673   0.00000  -0.00000  -0.00000   0.00000
  31        3PZ        -0.00000   0.16923  -0.00013  -0.18710   0.00612
  32        4S         -0.00704  -0.00000   0.00000   0.00000   0.00000
  33        4PX        -0.08558   0.00000  -0.00000  -0.00000  -0.00000
  34        4PY         0.03889   0.00000   0.00000   0.00000   0.00000
  35        4PZ        -0.00000   0.12538  -0.00172  -0.15636   0.00526
  36        5S          0.10315   0.00001   0.00002   0.00000   0.00001
  37        5PX        -0.04459  -0.00000   0.00000   0.00001   0.00001
  38        5PY        -0.06289   0.00000   0.00003   0.00002   0.00005
  39        5PZ         0.00000   0.00379  -0.01779  -0.00497  -0.00612
  40        6D 0       -0.00019   0.00000   0.00000   0.00000  -0.00000
  41        6D+1       -0.00000  -0.00972  -0.00247   0.00809  -0.01205
  42        6D-1       -0.00000   0.00586  -0.00469  -0.00378  -0.02130
  43        6D+2       -0.01079   0.00000  -0.00000  -0.00000   0.00000
  44        6D-2        0.01870  -0.00000   0.00000   0.00000  -0.00000
  45 3   C  1S         -0.00035  -0.00000  -0.00000   0.00000   0.00000
  46        2S         -0.00058  -0.00000  -0.00000   0.00000   0.00000
  47        2PX         0.07255  -0.00000   0.00000   0.00000  -0.00000
  48        2PY        -0.04032  -0.00000  -0.00000  -0.00000  -0.00000
  49        2PZ        -0.00000   0.07966  -0.02724  -0.06064  -0.12015
  50        3S         -0.00045   0.00000   0.00000  -0.00000  -0.00000
  51        3PX         0.10555  -0.00000   0.00000   0.00000  -0.00000
  52        3PY        -0.05787  -0.00000  -0.00000  -0.00000  -0.00000
  53        3PZ        -0.00000   0.12936  -0.04482  -0.09764  -0.19736
  54        4S          0.02182   0.00000  -0.00000  -0.00000  -0.00000
  55        4PX         0.07066  -0.00000   0.00000   0.00000   0.00000
  56        4PY        -0.02417  -0.00000   0.00000   0.00000   0.00000
  57        4PZ        -0.00000   0.09962  -0.03865  -0.08372  -0.17918
  58        5S         -0.04111  -0.00001  -0.00008  -0.00004  -0.00008
  59        5PX         0.03888   0.00000   0.00000  -0.00000  -0.00000
  60        5PY        -0.05863   0.00000   0.00002   0.00001   0.00003
  61        5PZ        -0.00000   0.00566   0.01398  -0.01696  -0.01413
  62        6D 0       -0.00006  -0.00000   0.00000   0.00000   0.00000
  63        6D+1        0.00000  -0.00347   0.00361  -0.00414   0.01194
  64        6D-1       -0.00000  -0.01144  -0.00154   0.01573  -0.00591
  65        6D+2       -0.00508  -0.00000   0.00000  -0.00000  -0.00000
  66        6D-2        0.01347  -0.00000   0.00000   0.00000  -0.00000
  67 4   C  1S          0.00304   0.00000  -0.00000   0.00000   0.00000
  68        2S          0.00506   0.00000  -0.00000   0.00000   0.00000
  69        2PX        -0.07230   0.00000  -0.00000   0.00000   0.00000
  70        2PY         0.03956   0.00000  -0.00000   0.00000   0.00000
  71        2PZ        -0.00000   0.01845  -0.03710   0.05668  -0.12591
  72        3S         -0.01573  -0.00000   0.00000  -0.00000  -0.00000
  73        3PX        -0.10368   0.00000  -0.00000   0.00000   0.00000
  74        3PY         0.05742   0.00000  -0.00000   0.00000   0.00000
  75        3PZ        -0.00000   0.02918  -0.06129   0.09166  -0.20517
  76        4S         -0.03224  -0.00000   0.00000   0.00000   0.00001
  77        4PX        -0.07835   0.00000  -0.00000  -0.00000   0.00000
  78        4PY         0.05848   0.00000  -0.00000  -0.00000  -0.00000
  79        4PZ        -0.00000   0.03145  -0.04725   0.07090  -0.20239
  80        5S         -0.16580  -0.00001  -0.00000  -0.00000   0.00002
  81        5PX         0.11559   0.00000  -0.00000  -0.00001  -0.00002
  82        5PY         0.03482   0.00000  -0.00000  -0.00000  -0.00001
  83        5PZ        -0.00000  -0.01018  -0.02108   0.03341  -0.03295
  84        6D 0        0.00001   0.00000   0.00000  -0.00000  -0.00000
  85        6D+1        0.00000   0.01118  -0.00046  -0.01714  -0.01075
  86        6D-1        0.00000  -0.00362   0.00239  -0.00306   0.00613
  87        6D+2       -0.00962  -0.00000   0.00000  -0.00000  -0.00000
  88        6D-2        0.00940  -0.00000   0.00000   0.00000   0.00000
  89 5   C  1S          0.00489  -0.00000   0.00000   0.00000  -0.00000
  90        2S          0.00810  -0.00000   0.00000   0.00000  -0.00000
  91        2PX        -0.06739   0.00000  -0.00000  -0.00000   0.00000
  92        2PY         0.03603  -0.00000   0.00000   0.00000  -0.00000
  93        2PZ        -0.00000   0.00588   0.13084  -0.02783  -0.03333
  94        3S         -0.02566   0.00000  -0.00000  -0.00000   0.00000
  95        3PX        -0.09647   0.00000  -0.00000  -0.00000   0.00000
  96        3PY         0.05266  -0.00000   0.00000   0.00000  -0.00000
  97        3PZ        -0.00001   0.00787   0.21407  -0.04586  -0.05349
  98        4S          0.01536   0.00000   0.00000   0.00000   0.00000
  99        4PX        -0.04358   0.00000  -0.00000   0.00000   0.00000
 100        4PY         0.03917  -0.00000  -0.00000  -0.00000  -0.00000
 101        4PZ        -0.00001   0.01348   0.18779  -0.03619  -0.05869
 102        5S          0.22490   0.00002   0.00005   0.00002   0.00003
 103        5PX         0.08496   0.00000   0.00003   0.00002   0.00002
 104        5PY        -0.04162  -0.00000  -0.00001  -0.00000  -0.00000
 105        5PZ        -0.00000  -0.01918   0.03166  -0.03110  -0.00070
 106        6D 0       -0.00078  -0.00000  -0.00000  -0.00000   0.00000
 107        6D+1       -0.00000  -0.01498  -0.01067  -0.01622   0.00227
 108        6D-1        0.00000  -0.00279  -0.00887   0.00076   0.00180
 109        6D+2       -0.01014   0.00000  -0.00000  -0.00000   0.00000
 110        6D-2        0.00716  -0.00000   0.00000  -0.00000   0.00000
 111 6   C  1S         -0.00178   0.00000   0.00000   0.00000  -0.00000
 112        2S         -0.00297   0.00000   0.00000   0.00000  -0.00000
 113        2PX         0.04826  -0.00000   0.00000   0.00000  -0.00000
 114        2PY        -0.02896   0.00000  -0.00000  -0.00000   0.00000
 115        2PZ        -0.00000   0.07224   0.11912   0.05826  -0.02335
 116        3S          0.00995  -0.00000  -0.00000  -0.00000   0.00000
 117        3PX         0.06916  -0.00000   0.00000  -0.00000  -0.00000
 118        3PY        -0.04238   0.00000  -0.00000  -0.00000  -0.00000
 119        3PZ        -0.00001   0.11771   0.19543   0.09506  -0.03826
 120        4S         -0.01018  -0.00000  -0.00000  -0.00000  -0.00000
 121        4PX         0.06055  -0.00000  -0.00000  -0.00000  -0.00000
 122        4PY        -0.03216   0.00000   0.00000   0.00000   0.00000
 123        4PZ        -0.00000   0.09450   0.16504   0.08641  -0.03360
 124        5S         -0.04248   0.00002  -0.00005  -0.00002  -0.00005
 125        5PX         0.00501  -0.00000   0.00001   0.00000   0.00000
 126        5PY         0.04091  -0.00000   0.00003   0.00002   0.00003
 127        5PZ         0.00000   0.01154   0.00041   0.02082  -0.01618
 128        6D 0       -0.00037   0.00000  -0.00000   0.00000   0.00000
 129        6D+1       -0.00000   0.00271   0.01425  -0.00174  -0.00336
 130        6D-1       -0.00000  -0.01099   0.00757  -0.01190  -0.00373
 131        6D+2       -0.00971   0.00000  -0.00000  -0.00000   0.00000
 132        6D-2        0.01274  -0.00000   0.00000   0.00000  -0.00000
 133 7   C  1S          0.00189  -0.00000   0.00000   0.00000  -0.00000
 134        2S          0.00313  -0.00000   0.00000   0.00000  -0.00000
 135        2PX        -0.05248   0.00000  -0.00000  -0.00000   0.00000
 136        2PY         0.04118  -0.00000   0.00000   0.00000  -0.00000
 137        2PZ        -0.00000   0.09988  -0.01138   0.09252   0.01870
 138        3S         -0.01010   0.00000  -0.00000   0.00000   0.00000
 139        3PX        -0.07478   0.00000  -0.00000  -0.00000   0.00000
 140        3PY         0.05833  -0.00000   0.00000   0.00000  -0.00000
 141        3PZ        -0.00000   0.16490  -0.01895   0.15246   0.03036
 142        4S          0.01882   0.00000   0.00000   0.00000   0.00000
 143        4PX        -0.04618   0.00000   0.00000   0.00000   0.00000
 144        4PY         0.03497  -0.00000   0.00000   0.00000   0.00000
 145        4PZ        -0.00000   0.12700  -0.01555   0.13150   0.02941
 146        5S         -0.00132   0.00000  -0.00002  -0.00002  -0.00003
 147        5PX        -0.01087   0.00000  -0.00002  -0.00001  -0.00002
 148        5PY         0.04267  -0.00001   0.00004   0.00002   0.00004
 149        5PZ        -0.00000  -0.00140   0.01088   0.00152   0.01648
 150        6D 0       -0.00023  -0.00000  -0.00000  -0.00000   0.00000
 151        6D+1        0.00000   0.00874  -0.01269   0.00451   0.00403
 152        6D-1       -0.00000   0.00508   0.02019   0.00478  -0.00471
 153        6D+2       -0.00315  -0.00000   0.00000  -0.00000  -0.00000
 154        6D-2        0.00903  -0.00000   0.00000   0.00000  -0.00000
 155 8   C  1S         -0.00091   0.00000  -0.00000   0.00000   0.00000
 156        2S         -0.00150   0.00000  -0.00000   0.00000   0.00000
 157        2PX         0.05361  -0.00000   0.00000   0.00000  -0.00000
 158        2PY        -0.03289   0.00000  -0.00000  -0.00000  -0.00000
 159        2PZ         0.00000   0.07136  -0.12816   0.03742   0.03660
 160        3S          0.00282  -0.00000   0.00000  -0.00000  -0.00000
 161        3PX         0.07480  -0.00000   0.00000   0.00000  -0.00000
 162        3PY        -0.04832   0.00000  -0.00000  -0.00000  -0.00000
 163        3PZ         0.00000   0.11511  -0.20960   0.06152   0.06093
 164        4S         -0.01168  -0.00000  -0.00000  -0.00000  -0.00000
 165        4PX         0.05804   0.00000   0.00000   0.00000  -0.00001
 166        4PY        -0.06024  -0.00000  -0.00000  -0.00000  -0.00000
 167        4PZ         0.00000   0.09587  -0.17838   0.05699   0.05571
 168        5S          0.07098   0.00001  -0.00004  -0.00003  -0.00006
 169        5PX        -0.04929   0.00002  -0.00007  -0.00004  -0.00008
 170        5PY        -0.00082  -0.00000   0.00001   0.00001   0.00001
 171        5PZ         0.00000   0.00313  -0.04337   0.00712  -0.00156
 172        6D 0        0.00021  -0.00000  -0.00000  -0.00000   0.00000
 173        6D+1        0.00000  -0.00900  -0.01016  -0.01366  -0.00117
 174        6D-1        0.00000   0.00712  -0.00917   0.00265   0.00301
 175        6D+2       -0.01299   0.00000  -0.00000  -0.00000   0.00000
 176        6D-2        0.00877  -0.00000   0.00000  -0.00000  -0.00000
 177 9   C  1S          0.00311  -0.00000  -0.00000  -0.00000  -0.00000
 178        2S          0.00520  -0.00000  -0.00000  -0.00000  -0.00000
 179        2PX         0.07784  -0.00000   0.00000   0.00000  -0.00000
 180        2PY        -0.03381  -0.00000  -0.00000  -0.00000  -0.00000
 181        2PZ         0.00001  -0.00751   0.03544   0.00059  -0.05082
 182        3S         -0.01695   0.00000   0.00000   0.00000   0.00000
 183        3PX         0.11658  -0.00000   0.00000   0.00000  -0.00000
 184        3PY        -0.04974  -0.00000  -0.00000  -0.00000  -0.00000
 185        3PZ         0.00001  -0.00900   0.05383   0.00134  -0.07774
 186        4S          0.00197  -0.00000   0.00003   0.00001   0.00003
 187        4PX         0.08817   0.00001   0.00000   0.00000   0.00000
 188        4PY        -0.05297  -0.00000  -0.00000  -0.00000  -0.00000
 189        4PZ         0.00001  -0.04394   0.05131   0.00144  -0.08066
 190        5S          0.02972  -0.00001   0.00007   0.00005   0.00008
 191        5PX        -0.23742   0.00000  -0.00002  -0.00001   0.00000
 192        5PY         0.00029  -0.00000   0.00001   0.00001   0.00002
 193        5PZ         0.00000  -0.06768  -0.05309  -0.00370   0.07296
 194        6D 0        0.00401  -0.00000   0.00000  -0.00000  -0.00000
 195        6D+1       -0.00000   0.00075   0.01391   0.00838   0.00891
 196        6D-1       -0.00000   0.00055  -0.00895   0.00039   0.01605
 197        6D+2       -0.01084   0.00000  -0.00000  -0.00000   0.00000
 198        6D-2        0.00776  -0.00000   0.00000   0.00000  -0.00000
 199 10  C  1S          0.00775  -0.00000   0.00000  -0.00000  -0.00000
 200        2S          0.01288  -0.00000   0.00000  -0.00000  -0.00000
 201        2PX        -0.07302   0.00000  -0.00000  -0.00000   0.00000
 202        2PY         0.03700  -0.00000   0.00000   0.00000  -0.00000
 203        2PZ        -0.00000  -0.10333  -0.00988  -0.01039   0.01394
 204        3S         -0.03928   0.00000   0.00000   0.00000   0.00000
 205        3PX        -0.10576   0.00000  -0.00000  -0.00000   0.00000
 206        3PY         0.05398  -0.00000   0.00000   0.00000   0.00000
 207        3PZ        -0.00001  -0.16822  -0.01676  -0.01651   0.02368
 208        4S         -0.04459   0.00000  -0.00001  -0.00000  -0.00001
 209        4PX        -0.08793  -0.00000  -0.00000  -0.00000   0.00000
 210        4PY         0.06392  -0.00000   0.00000   0.00000   0.00000
 211        4PZ        -0.00000  -0.13899  -0.01195  -0.01227   0.01734
 212        5S          0.02687  -0.00000   0.00006   0.00004   0.00007
 213        5PX         0.26127   0.00001   0.00003   0.00001  -0.00001
 214        5PY         0.01009   0.00000   0.00000  -0.00000   0.00000
 215        5PZ        -0.00000  -0.01413   0.03018   0.00558  -0.05022
 216        6D 0       -0.00117  -0.00000   0.00000   0.00000   0.00000
 217        6D+1        0.00000   0.00465  -0.00352   0.02357  -0.00001
 218        6D-1        0.00000   0.00926   0.00221   0.00080  -0.00360
 219        6D+2       -0.01231  -0.00000  -0.00000  -0.00000  -0.00000
 220        6D-2        0.00779  -0.00000   0.00000   0.00000  -0.00000
 221 11  C  1S          0.00132   0.00000  -0.00000   0.00000   0.00000
 222        2S          0.00223   0.00000  -0.00000  -0.00000   0.00000
 223        2PX        -0.07852   0.00000  -0.00000   0.00000   0.00000
 224        2PY         0.05689   0.00000  -0.00000   0.00000   0.00000
 225        2PZ         0.00000   0.01002   0.03478   0.05261   0.12042
 226        3S         -0.00749  -0.00000   0.00000   0.00000  -0.00000
 227        3PX        -0.11542   0.00000  -0.00000   0.00000   0.00001
 228        3PY         0.08165   0.00000  -0.00000   0.00000   0.00000
 229        3PZ         0.00000   0.01628   0.05652   0.08707   0.19636
 230        4S         -0.01283  -0.00000  -0.00000  -0.00000  -0.00002
 231        4PX        -0.11377   0.00000   0.00000   0.00000   0.00002
 232        4PY         0.08738   0.00000   0.00000   0.00000   0.00001
 233        4PZ         0.00000   0.02660   0.05894   0.06674   0.20893
 234        5S         -0.11068   0.00000  -0.00011  -0.00005  -0.00011
 235        5PX        -0.07655  -0.00002   0.00001   0.00001   0.00003
 236        5PY        -0.18336  -0.00002  -0.00013  -0.00007  -0.00011
 237        5PZ        -0.00000   0.01855   0.00558   0.02178  -0.06392
 238        6D 0        0.00027   0.00000   0.00000  -0.00000  -0.00000
 239        6D+1       -0.00000   0.00913   0.00003  -0.00714   0.01341
 240        6D-1       -0.00000  -0.00831  -0.00647   0.01563  -0.00185
 241        6D+2       -0.01038  -0.00000  -0.00000  -0.00000  -0.00000
 242        6D-2        0.01445  -0.00000   0.00000  -0.00000  -0.00000
 243 12  C  1S         -0.00371  -0.00000   0.00000  -0.00000  -0.00000
 244        2S         -0.00627  -0.00000   0.00000  -0.00000  -0.00000
 245        2PX         0.06246  -0.00000   0.00000  -0.00000  -0.00000
 246        2PY        -0.05023  -0.00000   0.00000  -0.00000  -0.00000
 247        2PZ        -0.00000  -0.04382  -0.01781   0.11659   0.00828
 248        3S          0.01826   0.00000  -0.00000   0.00000   0.00000
 249        3PX         0.09108  -0.00000   0.00000   0.00000  -0.00000
 250        3PY        -0.07336  -0.00000   0.00000  -0.00000  -0.00000
 251        3PZ        -0.00000  -0.07237  -0.02683   0.19092   0.01352
 252        4S          0.00463   0.00000  -0.00000  -0.00000  -0.00000
 253        4PX         0.07146  -0.00000  -0.00001  -0.00000  -0.00001
 254        4PY        -0.03161  -0.00000   0.00000   0.00000  -0.00000
 255        4PZ        -0.00000  -0.06646  -0.03861   0.18695   0.01149
 256        5S          0.18385   0.00001   0.00016   0.00009   0.00017
 257        5PX         0.26045   0.00002   0.00004   0.00002   0.00001
 258        5PY        -0.15103  -0.00001  -0.00008  -0.00004  -0.00007
 259        5PZ         0.00000   0.01074  -0.00202  -0.03352   0.07168
 260        6D 0        0.00006   0.00000  -0.00000  -0.00000   0.00000
 261        6D+1        0.00000   0.01246  -0.00212   0.00456  -0.01443
 262        6D-1       -0.00000  -0.00433  -0.00627  -0.00147  -0.02131
 263        6D+2       -0.01164  -0.00000   0.00000   0.00000  -0.00000
 264        6D-2        0.01746  -0.00000   0.00000  -0.00000  -0.00000
 265 13  C  1S          0.00238  -0.00000   0.00000   0.00000  -0.00000
 266        2S          0.00398  -0.00000   0.00000   0.00000  -0.00000
 267        2PX        -0.06626   0.00000  -0.00000  -0.00000   0.00000
 268        2PY         0.05962  -0.00000   0.00000   0.00000  -0.00000
 269        2PZ         0.00000  -0.00112  -0.11895  -0.05271   0.01159
 270        3S         -0.01169   0.00000  -0.00000   0.00000   0.00000
 271        3PX        -0.09824   0.00000  -0.00001  -0.00000   0.00001
 272        3PY         0.08856  -0.00000   0.00000   0.00000  -0.00000
 273        3PZ         0.00001  -0.00374  -0.19360  -0.08862   0.01860
 274        4S         -0.02196   0.00000  -0.00001  -0.00000   0.00001
 275        4PX        -0.09695   0.00000  -0.00001  -0.00000  -0.00000
 276        4PY         0.06194  -0.00000   0.00001   0.00000  -0.00000
 277        4PZ         0.00000   0.01116  -0.18637  -0.07321   0.01660
 278        5S          0.00978  -0.00000  -0.00011  -0.00005  -0.00012
 279        5PX        -0.08224  -0.00002  -0.00004  -0.00003  -0.00003
 280        5PY         0.19350   0.00003  -0.00008  -0.00005  -0.00013
 281        5PZ        -0.00000   0.01266   0.07356  -0.01158  -0.04508
 282        6D 0       -0.00037  -0.00000  -0.00000  -0.00000   0.00000
 283        6D+1        0.00000  -0.00997   0.01529  -0.00485  -0.00729
 284        6D-1       -0.00000  -0.01239   0.00558  -0.01282   0.00215
 285        6D+2       -0.00893  -0.00000  -0.00000  -0.00000  -0.00000
 286        6D-2        0.01468  -0.00000   0.00000   0.00000  -0.00000
 287 14  C  1S         -0.00213  -0.00000  -0.00000  -0.00000   0.00000
 288        2S         -0.00358  -0.00000  -0.00000  -0.00000   0.00000
 289        2PX         0.06034  -0.00000   0.00000   0.00000  -0.00000
 290        2PY        -0.05194   0.00000  -0.00000  -0.00000   0.00000
 291        2PZ        -0.00000  -0.08286   0.00475  -0.10530   0.00170
 292        3S          0.01032   0.00000   0.00000   0.00000  -0.00000
 293        3PX         0.08765  -0.00000   0.00000  -0.00000  -0.00000
 294        3PY        -0.07612   0.00000  -0.00000  -0.00000   0.00000
 295        3PZ        -0.00000  -0.13564   0.00693  -0.17299   0.00006
 296        4S         -0.01139  -0.00000   0.00000  -0.00000   0.00000
 297        4PX         0.09686  -0.00000   0.00001   0.00000   0.00001
 298        4PY        -0.08015  -0.00000  -0.00000   0.00000   0.00000
 299        4PZ        -0.00000  -0.12309   0.01362  -0.17293   0.01366
 300        5S         -0.13169  -0.00002   0.00012   0.00007   0.00017
 301        5PX         0.22347   0.00002   0.00004   0.00001   0.00000
 302        5PY         0.12621   0.00001  -0.00006  -0.00004  -0.00009
 303        5PZ         0.00000   0.01924  -0.06789   0.02026   0.04812
 304        6D 0       -0.00014  -0.00000  -0.00000  -0.00000  -0.00000
 305        6D+1        0.00000  -0.01241  -0.01296   0.00028   0.00509
 306        6D-1       -0.00000  -0.00546   0.01848   0.00191  -0.00284
 307        6D+2       -0.01037   0.00000  -0.00000  -0.00000   0.00000
 308        6D-2        0.01440  -0.00000   0.00000   0.00000  -0.00000
 309 15  H  1S          0.03372   0.00000   0.00000  -0.00000   0.00000
 310        2S          0.04896   0.00000   0.00000  -0.00000   0.00000
 311        3S          0.02117   0.00000  -0.00000  -0.00000  -0.00000
 312        4S          0.01142   0.00000   0.00001   0.00000   0.00001
 313        5PX         0.00436  -0.00000   0.00000   0.00000  -0.00000
 314        5PY         0.00165   0.00000   0.00000  -0.00000  -0.00000
 315        5PZ         0.00000   0.00487   0.00221  -0.00467   0.00892
 316 16  H  1S         -0.07675   0.00000  -0.00000  -0.00000   0.00000
 317        2S         -0.11191   0.00000  -0.00000   0.00000   0.00000
 318        3S         -0.04383  -0.00000  -0.00000   0.00000   0.00000
 319        4S         -0.00843   0.00000   0.00000   0.00000   0.00000
 320        5PX         0.00429  -0.00000  -0.00000  -0.00000  -0.00000
 321        5PY        -0.00290   0.00000  -0.00000  -0.00000   0.00000
 322        5PZ        -0.00000   0.00665   0.00006  -0.00785   0.00029
 323 17  H  1S          0.03856  -0.00000   0.00000   0.00000  -0.00000
 324        2S          0.05491  -0.00000   0.00000  -0.00000  -0.00000
 325        3S          0.02222  -0.00000   0.00000   0.00000  -0.00000
 326        4S          0.00600   0.00000  -0.00000  -0.00000  -0.00000
 327        5PX        -0.00002   0.00000  -0.00000   0.00000   0.00000
 328        5PY        -0.00497   0.00000  -0.00000  -0.00000   0.00000
 329        5PZ        -0.00000   0.00506  -0.00185  -0.00403  -0.00871
 330 18  H  1S          0.03618   0.00000  -0.00000   0.00000   0.00000
 331        2S          0.05318   0.00000  -0.00000   0.00000   0.00000
 332        3S          0.02393   0.00000   0.00000   0.00000   0.00000
 333        4S         -0.01475   0.00000   0.00000   0.00000   0.00000
 334        5PX        -0.00453   0.00000  -0.00000   0.00000   0.00000
 335        5PY        -0.00242  -0.00000  -0.00000  -0.00000  -0.00000
 336        5PZ        -0.00000   0.00072  -0.00280   0.00408  -0.00908
 337 19  H  1S          0.03291  -0.00000   0.00000   0.00000   0.00000
 338        2S          0.04809  -0.00000   0.00000   0.00000  -0.00000
 339        3S          0.02334   0.00000  -0.00000  -0.00000  -0.00000
 340        4S          0.00265  -0.00000  -0.00000   0.00000  -0.00000
 341        5PX        -0.00374   0.00000  -0.00000   0.00000   0.00000
 342        5PY        -0.00086   0.00000   0.00000   0.00000   0.00000
 343        5PZ        -0.00000  -0.00645  -0.00038  -0.00063   0.00046
 344 20  H  1S          0.03276  -0.00000   0.00000   0.00000  -0.00000
 345        2S          0.04898  -0.00000   0.00000   0.00000  -0.00000
 346        3S          0.02556  -0.00000   0.00000   0.00000   0.00000
 347        4S          0.01756  -0.00000   0.00000   0.00000   0.00000
 348        5PX        -0.00313   0.00000  -0.00000  -0.00000   0.00000
 349        5PY        -0.00142   0.00000  -0.00000  -0.00000  -0.00000
 350        5PZ        -0.00000  -0.00020   0.00898  -0.00215  -0.00214
 351 21  H  1S         -0.05467   0.00000  -0.00000  -0.00000   0.00000
 352        2S         -0.07997   0.00000  -0.00000  -0.00000   0.00000
 353        3S         -0.03089  -0.00000  -0.00000   0.00000   0.00000
 354        4S         -0.00471  -0.00000  -0.00000  -0.00000  -0.00000
 355        5PX        -0.00319   0.00000  -0.00000  -0.00000   0.00000
 356        5PY         0.00160  -0.00000   0.00000   0.00000  -0.00000
 357        5PZ        -0.00000   0.00462   0.00812   0.00396  -0.00172
 358 22  H  1S          0.02207  -0.00000   0.00000   0.00000  -0.00000
 359        2S          0.03261  -0.00000   0.00000   0.00000  -0.00000
 360        3S          0.01541   0.00000   0.00000   0.00000  -0.00000
 361        4S          0.00695  -0.00000   0.00000   0.00000  -0.00000
 362        5PX        -0.00051  -0.00000  -0.00000   0.00000   0.00000
 363        5PY         0.00368  -0.00000   0.00000   0.00000  -0.00000
 364        5PZ        -0.00000   0.00635  -0.00078   0.00630   0.00124
 365 23  H  1S          0.03723  -0.00000   0.00000   0.00000  -0.00000
 366        2S          0.05232  -0.00000   0.00000  -0.00000  -0.00000
 367        3S          0.02245   0.00000  -0.00000  -0.00000  -0.00000
 368        4S         -0.00553  -0.00000   0.00001   0.00000   0.00001
 369        5PX         0.00324  -0.00000   0.00000   0.00000  -0.00000
 370        5PY         0.00190  -0.00000  -0.00000  -0.00000   0.00000
 371        5PZ         0.00000   0.00459  -0.00872   0.00269   0.00236
 372 24  H  1S          0.02307  -0.00426   0.03218   0.00029  -0.04775
 373        2S          0.03396   0.00264   0.04968   0.00006  -0.07648
 374        3S          0.01442   0.02430   0.03896  -0.00060  -0.06453
 375        4S         -0.00245   0.04466   0.02083  -0.00087  -0.03417
 376        5PX         0.00369   0.00010   0.00168   0.00039   0.00229
 377        5PY         0.00004   0.00079   0.00223   0.00001  -0.00251
 378        5PZ        -0.00231   0.00016  -0.00092   0.00009   0.00139
 379 25  H  1S          0.02307   0.00426  -0.03218  -0.00029   0.04775
 380        2S          0.03395  -0.00264  -0.04969  -0.00006   0.07648
 381        3S          0.01442  -0.02429  -0.03899   0.00059   0.06450
 382        4S         -0.00245  -0.04466  -0.02085   0.00086   0.03414
 383        5PX         0.00369  -0.00010  -0.00168  -0.00039  -0.00229
 384        5PY         0.00004  -0.00079  -0.00223  -0.00001   0.00251
 385        5PZ         0.00231   0.00016  -0.00092   0.00009   0.00139
                          48        49        50        51        52
                           V         V         V         V         V
     Eigenvalues --    -0.26162  -0.14755  -0.14036  -0.12795  -0.11194
   1 1   C  1S         -0.00000  -0.00000   0.00000   0.00000  -0.00497
   2        2S         -0.00000  -0.00000   0.00000   0.00000  -0.00842
   3        2PX         0.00000  -0.00000  -0.00000  -0.00000   0.00348
   4        2PY        -0.00000  -0.00000   0.00000   0.00000  -0.01368
   5        2PZ        -0.00514   0.10337  -0.03093  -0.09487  -0.00000
   6        3S          0.00000   0.00000  -0.00000  -0.00000   0.02803
   7        3PX         0.00000  -0.00000   0.00000   0.00000   0.00353
   8        3PY        -0.00000  -0.00000   0.00000   0.00000  -0.02015
   9        3PZ        -0.00841   0.15867  -0.04685  -0.14958  -0.00000
  10        4S          0.00000   0.00001   0.00000   0.00001   0.00949
  11        4PX         0.00000   0.00001  -0.00001  -0.00001   0.02456
  12        4PY         0.00000   0.00000   0.00000   0.00000  -0.07454
  13        4PZ        -0.00935   0.28971  -0.08617  -0.25869  -0.00000
  14        5S         -0.00001   0.00005   0.00031   0.00024  -1.49433
  15        5PX         0.00001  -0.00003  -0.00031  -0.00023   0.55380
  16        5PY         0.00000   0.00000  -0.00001  -0.00001  -0.42642
  17        5PZ         0.00781   0.21728  -0.03241  -0.30760  -0.00002
  18        6D 0        0.00000   0.00000   0.00000  -0.00000  -0.00481
  19        6D+1        0.01360   0.01158   0.02138  -0.00353   0.00000
  20        6D-1       -0.00184  -0.00855   0.00325   0.00720  -0.00000
  21        6D+2        0.00000   0.00000  -0.00000  -0.00000   0.00129
  22        6D-2        0.00000  -0.00000  -0.00000  -0.00000  -0.00088
  23 2   C  1S         -0.00000   0.00000   0.00000   0.00000  -0.00379
  24        2S         -0.00000   0.00000   0.00000   0.00000  -0.00626
  25        2PX        -0.00000   0.00000   0.00000  -0.00000   0.00491
  26        2PY        -0.00000   0.00000   0.00000  -0.00000  -0.00020
  27        2PZ         0.06460   0.00011   0.09796   0.03304   0.00000
  28        3S          0.00000  -0.00000  -0.00000  -0.00000   0.01772
  29        3PX        -0.00000   0.00000  -0.00000  -0.00000   0.00869
  30        3PY        -0.00000   0.00000  -0.00000  -0.00000  -0.00179
  31        3PZ         0.10592   0.00158   0.15585   0.05194   0.00000
  32        4S         -0.00000  -0.00001   0.00000   0.00000   0.09509
  33        4PX         0.00000   0.00001   0.00000   0.00000  -0.00876
  34        4PY         0.00000  -0.00000  -0.00000  -0.00000   0.01174
  35        4PZ         0.12129  -0.00628   0.25742   0.08955   0.00000
  36        5S         -0.00001  -0.00003  -0.00004  -0.00001   0.72890
  37        5PX         0.00000   0.00000  -0.00003  -0.00003   0.07822
  38        5PY         0.00000  -0.00003  -0.00018  -0.00013   0.27282
  39        5PZ         0.03724  -0.00124   0.20231   0.10119   0.00001
  40        6D 0        0.00000   0.00000  -0.00000   0.00000  -0.00300
  41        6D+1        0.00159  -0.01261   0.00488   0.01286   0.00000
  42        6D-1        0.00173  -0.02400  -0.00449   0.01849   0.00000
  43        6D+2       -0.00000  -0.00000   0.00000   0.00000  -0.00198
  44        6D-2        0.00000   0.00000  -0.00000  -0.00000   0.00318
  45 3   C  1S         -0.00000  -0.00000   0.00000   0.00000  -0.00315
  46        2S         -0.00000  -0.00000   0.00000   0.00000  -0.00521
  47        2PX        -0.00000  -0.00000  -0.00000   0.00000   0.00563
  48        2PY        -0.00000  -0.00000   0.00000   0.00000  -0.00008
  49        2PZ         0.01460  -0.10443  -0.04202   0.06895   0.00000
  50        3S          0.00000   0.00000  -0.00000  -0.00000   0.01466
  51        3PX        -0.00000  -0.00000  -0.00000  -0.00000   0.01077
  52        3PY        -0.00000  -0.00000   0.00000   0.00000   0.00069
  53        3PZ         0.02454  -0.16354  -0.06693   0.10786   0.00000
  54        4S          0.00000   0.00001   0.00001   0.00000   0.04960
  55        4PX        -0.00000  -0.00000  -0.00000  -0.00000   0.01048
  56        4PY        -0.00000  -0.00000  -0.00000  -0.00000   0.01923
  57        4PZ         0.01876  -0.27381  -0.11550   0.17907   0.00000
  58        5S          0.00000   0.00006   0.00032   0.00023   0.05604
  59        5PX        -0.00000  -0.00000   0.00001   0.00001  -0.00149
  60        5PY         0.00000  -0.00002  -0.00011  -0.00008   0.28299
  61        5PZ         0.00420  -0.20238  -0.08199   0.17267  -0.00000
  62        6D 0        0.00000   0.00000   0.00000  -0.00000  -0.00331
  63        6D+1        0.00814  -0.00964   0.00878   0.01297   0.00000
  64        6D-1       -0.01134   0.00555  -0.01850  -0.01206  -0.00000
  65        6D+2        0.00000   0.00000   0.00000   0.00000  -0.00186
  66        6D-2        0.00000  -0.00000   0.00000   0.00000  -0.00283
  67 4   C  1S         -0.00000  -0.00000   0.00000  -0.00000  -0.00524
  68        2S         -0.00000  -0.00000   0.00000  -0.00000  -0.00880
  69        2PX        -0.00000  -0.00000  -0.00000  -0.00000   0.00406
  70        2PY        -0.00000  -0.00000  -0.00000  -0.00000   0.01431
  71        2PZ        -0.06648   0.08579  -0.06209  -0.09964  -0.00000
  72        3S          0.00000   0.00000  -0.00000  -0.00000   0.02581
  73        3PX        -0.00000  -0.00000   0.00000  -0.00000   0.00431
  74        3PY        -0.00000  -0.00000   0.00000  -0.00000   0.01919
  75        3PZ        -0.10739   0.13047  -0.09833  -0.15843  -0.00000
  76        4S          0.00000  -0.00001  -0.00001  -0.00000   0.19478
  77        4PX        -0.00000  -0.00000   0.00000   0.00000  -0.04574
  78        4PY        -0.00000   0.00000   0.00001   0.00000   0.01439
  79        4PZ        -0.12091   0.24603  -0.18450  -0.26278  -0.00000
  80        5S          0.00001  -0.00002  -0.00002  -0.00000   1.86643
  81        5PX        -0.00001   0.00001   0.00006   0.00004  -0.70335
  82        5PY         0.00000   0.00000   0.00001   0.00001   0.48503
  83        5PZ        -0.02532   0.21245  -0.20585  -0.27103  -0.00000
  84        6D 0        0.00000   0.00000  -0.00000   0.00000  -0.00507
  85        6D+1        0.00228  -0.01723  -0.01805   0.00501  -0.00000
  86        6D-1        0.00370   0.00709  -0.00241  -0.00734  -0.00000
  87        6D+2        0.00000   0.00000  -0.00000  -0.00000   0.00025
  88        6D-2       -0.00000  -0.00000   0.00000   0.00000   0.00207
  89 5   C  1S          0.00000   0.00000  -0.00000   0.00000  -0.00802
  90        2S          0.00000   0.00000  -0.00000   0.00000  -0.01352
  91        2PX        -0.00000  -0.00000   0.00000  -0.00000  -0.00361
  92        2PY         0.00000   0.00000  -0.00000  -0.00000   0.02021
  93        2PZ        -0.08878   0.07686  -0.00722   0.11264   0.00000
  94        3S         -0.00000  -0.00000   0.00000  -0.00000   0.04115
  95        3PX        -0.00000  -0.00000   0.00000  -0.00000  -0.00369
  96        3PY         0.00000   0.00000  -0.00000  -0.00000   0.02788
  97        3PZ        -0.14423   0.11792  -0.01058   0.17892   0.00000
  98        4S          0.00000  -0.00000  -0.00001  -0.00000   0.21077
  99        4PX        -0.00000  -0.00000  -0.00000  -0.00000   0.04941
 100        4PY        -0.00000   0.00000   0.00001   0.00000   0.05401
 101        4PZ        -0.17037   0.24398  -0.02669   0.32924   0.00000
 102        5S          0.00000   0.00000  -0.00019  -0.00010   1.44134
 103        5PX         0.00000  -0.00003  -0.00013  -0.00009   0.96408
 104        5PY        -0.00000   0.00000   0.00002   0.00001   0.79223
 105        5PZ        -0.04517   0.24903   0.03237   0.39895   0.00001
 106        6D 0       -0.00000  -0.00000   0.00000   0.00000  -0.00613
 107        6D+1        0.00001   0.00234  -0.03084   0.00548  -0.00000
 108        6D-1        0.00342   0.00694   0.00011   0.01138   0.00000
 109        6D+2       -0.00000  -0.00000   0.00000  -0.00000   0.00233
 110        6D-2       -0.00000  -0.00000   0.00000  -0.00000  -0.00237
 111 6   C  1S          0.00000   0.00000  -0.00000   0.00000  -0.00569
 112        2S          0.00000   0.00000  -0.00000   0.00000  -0.00947
 113        2PX         0.00000  -0.00000   0.00000   0.00000  -0.01134
 114        2PY         0.00000   0.00000  -0.00000   0.00000   0.00225
 115        2PZ         0.00515  -0.03949   0.10801  -0.07263   0.00000
 116        3S         -0.00000  -0.00000   0.00000  -0.00000   0.02797
 117        3PX         0.00000   0.00000   0.00000   0.00000  -0.01822
 118        3PY         0.00000   0.00000   0.00000   0.00000   0.00455
 119        3PZ         0.01106  -0.06201   0.17186  -0.11432   0.00000
 120        4S         -0.00000  -0.00000   0.00001   0.00000   0.10741
 121        4PX        -0.00000  -0.00000   0.00001   0.00000  -0.02528
 122        4PY         0.00000   0.00000  -0.00000  -0.00000   0.02465
 123        4PZ         0.00416  -0.12163   0.29812  -0.21781   0.00000
 124        5S         -0.00004   0.00010   0.00016   0.00012   0.39496
 125        5PX        -0.00000  -0.00001  -0.00003  -0.00003  -0.02680
 126        5PY         0.00001  -0.00005  -0.00012  -0.00009   0.54288
 127        5PZ        -0.00090  -0.09321   0.24512  -0.23081   0.00000
 128        6D 0       -0.00000  -0.00000   0.00000   0.00000  -0.00475
 129        6D+1       -0.01132   0.00954  -0.00125   0.01512   0.00000
 130        6D-1       -0.01856   0.01364   0.01346   0.01767   0.00000
 131        6D+2       -0.00000  -0.00000   0.00000   0.00000  -0.00352
 132        6D-2        0.00000  -0.00000   0.00000  -0.00000   0.00494
 133 7   C  1S          0.00000   0.00000   0.00000   0.00000  -0.00664
 134        2S          0.00000   0.00000   0.00000   0.00000  -0.01106
 135        2PX        -0.00000  -0.00000  -0.00000   0.00000  -0.01104
 136        2PY         0.00000   0.00000  -0.00000   0.00000  -0.00211
 137        2PZ         0.10698  -0.04886  -0.09534  -0.04725  -0.00000
 138        3S         -0.00000  -0.00000  -0.00000  -0.00000   0.03277
 139        3PX        -0.00000   0.00000  -0.00000   0.00000  -0.01742
 140        3PY         0.00000   0.00000  -0.00000  -0.00000  -0.00511
 141        3PZ         0.17508  -0.07676  -0.15160  -0.07430  -0.00000
 142        4S          0.00000   0.00001  -0.00001   0.00000   0.14175
 143        4PX         0.00000   0.00000  -0.00000   0.00000  -0.01208
 144        4PY         0.00000  -0.00000  -0.00000  -0.00000   0.00870
 145        4PZ         0.20743  -0.13746  -0.25790  -0.13586  -0.00000
 146        5S          0.00000   0.00007   0.00009   0.00009   0.09076
 147        5PX        -0.00000   0.00004   0.00007   0.00006  -0.46355
 148        5PY         0.00002  -0.00008  -0.00016  -0.00013   0.48161
 149        5PZ         0.06727  -0.11507  -0.22059  -0.14507  -0.00002
 150        6D 0       -0.00000  -0.00000   0.00000  -0.00000  -0.00458
 151        6D+1       -0.00233   0.01067  -0.00244   0.01653   0.00000
 152        6D-1        0.00016  -0.01289   0.01762  -0.02206  -0.00000
 153        6D+2        0.00000   0.00000  -0.00000   0.00000  -0.00251
 154        6D-2        0.00000   0.00000  -0.00000   0.00000  -0.00530
 155 8   C  1S         -0.00000   0.00000  -0.00000   0.00000  -0.00762
 156        2S         -0.00000   0.00000  -0.00000   0.00000  -0.01291
 157        2PX         0.00000   0.00000   0.00000   0.00000  -0.00361
 158        2PY         0.00000   0.00000  -0.00000   0.00000  -0.01749
 159        2PZ        -0.00556   0.08266  -0.01109   0.11925   0.00000
 160        3S          0.00000  -0.00000   0.00000  -0.00000   0.04137
 161        3PX         0.00000  -0.00000  -0.00000  -0.00000  -0.00328
 162        3PY         0.00000   0.00000  -0.00000   0.00000  -0.02538
 163        3PZ        -0.00770   0.12723  -0.01684   0.18984   0.00000
 164        4S         -0.00000  -0.00001   0.00001   0.00000   0.05695
 165        4PX         0.00000   0.00001   0.00000   0.00001  -0.02622
 166        4PY        -0.00000  -0.00000   0.00001   0.00000  -0.08671
 167        4PZ        -0.00535   0.24522  -0.04955   0.35104   0.00000
 168        5S         -0.00001   0.00008   0.00020   0.00018  -1.98397
 169        5PX        -0.00003   0.00016   0.00028   0.00024  -1.29320
 170        5PY         0.00000  -0.00002  -0.00004  -0.00003  -0.52417
 171        5PZ         0.01188   0.18427  -0.06445   0.40966   0.00002
 172        6D 0       -0.00000  -0.00000   0.00000  -0.00000  -0.00639
 173        6D+1       -0.02198   0.00188   0.02727  -0.00456   0.00000
 174        6D-1       -0.00184  -0.00812   0.00042  -0.01057   0.00000
 175        6D+2       -0.00000  -0.00000   0.00000  -0.00000   0.00209
 176        6D-2        0.00000   0.00000   0.00000   0.00000   0.00178
 177 9   C  1S         -0.00000   0.00000   0.00000  -0.00000  -0.01379
 178        2S         -0.00000   0.00000   0.00000  -0.00000  -0.02318
 179        2PX         0.00000  -0.00000   0.00000  -0.00000   0.00222
 180        2PY        -0.00000   0.00000   0.00000   0.00000  -0.03039
 181        2PZ         0.02862  -0.01236   0.00637  -0.00240   0.00000
 182        3S          0.00000   0.00000  -0.00000   0.00000   0.06068
 183        3PX         0.00000  -0.00000   0.00000  -0.00000   0.00366
 184        3PY         0.00000   0.00000   0.00000   0.00000  -0.04602
 185        3PZ         0.03823  -0.01911   0.00901  -0.00370   0.00000
 186        4S          0.00000  -0.00003  -0.00009  -0.00003   0.42456
 187        4PX        -0.00001   0.00000  -0.00001  -0.00000   0.02177
 188        4PY        -0.00000   0.00000   0.00002   0.00001  -0.02398
 189        4PZ         0.07488  -0.09882   0.05904  -0.00198   0.00000
 190        5S          0.00002  -0.00010  -0.00032  -0.00027   0.90709
 191        5PX        -0.00002   0.00005   0.00004   0.00003  -0.37741
 192        5PY         0.00000  -0.00001  -0.00004  -0.00005  -0.45889
 193        5PZ         0.12838  -0.40074   0.20171  -0.03008   0.00001
 194        6D 0        0.00000   0.00000   0.00000  -0.00000  -0.00863
 195        6D+1        0.00353  -0.00726  -0.02273   0.01387  -0.00000
 196        6D-1       -0.01926  -0.02853   0.00586  -0.00276  -0.00000
 197        6D+2       -0.00000  -0.00000   0.00000   0.00000   0.00245
 198        6D-2        0.00000   0.00000  -0.00000   0.00000  -0.00058
 199 10  C  1S         -0.00000  -0.00000   0.00000   0.00000  -0.01039
 200        2S         -0.00000  -0.00000   0.00000   0.00000  -0.01769
 201        2PX        -0.00000  -0.00000   0.00000  -0.00000   0.00165
 202        2PY        -0.00000   0.00000   0.00000  -0.00000   0.02330
 203        2PZ         0.16971   0.02189   0.03203   0.01509   0.00000
 204        3S          0.00000  -0.00000  -0.00000  -0.00000   0.05880
 205        3PX        -0.00000  -0.00000   0.00000  -0.00000   0.00261
 206        3PY         0.00000  -0.00000  -0.00000  -0.00000   0.03266
 207        3PZ         0.27603   0.03289   0.05269   0.02377   0.00000
 208        4S         -0.00000   0.00001   0.00003   0.00001   0.06909
 209        4PX        -0.00000  -0.00000   0.00000   0.00000  -0.00864
 210        4PY         0.00000  -0.00000  -0.00001  -0.00000   0.20301
 211        4PZ         0.34214   0.08817   0.08803   0.05286   0.00000
 212        5S          0.00002  -0.00008  -0.00025  -0.00020   1.55739
 213        5PX         0.00001   0.00004  -0.00007  -0.00003  -0.42876
 214        5PY         0.00000  -0.00000  -0.00002  -0.00000   1.91871
 215        5PZ         0.09657   0.33234   0.01008   0.11356   0.00000
 216        6D 0        0.00000  -0.00000  -0.00000  -0.00000  -0.00738
 217        6D+1       -0.00126   0.00752   0.02953   0.00623   0.00000
 218        6D-1        0.00075   0.01303  -0.00084   0.00361   0.00000
 219        6D+2       -0.00000   0.00000   0.00000  -0.00000   0.00100
 220        6D-2        0.00000   0.00000  -0.00000  -0.00000   0.00033
 221 11  C  1S         -0.00000  -0.00000   0.00000  -0.00000  -0.00533
 222        2S         -0.00000  -0.00000   0.00000  -0.00000  -0.00918
 223        2PX        -0.00000  -0.00000   0.00000  -0.00000   0.00309
 224        2PY        -0.00000  -0.00000   0.00000  -0.00000   0.00899
 225        2PZ        -0.07531  -0.11424  -0.06488   0.06912  -0.00000
 226        3S          0.00000   0.00000  -0.00000   0.00000   0.03709
 227        3PX        -0.00000  -0.00000   0.00000  -0.00000   0.00476
 228        3PY        -0.00000  -0.00000   0.00000  -0.00000   0.01236
 229        3PZ        -0.12135  -0.17708  -0.10153   0.11267  -0.00000
 230        4S          0.00001   0.00002   0.00001   0.00000  -0.03409
 231        4PX        -0.00001  -0.00002  -0.00002  -0.00001   0.12857
 232        4PY        -0.00001  -0.00001  -0.00002  -0.00000   0.01728
 233        4PZ        -0.15582  -0.30290  -0.21406   0.17955  -0.00000
 234        5S         -0.00001   0.00014   0.00043   0.00029  -3.22200
 235        5PX         0.00001  -0.00006  -0.00007  -0.00008   0.57657
 236        5PY        -0.00003   0.00006   0.00055   0.00038  -2.02484
 237        5PZ        -0.09288  -0.07096  -0.38065   0.25485  -0.00001
 238        6D 0        0.00000   0.00000   0.00000  -0.00000  -0.00730
 239        6D+1       -0.00408   0.01801  -0.00583  -0.01208  -0.00000
 240        6D-1       -0.00546  -0.00876   0.01947   0.01197   0.00000
 241        6D+2        0.00000   0.00000   0.00000  -0.00000  -0.00543
 242        6D-2       -0.00000  -0.00000   0.00000   0.00000   0.00148
 243 12  C  1S          0.00000   0.00000   0.00000   0.00000  -0.00601
 244        2S          0.00000   0.00000   0.00000   0.00000  -0.01023
 245        2PX         0.00000   0.00000   0.00000   0.00000   0.00016
 246        2PY         0.00000   0.00000   0.00000   0.00000  -0.01033
 247        2PZ        -0.02257   0.01192   0.09455   0.03458   0.00000
 248        3S         -0.00000  -0.00000  -0.00000  -0.00000   0.03543
 249        3PX         0.00000   0.00000  -0.00000  -0.00000   0.00298
 250        3PY         0.00000   0.00000   0.00000   0.00000  -0.01426
 251        3PZ        -0.03549   0.02428   0.14788   0.06042   0.00000
 252        4S          0.00000   0.00000   0.00000  -0.00000   0.10973
 253        4PX         0.00000   0.00001   0.00003   0.00001  -0.15376
 254        4PY         0.00000   0.00000  -0.00000   0.00000  -0.07679
 255        4PZ        -0.04493   0.00803   0.29739   0.07776   0.00000
 256        5S          0.00003  -0.00018  -0.00071  -0.00052   5.12945
 257        5PX         0.00000   0.00003  -0.00014  -0.00008  -0.77031
 258        5PY        -0.00003   0.00005   0.00035   0.00023  -3.13191
 259        5PZ        -0.00914  -0.17350   0.43742   0.03067   0.00001
 260        6D 0       -0.00000  -0.00000   0.00000   0.00000  -0.00763
 261        6D+1       -0.02428   0.01210  -0.01478  -0.01453  -0.00000
 262        6D-1        0.01454   0.02886   0.00809  -0.01748   0.00000
 263        6D+2        0.00000  -0.00000  -0.00000   0.00000  -0.00407
 264        6D-2        0.00000   0.00000  -0.00000   0.00000  -0.00303
 265 13  C  1S          0.00000   0.00000  -0.00000   0.00000  -0.00669
 266        2S          0.00000   0.00000  -0.00000   0.00000  -0.01149
 267        2PX        -0.00000  -0.00000   0.00000  -0.00000  -0.00146
 268        2PY         0.00000   0.00000  -0.00000   0.00000   0.00990
 269        2PZ        -0.09949  -0.04234   0.10732  -0.08239   0.00000
 270        3S         -0.00000  -0.00001   0.00000  -0.00000   0.04507
 271        3PX        -0.00000  -0.00000   0.00000  -0.00000  -0.00148
 272        3PY         0.00000   0.00000  -0.00000   0.00000   0.01523
 273        3PZ        -0.16030  -0.06537   0.16823  -0.13405   0.00000
 274        4S         -0.00001  -0.00001   0.00001  -0.00000   0.01542
 275        4PX        -0.00001  -0.00000   0.00002   0.00001  -0.10116
 276        4PY         0.00001  -0.00000  -0.00001   0.00000  -0.01031
 277        4PZ        -0.20998  -0.10983   0.31361  -0.24058   0.00000
 278        5S         -0.00004   0.00008   0.00047   0.00031  -4.17495
[...]
 186        4S          0.43086
 187        4PX         0.16330
 188        4PY         0.27323
 189        4PZ         0.39768
 190        5S          0.34578
 191        5PX        -0.25734
 192        5PY         0.03620
 193        5PZ        -0.02808
 194        6D 0        0.00827
 195        6D+1        0.00848
 196        6D-1        0.01212
 197        6D+2        0.01196
 198        6D-2        0.01364
 199 10  C  1S          1.10550
 200        2S          0.88522
 201        2PX         0.24239
 202        2PY         0.24079
 203        2PZ         0.11518
 204        3S          0.79963
 205        3PX         0.55143
 206        3PY         0.54931
 207        3PZ         0.31164
 208        4S          0.41315
 209        4PX         0.15808
 210        4PY         0.34432
 211        4PZ         0.25642
 212        5S          0.03009
 213        5PX        -0.37065
 214        5PY         0.19772
 215        5PZ         0.04226
 216        6D 0        0.00298
 217        6D+1        0.01274
 218        6D-1        0.00361
 219        6D+2        0.02116
 220        6D-2        0.01509
 221 11  C  1S          1.10531
 222        2S          0.88559
 223        2PX         0.22545
 224        2PY         0.23696
 225        2PZ         0.15539
 226        3S          0.76454
 227        3PX         0.52756
 228        3PY         0.53086
 229        3PZ         0.40683
 230        4S          0.41895
 231        4PX         0.27562
 232        4PY         0.21184
 233        4PZ         0.33630
 234        5S          0.10854
 235        5PX        -0.30045
 236        5PY         0.61713
 237        5PZ         0.01745
 238        6D 0        0.00397
 239        6D+1        0.00875
 240        6D-1        0.01146
 241        6D+2        0.02007
 242        6D-2        0.02098
 243 12  C  1S          1.10520
 244        2S          0.88559
 245        2PX         0.22822
 246        2PY         0.23772
 247        2PZ         0.17543
 248        3S          0.75239
 249        3PX         0.52284
 250        3PY         0.53456
 251        3PZ         0.46254
 252        4S          0.36043
 253        4PX         0.14109
 254        4PY         0.19094
 255        4PZ         0.39422
 256        5S         -0.48003
 257        5PX        -0.47368
 258        5PY         0.28186
 259        5PZ        -0.06229
 260        6D 0        0.00444
 261        6D+1        0.00753
 262        6D-1        0.00997
 263        6D+2        0.02295
 264        6D-2        0.02293
 265 13  C  1S          1.10533
 266        2S          0.88546
 267        2PX         0.23911
 268        2PY         0.23135
 269        2PZ         0.14959
 270        3S          0.77114
 271        3PX         0.53772
 272        3PY         0.53129
 273        3PZ         0.39515
 274        4S          0.39404
 275        4PX         0.26170
 276        4PY         0.22684
 277        4PZ         0.31271
 278        5S          0.15892
 279        5PX        -0.25685
 280        5PY         0.61500
 281        5PZ         0.01069
 282        6D 0        0.00383
 283        6D+1        0.01092
 284        6D-1        0.00983
 285        6D+2        0.02299
 286        6D-2        0.02047
 287 14  C  1S          1.10521
 288        2S          0.88565
 289        2PX         0.23380
 290        2PY         0.22896
 291        2PZ         0.17365
 292        3S          0.75267
 293        3PX         0.52934
 294        3PY         0.52840
 295        3PZ         0.45784
 296        4S          0.38316
 297        4PX         0.16106
 298        4PY         0.19667
 299        4PZ         0.39640
 300        5S         -0.59118
 301        5PX        -0.46393
 302        5PY         0.30687
 303        5PZ        -0.05915
 304        6D 0        0.00446
 305        6D+1        0.00730
 306        6D-1        0.00804
 307        6D+2        0.02280
 308        6D-2        0.02200
 309 15  H  1S          0.27371
 310        2S          0.46426
 311        3S          0.03614
 312        4S         -0.03281
 313        5PX         0.00330
 314        5PY         0.01457
 315        5PZ         0.00476
 316 16  H  1S          0.27387
 317        2S          0.46364
 318        3S          0.01655
 319        4S         -0.02673
 320        5PX         0.01262
 321        5PY         0.00639
 322        5PZ         0.00404
 323 17  H  1S          0.27303
 324        2S          0.46336
 325        3S          0.02245
 326        4S         -0.02697
 327        5PX         0.01146
 328        5PY         0.00683
 329        5PZ         0.00455
 330 18  H  1S          0.27321
 331        2S          0.46525
 332        3S          0.03927
 333        4S         -0.01980
 334        5PX         0.00342
 335        5PY         0.01486
 336        5PZ         0.00463
 337 19  H  1S          0.27258
 338        2S          0.45420
 339        3S          0.01781
 340        4S          0.04274
 341        5PX         0.00339
 342        5PY         0.01636
 343        5PZ         0.00291
 344 20  H  1S          0.27369
 345        2S          0.46477
 346        3S          0.03106
 347        4S         -0.02002
 348        5PX         0.00348
 349        5PY         0.01536
 350        5PZ         0.00419
 351 21  H  1S          0.27328
 352        2S          0.46263
 353        3S          0.01718
 354        4S         -0.02998
 355        5PX         0.01253
 356        5PY         0.00617
 357        5PZ         0.00442
 358 22  H  1S          0.27301
 359        2S          0.46085
 360        3S          0.00837
 361        4S         -0.02978
 362        5PX         0.01250
 363        5PY         0.00654
 364        5PZ         0.00355
 365 23  H  1S          0.27303
 366        2S          0.46331
 367        3S          0.02984
 368        4S         -0.03056
 369        5PX         0.00341
 370        5PY         0.01512
 371        5PZ         0.00453
 372 24  H  1S          0.26299
 373        2S          0.42803
 374        3S          0.01151
 375        4S          0.02742
 376        5PX         0.00344
 377        5PY         0.00769
 378        5PZ         0.00921
 379 25  H  1S          0.26299
 380        2S          0.42803
 381        3S          0.01152
 382        4S          0.02743
 383        5PX         0.00344
 384        5PY         0.00769
 385        5PZ         0.00921
          Condensed to atoms (all electrons):
               1          2          3          4          5          6
     1  C    9.070511  -0.134267  -0.299809   2.257384  -0.105893  -0.107607
     2  C   -0.134267   7.241036   0.102145  -1.191068   0.039320  -0.013021
     3  C   -0.299809   0.102145   6.612936   0.888829  -0.154148   0.016288
     4  C    2.257384  -1.191068   0.888829  10.151745  -0.400200  -0.105700
     5  C   -0.105893   0.039320  -0.154148  -0.400200  12.138133   0.722212
     6  C   -0.107607  -0.013021   0.016288  -0.105700   0.722212   6.646105
     7  C    0.003948  -0.002566  -0.012925  -0.041033  -1.073445   0.468115
     8  C    0.400234  -0.032303  -0.080116  -0.014692   1.742212  -0.632419
     9  C   -1.107631  -0.766509   0.312593  -0.461708   0.244111   0.286329
    10  C   -1.398255   0.406204  -0.499894  -2.268526  -2.806886  -0.225516
    11  C    0.357754  -1.116976   1.257631  -0.135885  -1.631223  -0.278242
    12  C   -2.770161   1.976743  -1.609636  -1.564672  -0.647069  -0.048826
    13  C    0.310191  -0.378280  -0.030468  -1.294067  -0.622624   0.755837
    14  C   -0.974514   0.001981  -0.370098  -0.142072  -1.830314  -1.369887
    15  H    0.371313  -0.112371   0.005458   0.028644   0.003619   0.000979
    16  H   -0.016815   0.374335  -0.013457   0.009056  -0.001212  -0.000297
    17  H   -0.038359  -0.000931   0.364006  -0.064361   0.000343   0.000390
    18  H    0.053802   0.002866  -0.083593   0.443775   0.005946  -0.005307
    19  H   -0.047076  -0.009497   0.053957  -0.048329  -0.096282   0.048682
    20  H    0.006849   0.002243  -0.005209   0.005120   0.481033  -0.083705
    21  H   -0.001380  -0.000362   0.000404   0.000118  -0.068346   0.382884
    22  H    0.001260   0.000406  -0.000345  -0.001627   0.017901  -0.023330
    23  H    0.004266  -0.002946   0.001203   0.006310   0.026124  -0.004050
    24  H    0.025991   0.011962  -0.001767  -0.012378  -0.011187  -0.001417
    25  H    0.025976   0.011958  -0.001771  -0.012373  -0.011190  -0.001418
               7          8          9         10         11         12
     1  C    0.003948   0.400234  -1.107631  -1.398255   0.357754  -2.770161
     2  C   -0.002566  -0.032303  -0.766509   0.406204  -1.116976   1.976743
     3  C   -0.012925  -0.080116   0.312593  -0.499894   1.257631  -1.609636
     4  C   -0.041033  -0.014692  -0.461708  -2.268526  -0.135885  -1.564672
     5  C   -1.073445   1.742212   0.244111  -2.806886  -1.631223  -0.647069
     6  C    0.468115  -0.632419   0.286329  -0.225516  -0.278242  -0.048826
     7  C    7.248664   0.505807  -0.949059   0.145284  -0.193131  -0.309529
     8  C    0.505807   8.249138  -1.039806  -1.162599   0.248059  -1.222875
     9  C   -0.949059  -1.039806   9.643706   0.207445   1.382285  -1.484431
    10  C    0.145284  -1.162599   0.207445   9.016529  -0.634222   2.503105
    11  C   -0.193131   0.248059   1.382285  -0.634222  13.896842  -3.144073
    12  C   -0.309529  -1.222875  -1.484431   2.503105  -3.144073  15.633498
    13  C   -0.662317   0.394184   1.426591  -0.160906   1.036280  -4.848938
    14  C    0.990074  -1.845507  -2.250729   2.353873  -4.473785   3.065132
    15  H   -0.001971   0.007051   0.093286  -0.011774  -0.028632  -0.044941
    16  H    0.000288   0.000291   0.002664  -0.007435   0.021469  -0.026954
    17  H   -0.000399  -0.001245  -0.006518   0.020382  -0.031085   0.103603
    18  H    0.002035   0.006459  -0.026587   0.019314  -0.001903  -0.069282
    19  H   -0.007078  -0.041131   0.071270   0.418462   0.086263  -0.023043
    20  H    0.003063   0.046894  -0.019767   0.002244  -0.012498  -0.030681
    21  H   -0.025970  -0.017002  -0.003980   0.018264  -0.006244   0.005330
    22  H    0.381267  -0.019351   0.002224  -0.009998   0.003929  -0.011099
    23  H   -0.106742   0.367693   0.088576  -0.007355  -0.005440   0.008374
    24  H    0.016299   0.039306   0.355277   0.005172  -0.004034  -0.057376
    25  H    0.016294   0.039282   0.355300   0.005175  -0.004043  -0.057359
              13         14         15         16         17         18
     1  C    0.310191  -0.974514   0.371313  -0.016815  -0.038359   0.053802
     2  C   -0.378280   0.001981  -0.112371   0.374335  -0.000931   0.002866
     3  C   -0.030468  -0.370098   0.005458  -0.013457   0.364006  -0.083593
     4  C   -1.294067  -0.142072   0.028644   0.009056  -0.064361   0.443775
     5  C   -0.622624  -1.830314   0.003619  -0.001212   0.000343   0.005946
     6  C    0.755837  -1.369887   0.000979  -0.000297   0.000390  -0.005307
     7  C   -0.662317   0.990074  -0.001971   0.000288  -0.000399   0.002035
     8  C    0.394184  -1.845507   0.007051   0.000291  -0.001245   0.006459
     9  C    1.426591  -2.250729   0.093286   0.002664  -0.006518  -0.026587
    10  C   -0.160906   2.353873  -0.011774  -0.007435   0.020382   0.019314
    11  C    1.036280  -4.473785  -0.028632   0.021469  -0.031085  -0.001903
    12  C   -4.848938   3.065132  -0.044941  -0.026954   0.103603  -0.069282
    13  C   14.760874  -4.142219   0.012114   0.001569  -0.006079  -0.012140
    14  C   -4.142219  16.513649   0.002277  -0.006470   0.004573  -0.000745
    15  H    0.012114   0.002277   0.447783  -0.009237   0.001289  -0.000055
    16  H    0.001569  -0.006470  -0.009237   0.425892  -0.005829   0.001846
    17  H   -0.006079   0.004573   0.001289  -0.005829   0.424059  -0.009844
    18  H   -0.012140  -0.000745  -0.000055   0.001846  -0.009844   0.459888
    19  H    0.076805  -0.107923   0.000233  -0.000510   0.001102  -0.007094
    20  H   -0.011156  -0.046590  -0.000104   0.000011  -0.000117   0.001255
    21  H   -0.018175   0.075891   0.000010  -0.000006   0.000010  -0.000171
    22  H    0.026621  -0.031940  -0.000127   0.000007  -0.000007   0.000021
    23  H   -0.034529  -0.006179   0.000537  -0.000123   0.000018  -0.000125
    24  H    0.029025  -0.059243  -0.000730   0.000646  -0.000148   0.000242
    25  H    0.029026  -0.059212  -0.000729   0.000647  -0.000148   0.000242
              19         20         21         22         23         24
     1  C   -0.047076   0.006849  -0.001380   0.001260   0.004266   0.025991
     2  C   -0.009497   0.002243  -0.000362   0.000406  -0.002946   0.011962
     3  C    0.053957  -0.005209   0.000404  -0.000345   0.001203  -0.001767
     4  C   -0.048329   0.005120   0.000118  -0.001627   0.006310  -0.012378
     5  C   -0.096282   0.481033  -0.068346   0.017901   0.026124  -0.011187
     6  C    0.048682  -0.083705   0.382884  -0.023330  -0.004050  -0.001417
     7  C   -0.007078   0.003063  -0.025970   0.381267  -0.106742   0.016299
     8  C   -0.041131   0.046894  -0.017002  -0.019351   0.367693   0.039306
     9  C    0.071270  -0.019767  -0.003980   0.002224   0.088576   0.355277
    10  C    0.418462   0.002244   0.018264  -0.009998  -0.007355   0.005172
    11  C    0.086263  -0.012498  -0.006244   0.003929  -0.005440  -0.004034
    12  C   -0.023043  -0.030681   0.005330  -0.011099   0.008374  -0.057376
    13  C    0.076805  -0.011156  -0.018175   0.026621  -0.034529   0.029025
    14  C   -0.107923  -0.046590   0.075891  -0.031940  -0.006179  -0.059243
    15  H    0.000233  -0.000104   0.000010  -0.000127   0.000537  -0.000730
    16  H   -0.000510   0.000011  -0.000006   0.000007  -0.000123   0.000646
    17  H    0.001102  -0.000117   0.000010  -0.000007   0.000018  -0.000148
    18  H   -0.007094   0.001255  -0.000171   0.000021  -0.000125   0.000242
    19  H    0.444363  -0.005934   0.001768  -0.000563   0.000425   0.000560
    20  H   -0.005934   0.447316  -0.010305   0.002018   0.000288   0.000131
    21  H    0.001768  -0.010305   0.418921  -0.006754   0.001590  -0.000130
    22  H   -0.000563   0.002018  -0.006754   0.411785  -0.008478   0.000613
    23  H    0.000425   0.000288   0.001590  -0.008478   0.431271  -0.001021
    24  H    0.000560   0.000131  -0.000130   0.000613  -0.001021   0.492187
    25  H    0.000560   0.000131  -0.000130   0.000613  -0.001020  -0.077680
              25
     1  C    0.025976
     2  C    0.011958
     3  C   -0.001771
     4  C   -0.012373
     5  C   -0.011190
     6  C   -0.001418
     7  C    0.016294
     8  C    0.039282
     9  C    0.355300
    10  C    0.005175
    11  C   -0.004043
    12  C   -0.057359
    13  C    0.029026
    14  C   -0.059212
    15  H   -0.000729
    16  H    0.000647
    17  H   -0.000148
    18  H    0.000242
    19  H    0.000560
    20  H    0.000131
    21  H   -0.000130
    22  H    0.000613
    23  H   -0.001020
    24  H   -0.077680
    25  H    0.492175
 Mulliken charges:
               1
     1  C    0.112286
     2  C   -0.410103
     3  C   -0.452214
     4  C   -0.032291
     5  C    0.039066
     6  C   -0.427081
     7  C   -0.394975
     8  C    0.062436
     9  C   -0.354931
    10  C    0.071911
    11  C   -0.589098
    12  C    0.675161
    13  C   -0.637219
    14  C    0.709975
    15  H    0.236080
    16  H    0.249623
    17  H    0.245293
    18  H    0.219155
    19  H    0.190008
    20  H    0.227468
    21  H    0.253766
    22  H    0.264953
    23  H    0.241333
    24  H    0.249702
    25  H    0.249696
 Sum of Mulliken charges =   1.00000
 Mulliken charges with hydrogens summed into heavy atoms:
               1
     1  C    0.348366
     2  C   -0.160479
     3  C   -0.206921
     4  C    0.186864
     5  C    0.266534
     6  C   -0.173315
     7  C   -0.130022
     8  C    0.303769
     9  C    0.144467
    10  C    0.261919
    11  C   -0.589098
    12  C    0.675161
    13  C   -0.637219
    14  C    0.709975
 Electronic spatial extent (au):  <R**2>=           2869.3181
 Charge=              1.0000 electrons
 Dipole moment (field-independent basis, Debye):
    X=             -1.6114    Y=              0.1387    Z=              0.0000  Tot=              1.6173
 Quadrupole moment (field-independent basis, Debye-Ang):
   XX=            -30.6010   YY=            -56.2238   ZZ=            -84.2482
   XY=             -0.1274   XZ=             -0.0002   YZ=             -0.0000
 Traceless Quadrupole moment (field-independent basis, Debye-Ang):
   XX=             26.4234   YY=              0.8005   ZZ=            -27.2239
   XY=             -0.1274   XZ=             -0.0002   YZ=             -0.0000
 Octapole moment (field-independent basis, Debye-Ang**2):
  XXX=            -17.8976  YYY=              5.2843  ZZZ=              0.0000  XYY=             -3.7815
  XXY=             -5.5684  XXZ=             -0.0000  XZZ=             -2.3504  YZZ=             -3.1735
  YYZ=              0.0000  XYZ=              0.0004
 Hexadecapole moment (field-independent basis, Debye-Ang**3):
 XXXX=          -2124.8737 YYYY=           -612.2247 ZZZZ=            -99.6618 XXXY=              3.7101
 XXXZ=              0.0007 YYYX=             -1.4598 YYYZ=             -0.0002 ZZZX=              0.0002
 ZZZY=             -0.0001 XXYY=           -509.0608 XXZZ=           -594.2238 YYZZ=           -146.5364
 XXYZ=              0.0001 YYXZ=             -0.0008 ZZXY=             -0.7537
 N-N= 7.793813615399D+02 E-N=-2.795030061462D+03  KE= 5.374019388251D+02
 Orbital energies and kinetic energies (alpha):
                                 1                 2
  43         O                -0.539547          1.562419
  44         O                -0.523344          1.039362
  45         O                -0.478200          1.143223
  46         O                -0.460894          1.147855
  47         O                -0.431988          1.150577
  48         V                -0.261618          1.268503
  49         V                -0.147545          1.116053
  50         V                -0.140358          1.302205
  51         V                -0.127950          1.274495
  52         V                -0.111940          0.204505
 Total kinetic energy from orbitals= 5.374019388251D+02
 Unable to Open any file for archive entry.
 1\1\GINC-GADI-CPU-CLX-1686\SP\RM062X TD-FC\6-311++G(d,p)\C14H11(1+)\TS
 1578\14-Jul-2022\0\\#n M062X/6-311++G(d,p) TD SP pop=reg formcheck\\SP
 _18\\1,1\C,0,2.5319122405,1.3731693065,0.\C,0,3.7455980796,0.696827607
 7,0.\C,0,3.7117039393,-0.6766422117,0.\C,0,2.4292095486,-1.3874484325,
 0.\C,0,-2.5086104514,-1.418100874,0.\C,0,-3.6736653673,-0.7381317481,0
 .\C,0,-3.6746912269,0.6683910053,0.\C,0,-2.4659910259,1.3724306935,0.\
 C,0,0.0153262208,1.4679725728,0.\C,0,-0.0577964711,-1.4247146533,0.\C,
 0,1.2454160607,0.6642483422,0.\C,0,1.2259723923,-0.7195822815,0.\C,0,-
 1.2840085925,0.709857698,0.\C,0,-1.2549629545,-0.7275223718,0.\H,0,2.5
 053605827,2.4590532663,0.\H,0,4.6813008535,1.2362250349,0.\H,0,4.62373
 77185,-1.263081588,0.\H,0,2.4540167542,-2.4733810053,0.\H,0,-0.0493024
 21,-2.5079393065,0.\H,0,-2.4931632458,-2.5018176077,0.\H,0,-4.61635158
 8,-1.2704677185,0.\H,0,-4.6135331063,1.2100042716,0.\H,0,-2.4846794173
 ,2.457391387,0.\H,0,0.0851251539,2.1564953467,-0.8643239598\H,0,0.0853
 098071,2.1564953467,0.8643239598\\Version=ES64L-G16RevC.01\State=1-A\H
 F=-539.7445876\RMSD=4.007e-09\PG=C01 [X(C14H11)]\\@
 The archive entry for this job was punched.


 TELEVISION IS CALLED A MEDIUM BECAUSE IT ISN'T
 RARE, AND IT ISN'T WELL DONE.
 FChkPn:  Coordinates translated and rotated.
 FChkPn:  Coordinates match /B/ after translation and rotation.
 Job cpu time:       0 days  1 hours 15 minutes  0.7 seconds.
 Elapsed time:       0 days  0 hours 10 minutes  5.6 seconds.
 File lengths (MBytes):  RWF=    532 Int=      0 D2E=      0 Chk=     24 Scr=      1
 Normal termination of Gaussian 16 at Thu Jul 14 15:36:59 2022.
