 Entering Gaussian System, Link 0=g16
 Initial command:
 /apps/gaussian/g16c01/g16/l1.exe "/jobfs/51125639.gadi-pbs/Gau-129208.inp" -scrdir="/jobfs/51125639.gadi-pbs/"
 Entering Link 1 = /apps/gaussian/g16c01/g16/l1.exe PID=    129209.
  
 Copyright (c) 1988-2019, Gaussian, Inc.  All Rights Reserved.
  
 This is part of the Gaussian(R) 16 program.  It is based on
 the Gaussian(R) 09 system (copyright 2009, Gaussian, Inc.),
 the Gaussian(R) 03 system (copyright 2003, Gaussian, Inc.),
 the Gaussian(R) 98 system (copyright 1998, Gaussian, Inc.),
 the Gaussian(R) 94 system (copyright 1995, Gaussian, Inc.),
 the Gaussian 92(TM) system (copyright 1992, Gaussian, Inc.),
 the Gaussian 90(TM) system (copyright 1990, Gaussian, Inc.),
 the Gaussian 88(TM) system (copyright 1988, Gaussian, Inc.),
 the Gaussian 86(TM) system (copyright 1986, Carnegie Mellon
 University), and the Gaussian 82(TM) system (copyright 1983,
 Carnegie Mellon University). Gaussian is a federally registered
 trademark of Gaussian, Inc.
  
 This software contains proprietary and confidential information,
 including trade secrets, belonging to Gaussian, Inc.
  
 This software is provided under written license and may be
 used, copied, transmitted, or stored only in accord with that
 written license.
  
 The following legend is applicable only to US Government
 contracts under FAR:
  
                    RESTRICTED RIGHTS LEGEND
  
 Use, reproduction and disclosure by the US Government is
 subject to restrictions as set forth in subparagraphs (a)
 and (c) of the Commercial Computer Software - Restricted
 Rights clause in FAR 52.227-19.
  
 Gaussian, Inc.
 340 Quinnipiac St., Bldg. 40, Wallingford CT 06492
  
  
 ---------------------------------------------------------------
 Warning -- This program may not be used in any manner that
 competes with the business of Gaussian, Inc. or will provide
 assistance to any competitor of Gaussian, Inc.  The licensee
 of this program is prohibited from giving any competitor of
 Gaussian, Inc. access to this program.  By using this program,
 the user acknowledges that Gaussian, Inc. is engaged in the
 business of creating and licensing software in the field of
 computational chemistry and represents and warrants to the
 licensee that it is not a competitor of Gaussian, Inc. and that
 it will not use this program in any manner prohibited above.
 ---------------------------------------------------------------
  

 Cite this work as:
 Gaussian 16, Revision C.01,
 M. J. Frisch, G. W. Trucks, H. B. Schlegel, G. E. Scuseria, 
 M. A. Robb, J. R. Cheeseman, G. Scalmani, V. Barone, 
 G. A. Petersson, H. Nakatsuji, X. Li, M. Caricato, A. V. Marenich, 
 J. Bloino, B. G. Janesko, R. Gomperts, B. Mennucci, H. P. Hratchian, 
 J. V. Ortiz, A. F. Izmaylov, J. L. Sonnenberg, D. Williams-Young, 
 F. Ding, F. Lipparini, F. Egidi, J. Goings, B. Peng, A. Petrone, 
 T. Henderson, D. Ranasinghe, V. G. Zakrzewski, J. Gao, N. Rega, 
 G. Zheng, W. Liang, M. Hada, M. Ehara, K. Toyota, R. Fukuda, 
 J. Hasegawa, M. Ishida, T. Nakajima, Y. Honda, O. Kitao, H. Nakai, 
 T. Vreven, K. Throssell, J. A. Montgomery, Jr., J. E. Peralta, 
 F. Ogliaro, M. J. Bearpark, J. J. Heyd, E. N. Brothers, K. N. Kudin, 
 V. N. Staroverov, T. A. Keith, R. Kobayashi, J. Normand, 
 K. Raghavachari, A. P. Rendell, J. C. Burant, S. S. Iyengar, 
 J. Tomasi, M. Cossi, J. M. Millam, M. Klene, C. Adamo, R. Cammi, 
 J. W. Ochterski, R. L. Martin, K. Morokuma, O. Farkas, 
 J. B. Foresman, and D. J. Fox, Gaussian, Inc., Wallingford CT, 2019.
 
 ******************************************
 Gaussian 16:  ES64L-G16RevC.01  3-Jul-2019
                14-Jul-2022 
 ******************************************
 %NProcShared=8
 Will use up to    8 processors via shared memory.
 %mem = 32GB
 %Chk=check_sp_9
 ----------------------------------------------
 #n M062X/6-311++G(d,p) TD SP pop=reg formcheck
 ----------------------------------------------
 1/38=1,172=1/1;
 2/12=2,17=6,18=5,40=1/2;
 3/5=4,6=6,7=1111,11=9,25=1,30=1,74=-55/1,2,3,8;
 4//1;
 5/5=2,38=5/2;
 8/6=1,10=2/1;
 9/42=1,70=2/14;
 6//1;
 99/5=1,9=1/99;
 ----
 SP_9
 ----
 Symbolic Z-matrix:
 Charge =  1 Multiplicity = 1
 C                     2.5152    1.37298   0. 
 C                     3.72778   0.68953   0. 
 C                     3.7021   -0.69188   0. 
 C                     2.44906  -1.39502   0. 
 C                    -2.48876  -1.41035   0. 
 C                    -3.68308  -0.72262   0. 
 C                    -3.69233   0.67532   0. 
 C                    -2.48224   1.37262   0. 
 C                     0.00766   1.46733   0. 
 C                    -0.0289   -1.42462   0. 
 C                     1.25502   0.67579   0. 
 C                     1.23327  -0.72152   0. 
 C                    -1.27431   0.69859   0. 
 C                    -1.24776  -0.72549   0. 
 H                     2.50019   2.45859   0. 
 H                     4.66422   1.22958   0. 
 H                     4.6218   -1.26484   0. 
 H                     2.4638   -2.48031   0. 
 H                    -0.02465  -2.50775   0. 
 H                    -2.48338  -2.49452   0. 
 H                    -4.61811  -1.26853   0. 
 H                    -4.63034   1.21647   0. 
 H                    -2.48985   2.45776   0. 
 H                     0.04256   2.15659  -0.86405 
 H                     0.04265   2.15659   0.86405 
 
                          Input orientation:                          
 ---------------------------------------------------------------------
 Center     Atomic      Atomic             Coordinates (Angstroms)
 Number     Number       Type             X           Y           Z
 ---------------------------------------------------------------------
      1          6           0        2.515201    1.372985    0.000000
      2          6           0        3.727779    0.689534    0.000000
      3          6           0        3.702102   -0.691876    0.000000
      4          6           0        2.449060   -1.395019    0.000000
      5          6           0       -2.488760   -1.410345    0.000000
      6          6           0       -3.683083   -0.722621    0.000000
      7          6           0       -3.692326    0.675316    0.000000
      8          6           0       -2.482241    1.372615    0.000000
      9          6           0        0.007663    1.467326    0.000000
     10          6           0       -0.028898   -1.424622    0.000000
     11          6           0        1.255018    0.675789    0.000000
     12          6           0        1.233266   -0.721521    0.000000
     13          6           0       -1.274314    0.698594    0.000000
     14          6           0       -1.247761   -0.725491    0.000000
     15          1           0        2.500190    2.458592    0.000000
     16          1           0        4.664220    1.229578    0.000000
     17          1           0        4.621799   -1.264836    0.000000
     18          1           0        2.463803   -2.480306    0.000000
     19          1           0       -0.024651   -2.507755    0.000000
     20          1           0       -2.483377   -2.494524    0.000000
     21          1           0       -4.618106   -1.268529    0.000000
     22          1           0       -4.630337    1.216467    0.000000
     23          1           0       -2.489850    2.457761    0.000000
     24          1           0        0.042563    2.156588   -0.864047
     25          1           0        0.042655    2.156588    0.864047
 ---------------------------------------------------------------------
                    Distance matrix (angstroms):
                    1          2          3          4          5
     1  C    0.000000
     2  C    1.391923   0.000000
     3  C    2.381677   1.381649   0.000000
     4  C    2.768794   2.445503   1.436845   0.000000
     5  C    5.725955   6.561620   6.232413   4.937844   0.000000
     6  C    6.542957   7.544207   7.385249   6.168897   1.378177
     7  C    6.246610   7.420118   7.519759   6.480964   2.408018
     8  C    4.997442   6.247475   6.519833   5.654867   2.782968
     9  C    2.509312   3.800556   4.279139   3.762106   3.809609
    10  C    3.781408   4.310717   3.802273   2.478135   2.459903
    11  C    1.440189   2.472799   2.803342   2.390394   4.285771
    12  C    2.455669   2.865950   2.469014   1.389875   3.785229
    13  C    3.849056   5.002102   5.167023   4.271619   2.433619
    14  C    4.308537   5.172842   4.949978   3.756961   1.417428
    15  H    1.085711   2.153263   3.371949   3.853950   6.313343
    16  H    2.153799   1.081004   2.148873   3.434450   7.624587
    17  H    3.375774   2.149147   1.083571   2.176636   7.112048
    18  H    3.853633   3.412553   2.175285   1.085386   5.066824
    19  H    4.637994   4.929846   4.145613   2.712458   2.697432
    20  H    6.320079   6.979733   6.442801   5.053498   1.084192
    21  H    7.606685   8.572503   8.340167   7.068297   2.134063
    22  H    7.147252   8.374709   8.548176   7.545708   3.389173
    23  H    5.121257   6.464173   6.946976   6.263924   3.868106
    24  H    2.733963   4.059513   4.717261   4.376268   4.458384
    25  H    2.733879   4.059429   4.717189   4.376217   4.458436
                    6          7          8          9         10
     6  C    0.000000
     7  C    1.397967   0.000000
     8  C    2.414961   1.396615   0.000000
     9  C    4.291558   3.783807   2.491704   0.000000
    10  C    3.721004   4.222610   3.720676   2.892180   0.000000
    11  C    5.132289   4.947344   3.801666   1.477303   2.461741
    12  C    4.916349   5.119825   4.265020   2.508616   1.444787
    13  C    2.796787   2.418123   1.383254   1.494796   2.461526
    14  C    2.435323   2.817473   2.434336   2.526765   1.405138
    15  H    6.953631   6.444170   5.099408   2.682405   4.634182
    16  H    8.572546   8.374907   7.147892   4.662623   5.391673
    17  H    8.322563   8.537497   7.577831   5.362365   4.653441
    18  H    6.393251   6.917794   6.269637   4.649346   2.707033
    19  H    4.070728   4.856313   4.593149   3.975212   1.083141
    20  H    2.139845   3.392556   3.867139   4.679908   2.677527
    21  H    1.082721   2.153044   3.396699   5.374257   4.591861
    22  H    2.158090   1.082917   2.153764   4.644779   5.305524
    23  H    3.396856   2.150130   1.085172   2.686732   4.596649
    24  H    4.787155   4.109761   2.781334   1.105837   3.684664
    25  H    4.787227   4.109845   2.781418   1.105840   3.684666
                   11         12         13         14         15
    11  C    0.000000
    12  C    1.397480   0.000000
    13  C    2.529435   2.881785   0.000000
    14  C    2.868360   2.481031   1.424333   0.000000
    15  H    2.174589   3.423188   4.164670   4.917878   0.000000
    16  H    3.453888   3.946927   5.962226   6.226863   2.488675
    17  H    3.886031   3.431814   6.214435   5.894288   4.285456
    18  H    3.379659   2.146519   4.907028   4.105495   4.939031
    19  H    3.431108   2.184717   3.441268   2.161588   5.571303
    20  H    4.901681   4.117884   3.414357   2.157828   7.026328
    21  H    6.186595   5.876885   3.879499   3.413812   8.035021
    22  H    5.910138   6.175568   3.395744   3.900387   7.237906
    23  H    4.147223   4.895858   2.138269   3.416998   4.990040
    24  H    2.099855   3.232315   2.146273   3.273819   2.622540
    25  H    2.099801   3.232281   2.146330   3.273856   2.622454
                   16         17         18         19         20
    16  H    0.000000
    17  H    2.494774   0.000000
    18  H    4.313359   2.476754   0.000000
    19  H    5.996096   4.809818   2.488606   0.000000
    20  H    8.059595   7.210801   4.947200   2.458761   0.000000
    21  H    9.612602   9.239905   7.184834   4.757679   2.461734
    22  H    9.294566   9.579085   7.999559   5.923020   4.287294
    23  H    7.258729   8.027034   6.994510   5.543784   4.952289
    24  H    4.792249   5.781187   5.301864   4.744174   5.362815
    25  H    4.792160   5.781114   5.301822   4.744175   5.362858
                   21         22         23         24         25
    21  H    0.000000
    22  H    2.485026   0.000000
    23  H    4.291236   2.474367   0.000000
    24  H    5.848062   4.844212   2.692656   0.000000
    25  H    5.848136   4.844301   2.692742   1.728094   0.000000
 Stoichiometry    C14H11(1+)
 Framework group  C1[X(C14H11)]
 Deg. of freedom    69
 Full point group                 C1      NOp   1
 Largest Abelian subgroup         C1      NOp   1
 Largest concise Abelian subgroup C1      NOp   1
                         Standard orientation:                         
 ---------------------------------------------------------------------
 Center     Atomic      Atomic             Coordinates (Angstroms)
 Number     Number       Type             X           Y           Z
 ---------------------------------------------------------------------
      1          6           0        2.521811   -1.351173    0.000000
      2          6           0        3.730806   -0.661404    0.000000
      3          6           0        3.697920    0.719853    0.000000
      4          6           0        2.441226    1.416448    0.000000
      5          6           0       -2.496607    1.406005    0.000000
      6          6           0       -3.687324    0.712057    0.000000
      7          6           0       -3.689272   -0.685908    0.000000
      8          6           0       -2.475564   -1.376884    0.000000
      9          6           0        0.014800   -1.458599    0.000000
     10          6           0       -0.036853    1.433119    0.000000
     11          6           0        1.258007   -0.660564    0.000000
     12          6           0        1.228964    0.736614    0.000000
     13          6           0       -1.271172   -0.696568    0.000000
     14          6           0       -1.252051    0.727637    0.000000
     15          1           0        2.512466   -2.436844    0.000000
     16          1           0        4.670053   -1.196553    0.000000
     17          1           0        4.614615    1.297605    0.000000
     18          1           0        2.450306    2.501796    0.000000
     19          1           0       -0.038258    2.516259    0.000000
     20          1           0       -2.496881    2.490197    0.000000
     21          1           0       -4.625183    1.253078    0.000000
     22          1           0       -4.624446   -1.231948    0.000000
     23          1           0       -2.477510   -2.462054    0.000000
     24          1           0        0.053296   -2.147669    0.864047
     25          1           0        0.053388   -2.147669   -0.864047
 ---------------------------------------------------------------------
 Rotational constants (GHZ):           2.1249960           0.4425158           0.3670479
 Standard basis: 6-311++G(d,p) (5D, 7F)
 There are   399 symmetry adapted cartesian basis functions of A   symmetry.
 There are   385 symmetry adapted basis functions of A   symmetry.
   385 basis functions,   603 primitive gaussians,   399 cartesian basis functions
    47 alpha electrons       47 beta electrons
       nuclear repulsion energy       779.3216105942 Hartrees.
 NAtoms=   25 NActive=   25 NUniq=   25 SFac= 1.00D+00 NAtFMM=   60 NAOKFM=F Big=F
 Integral buffers will be    131072 words long.
 Regular integral format.
 Two-electron integral symmetry is turned on.
 One-electron integrals computed using PRISM.
 NBasis=   385 RedAO= T EigKep=  1.15D-06  NBF=   385
 NBsUse=   379 1.00D-06 EigRej=  8.65D-07 NBFU=   379
 ExpMin= 3.60D-02 ExpMax= 4.56D+03 ExpMxC= 6.82D+02 IAcc=3 IRadAn=         5 AccDes= 0.00D+00
 Harris functional with IExCor= 1009 and IRadAn=       5 diagonalized for initial guess.
 HarFok:  IExCor= 1009 AccDes= 0.00D+00 IRadAn=         5 IDoV= 1 UseB2=F ITyADJ=14
 ICtDFT=  3500011 ScaDFX=  1.000000  1.000000  1.000000  1.000000
 FoFCou: FMM=F IPFlag=           0 FMFlag=      100000 FMFlg1=           0
         NFxFlg=           0 DoJE=T BraDBF=F KetDBF=T FulRan=T
         wScrn=  0.000000 ICntrl=       500 IOpCl=  0 I1Cent=   200000004 NGrid=           0
         NMat0=    1 NMatS0=      1 NMatT0=    0 NMatD0=    1 NMtDS0=    0 NMtDT0=    0
 Petite list used in FoFCou.
 Requested convergence on RMS density matrix=1.00D-08 within 128 cycles.
 Requested convergence on MAX density matrix=1.00D-06.
 Requested convergence on             energy=1.00D-06.
 No special actions if energy rises.
 SCF Done:  E(RM062X) =  -539.755427934     A.U. after   15 cycles
            NFock= 15  Conv=0.88D-08     -V/T= 2.0045
 DoSCS=F DFT=T ScalE2(SS,OS)=  1.000000  1.000000
 ExpMin= 3.60D-02 ExpMax= 4.56D+03 ExpMxC= 6.82D+02 IAcc=3 IRadAn=         5 AccDes= 0.00D+00
 HarFok:  IExCor=  205 AccDes= 0.00D+00 IRadAn=         5 IDoV=-2 UseB2=F ITyADJ=14
 ICtDFT= 12500011 ScaDFX=  1.000000  1.000000  1.000000  1.000000
 Range of M.O.s used for correlation:    15   379
 NBasis=   385 NAE=    47 NBE=    47 NFC=    14 NFV=     0
 NROrb=    365 NOA=    33 NOB=    33 NVA=   332 NVB=   332

 **** Warning!!: The largest alpha MO coefficient is  0.13548819D+03

 Orbital symmetries:
       Occupied  (A) (A) (A) (A) (A) (A) (A) (A) (A) (A) (A) (A)
                 (A) (A) (A) (A) (A) (A) (A) (A) (A) (A) (A) (A)
                 (A) (A) (A) (A) (A) (A) (A) (A) (A) (A) (A) (A)
                 (A) (A) (A) (A) (A) (A) (A) (A) (A) (A) (A)
       Virtual   (A) (A) (A) (A) (A) (A) (A) (A) (A) (A) (A) (A)
                 (A) (A) (A) (A) (A) (A) (A) (A) (A) (A) (A) (A)
                 (A) (A) (A) (A) (A) (A) (A) (A) (A) (A) (A) (A)
                 (A) (A) (A) (A) (A) (A) (A) (A) (A) (A) (A) (A)
                 (A) (A) (A) (A) (A) (A) (A) (A) (A) (A) (A) (A)
                 (A) (A) (A) (A) (A) (A) (A) (A) (A) (A) (A) (A)
                 (A) (A) (A) (A) (A) (A) (A) (A) (A) (A) (A) (A)
                 (A) (A) (A) (A) (A) (A) (A) (A) (A) (A) (A) (A)
                 (A) (A) (A) (A) (A) (A) (A) (A) (A) (A) (A) (A)
                 (A) (A) (A) (A) (A) (A) (A) (A) (A) (A) (A) (A)
                 (A) (A) (A) (A) (A) (A) (A) (A) (A) (A) (A) (A)
                 (A) (A) (A) (A) (A) (A) (A) (A) (A) (A) (A) (A)
                 (A) (A) (A) (A) (A) (A) (A) (A) (A) (A) (A) (A)
                 (A) (A) (A) (A) (A) (A) (A) (A) (A) (A) (A) (A)
                 (A) (A) (A) (A) (A) (A) (A) (A) (A) (A) (A) (A)
                 (A) (A) (A) (A) (A) (A) (A) (A) (A) (A) (A) (A)
                 (A) (A) (A) (A) (A) (A) (A) (A) (A) (A) (A) (A)
                 (A) (A) (A) (A) (A) (A) (A) (A) (A) (A) (A) (A)
                 (A) (A) (A) (A) (A) (A) (A) (A) (A) (A) (A) (A)
                 (A) (A) (A) (A) (A) (A) (A) (A) (A) (A) (A) (A)
                 (A) (A) (A) (A) (A) (A) (A) (A) (A) (A) (A) (A)
                 (A) (A) (A) (A) (A) (A) (A) (A) (A) (A) (A) (A)
                 (A) (A) (A) (A) (A) (A) (A) (A) (A) (A) (A) (A)
                 (A) (A) (A) (A) (A) (A) (A) (A) (A) (A) (A) (A)
                 (A) (A) (A) (A) (A) (A) (A) (A) (A) (A) (A) (A)
                 (A) (A) (A) (A) (A) (A) (A) (A) (A) (A) (A) (A)
                 (A) (A) (A) (A) (A) (A) (A) (A) (A) (A) (A) (A)
                 (A) (A) (A) (A) (A) (A) (A) (A)
    12 initial guesses have been made.
 Convergence on wavefunction:    0.001000000000000
 Iteration     1 Dimension    12 NMult     0 NNew     12
 CISAX will form    12 AO SS matrices at one time.
 New state      2 was old state      3
 New state      3 was old state      2
 Iteration     2 Dimension    18 NMult    12 NNew      6
 Iteration     3 Dimension    24 NMult    18 NNew      6
 Iteration     4 Dimension    30 NMult    24 NNew      6
 Iteration     5 Dimension    36 NMult    30 NNew      6
 Iteration     6 Dimension    42 NMult    36 NNew      6
 ***********************************************************************
 Excited states from <AA,BB:AA,BB> singles matrix:
 ***********************************************************************
 
 Ground to excited state transition densities written to RWF  633
 Ground to excited state transition electric dipole moments (Au):
       state          X           Y           Z        Dip. S.      Osc.
         1         0.0454     -0.5715      0.0000      0.3287      0.0218
         2         0.4159      0.2945     -0.0000      0.2597      0.0212
         3         2.5209     -0.0411      0.0000      6.3566      0.5410
 Ground to excited state transition velocity dipole moments (Au):
       state          X           Y           Z        Dip. S.      Osc.
         1        -0.0014      0.0640     -0.0000      0.0041      0.0274
         2        -0.0446     -0.0390     -0.0000      0.0035      0.0191
         3        -0.3249      0.0056     -0.0000      0.1056      0.5515
 Ground to excited state transition magnetic dipole moments (Au):
       state          X           Y           Z
         1         0.0000      0.0000      0.1593
         2         0.0000     -0.0000      1.0677
         3        -0.0000      0.0000      0.9718
 Ground to excited state transition velocity quadrupole moments (Au):
       state          XX          YY          ZZ          XY          XZ          YZ
         1         0.2557      0.0293     -0.0086      0.0749     -0.0000      0.0000
         2        -0.1422     -0.0226      0.0049      0.3013      0.0000      0.0000
         3         0.1009     -0.0027     -0.0010      0.0856      0.0000     -0.0000
 <0|del|b> * <b|rxdel|0> + <0|del|b> * <b|delr+rdel|0>
 Rotatory Strengths (R) in cgs (10**-40 erg-esu-cm/Gauss)
       state          XX          YY          ZZ    R(velocity)    E-M Angle
         1         0.0000     -0.0005      0.0013      0.0003       90.00
         2         0.0003     -0.0006      0.0009      0.0002       90.00
         3        -0.0013      0.0032     -0.0018      0.0000       90.00
 1/2[<0|r|b>*<b|rxdel|0> + (<0|rxdel|b>*<b|r|0>)*]
 Rotatory Strengths (R) in cgs (10**-40 erg-esu-cm/Gauss)
       state          XX          YY          ZZ     R(length)
         1        -0.0001      0.0023     -0.0002      0.0006
         2        -0.0001      0.0008      0.0002      0.0003
         3         0.0024      0.0000     -0.0006      0.0006
  1/2[<0|del|b>*<b|r|0> + (<0|r|b>*<b|del|0>)*] (Au)
       state          X           Y           Z        Dip. S.   Osc.(frdel)
         1        -0.0001     -0.0366     -0.0000      0.0367      0.0244
         2        -0.0186     -0.0115      0.0000      0.0301      0.0200
         3        -0.8191     -0.0002     -0.0000      0.8194      0.5463

 Excitation energies and oscillator strengths:
 
 Excited State   1:      Singlet-A      2.7132 eV  456.97 nm  f=0.0218  <S**2>=0.000
      47 -> 48         0.70356
 This state for optimization and/or second-order correction.
 Total Energy, E(TD-HF/TD-DFT) =  -539.655720148    
 Copying the excited state density for this state as the 1-particle RhoCI density.
 
 Excited State   2:      Singlet-A      3.3334 eV  371.94 nm  f=0.0212  <S**2>=0.000
      45 -> 48         0.63822
      46 -> 48         0.29055
 
 Excited State   3:      Singlet-A      3.4741 eV  356.88 nm  f=0.5410  <S**2>=0.000
      45 -> 48        -0.29329
      46 -> 48         0.63407
 SavETr:  write IOETrn=   770 NScale= 10 NData=  16 NLR=1 NState=    3 LETran=      64.

 **********************************************************************

            Population analysis using the SCF Density.

 **********************************************************************

 Orbital symmetries:
       Occupied  (A) (A) (A) (A) (A) (A) (A) (A) (A) (A) (A) (A)
                 (A) (A) (A) (A) (A) (A) (A) (A) (A) (A) (A) (A)
                 (A) (A) (A) (A) (A) (A) (A) (A) (A) (A) (A) (A)
                 (A) (A) (A) (A) (A) (A) (A) (A) (A) (A) (A)
       Virtual   (A) (A) (A) (A) (A) (A) (A) (A) (A) (A) (A) (A)
                 (A) (A) (A) (A) (A) (A) (A) (A) (A) (A) (A) (A)
                 (A) (A) (A) (A) (A) (A) (A) (A) (A) (A) (A) (A)
                 (A) (A) (A) (A) (A) (A) (A) (A) (A) (A) (A) (A)
                 (A) (A) (A) (A) (A) (A) (A) (A) (A) (A) (A) (A)
                 (A) (A) (A) (A) (A) (A) (A) (A) (A) (A) (A) (A)
                 (A) (A) (A) (A) (A) (A) (A) (A) (A) (A) (A) (A)
                 (A) (A) (A) (A) (A) (A) (A) (A) (A) (A) (A) (A)
                 (A) (A) (A) (A) (A) (A) (A) (A) (A) (A) (A) (A)
                 (A) (A) (A) (A) (A) (A) (A) (A) (A) (A) (A) (A)
                 (A) (A) (A) (A) (A) (A) (A) (A) (A) (A) (A) (A)
                 (A) (A) (A) (A) (A) (A) (A) (A) (A) (A) (A) (A)
                 (A) (A) (A) (A) (A) (A) (A) (A) (A) (A) (A) (A)
                 (A) (A) (A) (A) (A) (A) (A) (A) (A) (A) (A) (A)
                 (A) (A) (A) (A) (A) (A) (A) (A) (A) (A) (A) (A)
                 (A) (A) (A) (A) (A) (A) (A) (A) (A) (A) (A) (A)
                 (A) (A) (A) (A) (A) (A) (A) (A) (A) (A) (A) (A)
                 (A) (A) (A) (A) (A) (A) (A) (A) (A) (A) (A) (A)
                 (A) (A) (A) (A) (A) (A) (A) (A) (A) (A) (A) (A)
                 (A) (A) (A) (A) (A) (A) (A) (A) (A) (A) (A) (A)
                 (A) (A) (A) (A) (A) (A) (A) (A) (A) (A) (A) (A)
                 (A) (A) (A) (A) (A) (A) (A) (A) (A) (A) (A) (A)
                 (A) (A) (A) (A) (A) (A) (A) (A) (A) (A) (A) (A)
                 (A) (A) (A) (A) (A) (A) (A) (A) (A) (A) (A) (A)
                 (A) (A) (A) (A) (A) (A) (A) (A) (A) (A) (A) (A)
                 (A) (A) (A) (A) (A) (A) (A) (A) (A) (A) (A) (A)
                 (A) (A) (A) (A) (A) (A) (A) (A) (A) (A) (A) (A)
                 (A) (A) (A) (A) (A) (A) (A) (A)
 The electronic state is 1-A.
 Alpha  occ. eigenvalues --  -10.77724 -10.73740 -10.72944 -10.72863 -10.72198
 Alpha  occ. eigenvalues --  -10.71919 -10.71815 -10.71094 -10.71077 -10.70339
 Alpha  occ. eigenvalues --  -10.70255 -10.69942 -10.69907 -10.69531  -1.16273
 Alpha  occ. eigenvalues --   -1.12264  -1.06760  -1.05633  -1.01166  -1.00173
 Alpha  occ. eigenvalues --   -0.95569  -0.90930  -0.86300  -0.85768  -0.83724
 Alpha  occ. eigenvalues --   -0.78291  -0.75923  -0.74252  -0.69650  -0.69168
 Alpha  occ. eigenvalues --   -0.68326  -0.68014  -0.67997  -0.64971  -0.64177
 Alpha  occ. eigenvalues --   -0.62746  -0.61674  -0.60190  -0.59280  -0.59141
 Alpha  occ. eigenvalues --   -0.56841  -0.55358  -0.54495  -0.52331  -0.46960
 Alpha  occ. eigenvalues --   -0.46039  -0.44030
 Alpha virt. eigenvalues --   -0.26119  -0.14721  -0.14119  -0.12832  -0.11174
 Alpha virt. eigenvalues --   -0.10088  -0.09245  -0.07987  -0.07972  -0.07485
 Alpha virt. eigenvalues --   -0.07201  -0.07155  -0.05659  -0.05587  -0.05366
 Alpha virt. eigenvalues --   -0.03829  -0.03636  -0.03295  -0.03159  -0.02165
 Alpha virt. eigenvalues --   -0.01347  -0.00942   0.00175   0.00576   0.00629
 Alpha virt. eigenvalues --    0.01062   0.01501   0.01915   0.02139   0.02296
 Alpha virt. eigenvalues --    0.02435   0.02652   0.02691   0.03233   0.03421
 Alpha virt. eigenvalues --    0.04221   0.04477   0.04699   0.04996   0.05344
 Alpha virt. eigenvalues --    0.06034   0.06245   0.06572   0.07028   0.07250
 Alpha virt. eigenvalues --    0.07872   0.08035   0.08324   0.08540   0.08883
 Alpha virt. eigenvalues --    0.09473   0.09527   0.09910   0.10698   0.10886
 Alpha virt. eigenvalues --    0.11104   0.12071   0.12205   0.12706   0.12972
 Alpha virt. eigenvalues --    0.13403   0.13513   0.13964   0.14229   0.15881
 Alpha virt. eigenvalues --    0.16266   0.16343   0.17309   0.17482   0.17714
 Alpha virt. eigenvalues --    0.18037   0.18970   0.19278   0.19546   0.19746
 Alpha virt. eigenvalues --    0.21434   0.21525   0.22544   0.23015   0.23481
 Alpha virt. eigenvalues --    0.23791   0.24533   0.25297   0.26836   0.27471
 Alpha virt. eigenvalues --    0.28709   0.29238   0.29770   0.31253   0.35472
 Alpha virt. eigenvalues --    0.36126   0.38125   0.39209   0.41045   0.41371
 Alpha virt. eigenvalues --    0.41816   0.42206   0.43018   0.43570   0.44376
 Alpha virt. eigenvalues --    0.44611   0.44879   0.45850   0.46096   0.47938
 Alpha virt. eigenvalues --    0.48480   0.48749   0.49070   0.50507   0.51007
 Alpha virt. eigenvalues --    0.51108   0.51831   0.52133   0.52614   0.53992
 Alpha virt. eigenvalues --    0.54094   0.54522   0.55639   0.55826   0.57521
 Alpha virt. eigenvalues --    0.58187   0.58785   0.61393   0.62106   0.62229
 Alpha virt. eigenvalues --    0.63023   0.63434   0.64691   0.65036   0.67186
 Alpha virt. eigenvalues --    0.70211   0.70434   0.70891   0.72348   0.72754
 Alpha virt. eigenvalues --    0.75592   0.75870   0.76296   0.76755   0.77109
 Alpha virt. eigenvalues --    0.77743   0.77886   0.78156   0.79934   0.80268
 Alpha virt. eigenvalues --    0.81119   0.81542   0.82193   0.82841   0.85082
 Alpha virt. eigenvalues --    0.86971   0.88024   0.88336   0.89093   0.90472
 Alpha virt. eigenvalues --    0.90904   0.91293   0.93161   0.94425   0.96288
 Alpha virt. eigenvalues --    0.96633   1.00251   1.01118   1.01480   1.02646
 Alpha virt. eigenvalues --    1.03054   1.03334   1.04635   1.05611   1.08611
 Alpha virt. eigenvalues --    1.19451   1.22979   1.23948   1.24619   1.28365
 Alpha virt. eigenvalues --    1.29459   1.31930   1.34134   1.35651   1.35820
 Alpha virt. eigenvalues --    1.39162   1.39716   1.40662   1.42860   1.43215
 Alpha virt. eigenvalues --    1.43277   1.44124   1.45804   1.46143   1.46460
 Alpha virt. eigenvalues --    1.47486   1.47741   1.51451   1.53399   1.55249
 Alpha virt. eigenvalues --    1.55493   1.56077   1.56350   1.57572   1.61077
 Alpha virt. eigenvalues --    1.62966   1.63310   1.63992   1.65925   1.67947
 Alpha virt. eigenvalues --    1.68094   1.68492   1.69558   1.74114   1.75604
 Alpha virt. eigenvalues --    1.76791   1.77938   1.79462   1.79723   1.80728
 Alpha virt. eigenvalues --    1.82644   1.82857   1.83321   1.83653   1.83892
 Alpha virt. eigenvalues --    1.84206   1.85388   1.86047   1.88154   1.91109
 Alpha virt. eigenvalues --    1.91854   1.93683   1.95113   1.97351   1.97786
 Alpha virt. eigenvalues --    1.99540   2.01937   2.03983   2.06917   2.11363
 Alpha virt. eigenvalues --    2.11679   2.13854   2.14756   2.18552   2.20682
 Alpha virt. eigenvalues --    2.22236   2.28027   2.29578   2.33877   2.34309
 Alpha virt. eigenvalues --    2.35678   2.38219   2.39327   2.41777   2.44276
 Alpha virt. eigenvalues --    2.45666   2.45677   2.48721   2.52386   2.53056
 Alpha virt. eigenvalues --    2.54114   2.56710   2.57743   2.58405   2.59378
 Alpha virt. eigenvalues --    2.59898   2.61251   2.61896   2.63511   2.63553
 Alpha virt. eigenvalues --    2.64746   2.64967   2.65155   2.65572   2.67460
 Alpha virt. eigenvalues --    2.67759   2.70516   2.70793   2.73204   2.74654
 Alpha virt. eigenvalues --    2.76127   2.77562   2.79519   2.82117   2.82962
 Alpha virt. eigenvalues --    2.83929   2.86050   2.91780   2.96816   2.99136
 Alpha virt. eigenvalues --    2.99794   3.04239   3.08769   3.10433   3.12944
 Alpha virt. eigenvalues --    3.19828   3.21784   3.25687   3.27806   3.29934
 Alpha virt. eigenvalues --    3.31924   3.33653   3.43053   3.45357   3.45894
 Alpha virt. eigenvalues --    3.47336   3.48895   3.55802   3.65850   3.66157
 Alpha virt. eigenvalues --    3.67109   3.93447   3.93701   3.94885   3.95865
 Alpha virt. eigenvalues --    4.03402   4.06145   4.07106   4.11980   4.34958
 Alpha virt. eigenvalues --    4.60247   4.68769   4.70685  23.45056  23.59803
 Alpha virt. eigenvalues --   23.79965  23.82234  23.84954  23.88323  23.90743
 Alpha virt. eigenvalues --   23.93931  23.94763  23.96312  24.01308  24.03441
 Alpha virt. eigenvalues --   24.09726  24.10871
     Molecular Orbital Coefficients:
                          43        44        45        46        47
                           O         O         O         O         O
     Eigenvalues --    -0.54495  -0.52331  -0.46960  -0.46039  -0.44030
   1 1   C  1S         -0.00303  -0.00000   0.00000   0.00000  -0.00000
   2        2S         -0.00500  -0.00000   0.00000   0.00000  -0.00000
   3        2PX        -0.08987  -0.00000   0.00000   0.00000  -0.00000
   4        2PY         0.02644  -0.00000  -0.00000  -0.00000   0.00000
   5        2PZ        -0.00000   0.07552   0.05354  -0.05648   0.12005
   6        3S          0.01584   0.00000  -0.00000  -0.00000   0.00000
   7        3PX        -0.12904  -0.00000   0.00000   0.00000  -0.00000
   8        3PY         0.03806  -0.00000  -0.00000  -0.00000   0.00000
   9        3PZ        -0.00000   0.12130   0.08683  -0.09163   0.19661
  10        4S         -0.02000   0.00000  -0.00000  -0.00000  -0.00000
  11        4PX        -0.06995   0.00000   0.00000   0.00000  -0.00000
  12        4PY         0.02756   0.00000  -0.00000  -0.00000  -0.00000
  13        4PZ        -0.00000   0.09984   0.07611  -0.08275   0.17785
  14        5S          0.11146  -0.00000  -0.00004  -0.00002  -0.00002
  15        5PX         0.12386   0.00000   0.00004   0.00003   0.00003
  16        5PY         0.01987   0.00000   0.00000   0.00000   0.00000
  17        5PZ        -0.00000  -0.00066   0.02956  -0.00664   0.03781
  18        6D 0        0.00028   0.00000  -0.00000  -0.00000  -0.00000
  19        6D+1        0.00000   0.00837  -0.00368  -0.01498  -0.00935
  20        6D-1       -0.00000   0.00780   0.00277  -0.00416   0.00716
  21        6D+2        0.00710  -0.00000   0.00000   0.00000  -0.00000
  22        6D-2       -0.01035  -0.00000   0.00000   0.00000  -0.00000
  23 2   C  1S          0.00271   0.00000  -0.00000  -0.00000   0.00000
  24        2S          0.00452   0.00000  -0.00000  -0.00000   0.00000
  25        2PX         0.07411   0.00000  -0.00000  -0.00000   0.00000
  26        2PY        -0.02112   0.00000  -0.00000  -0.00000   0.00000
  27        2PZ         0.00000   0.10256   0.01121  -0.10886   0.00548
  28        3S         -0.01538  -0.00000   0.00000   0.00000  -0.00000
  29        3PX         0.10728   0.00000  -0.00000  -0.00000   0.00000
  30        3PY        -0.03028   0.00000  -0.00000  -0.00000   0.00000
  31        3PZ         0.00000   0.16879   0.01906  -0.17889   0.00932
  32        4S          0.00998  -0.00000   0.00000   0.00000   0.00000
  33        4PX         0.08234   0.00000  -0.00000  -0.00000  -0.00000
  34        4PY        -0.02910   0.00000   0.00000   0.00000   0.00000
  35        4PZ         0.00000   0.12630   0.01422  -0.15100   0.00844
  36        5S         -0.11931   0.00000   0.00000  -0.00000   0.00000
  37        5PX         0.05080  -0.00000   0.00000   0.00000   0.00000
  38        5PY         0.07171   0.00000   0.00002   0.00001   0.00002
  39        5PZ        -0.00000   0.00246  -0.01815  -0.00633  -0.00236
  40        6D 0        0.00018   0.00000   0.00000   0.00000  -0.00000
  41        6D+1        0.00000  -0.00952  -0.00510   0.00692  -0.01170
  42        6D-1        0.00000   0.00570  -0.00742  -0.00451  -0.02010
  43        6D+2        0.00871   0.00000  -0.00000  -0.00000   0.00000
  44        6D-2       -0.01777  -0.00000   0.00000   0.00000  -0.00000
  45 3   C  1S          0.00016  -0.00000  -0.00000   0.00000   0.00000
  46        2S          0.00027  -0.00000  -0.00000   0.00000   0.00000
  47        2PX        -0.06901  -0.00000   0.00000   0.00000  -0.00000
  48        2PY         0.02920  -0.00000  -0.00000  -0.00000  -0.00000
  49        2PZ         0.00000   0.07813  -0.03935  -0.06267  -0.11448
  50        3S          0.00129   0.00000   0.00000   0.00000  -0.00000
  51        3PX        -0.09969  -0.00000   0.00000   0.00000  -0.00000
  52        3PY         0.04161  -0.00000  -0.00000  -0.00000  -0.00000
  53        3PZ         0.00000   0.12701  -0.06490  -0.10137  -0.18815
  54        4S         -0.02514   0.00000  -0.00000  -0.00000  -0.00000
  55        4PX        -0.06684  -0.00000   0.00000   0.00000   0.00000
  56        4PY         0.01447  -0.00000   0.00000   0.00000   0.00000
  57        4PZ         0.00000   0.09873  -0.05622  -0.08854  -0.16834
  58        5S          0.02207  -0.00001  -0.00004  -0.00002  -0.00002
  59        5PX        -0.03700   0.00000  -0.00000  -0.00000  -0.00000
  60        5PY         0.06204   0.00000   0.00001   0.00001   0.00001
  61        5PZ        -0.00000   0.00715   0.01408  -0.01634  -0.01491
  62        6D 0       -0.00002  -0.00000   0.00000   0.00000  -0.00000
  63        6D+1       -0.00000  -0.00330   0.00587  -0.00321   0.01181
  64        6D-1        0.00000  -0.01137  -0.00398   0.01467  -0.00603
  65        6D+2        0.00281  -0.00000   0.00000  -0.00000  -0.00000
  66        6D-2       -0.01395  -0.00000   0.00000   0.00000  -0.00000
  67 4   C  1S         -0.00235   0.00000  -0.00000   0.00000   0.00000
  68        2S         -0.00390   0.00000  -0.00000   0.00000   0.00000
  69        2PX         0.07069   0.00000  -0.00000  -0.00000   0.00000
  70        2PY        -0.02855   0.00000  -0.00000   0.00000   0.00000
  71        2PZ         0.00000   0.01455  -0.05987   0.04590  -0.11988
  72        3S          0.01188  -0.00000   0.00000   0.00000  -0.00000
  73        3PX         0.10062   0.00000  -0.00000  -0.00000   0.00000
  74        3PY        -0.04110   0.00000  -0.00000   0.00000   0.00000
  75        3PZ         0.00000   0.02269  -0.09853   0.07435  -0.19546
  76        4S          0.03167  -0.00000   0.00000   0.00000   0.00000
  77        4PX         0.07289   0.00000  -0.00000  -0.00000   0.00000
  78        4PY        -0.04495   0.00000  -0.00000  -0.00000  -0.00000
  79        4PZ         0.00000   0.02645  -0.08118   0.05781  -0.19076
  80        5S          0.18839  -0.00001   0.00000   0.00000   0.00001
  81        5PX        -0.11533   0.00000  -0.00001  -0.00000  -0.00001
  82        5PY        -0.03746   0.00000  -0.00000  -0.00000  -0.00000
  83        5PZ         0.00000  -0.01262  -0.02771   0.03067  -0.02769
  84        6D 0       -0.00005   0.00000   0.00000   0.00000  -0.00000
  85        6D+1       -0.00000   0.01231  -0.00068  -0.01697  -0.01074
  86        6D-1       -0.00000  -0.00336   0.00363  -0.00225   0.00632
  87        6D+2        0.00693  -0.00000   0.00000  -0.00000  -0.00000
  88        6D-2       -0.00928  -0.00000   0.00000   0.00000   0.00000
  89 5   C  1S         -0.00368  -0.00000   0.00000   0.00000  -0.00000
  90        2S         -0.00609  -0.00000   0.00000   0.00000  -0.00000
  91        2PX         0.07477   0.00000  -0.00000  -0.00000   0.00000
  92        2PY        -0.03679  -0.00000   0.00000   0.00000  -0.00000
  93        2PZ         0.00000   0.00820   0.12749  -0.01910  -0.05212
  94        3S          0.01982   0.00000  -0.00000  -0.00000   0.00000
  95        3PX         0.10659   0.00000  -0.00000  -0.00000   0.00000
  96        3PY        -0.05332  -0.00000   0.00000   0.00000  -0.00000
  97        3PZ         0.00000   0.01190   0.20883  -0.03129  -0.08431
  98        4S         -0.02983   0.00000   0.00000   0.00000   0.00000
  99        4PX         0.04887   0.00000  -0.00000   0.00000   0.00000
 100        4PY        -0.03671  -0.00000  -0.00000  -0.00000  -0.00000
 101        4PZ         0.00000   0.01736   0.18490  -0.02123  -0.08695
 102        5S         -0.20734   0.00001   0.00002   0.00001   0.00000
 103        5PX        -0.07915   0.00000   0.00001   0.00001   0.00000
 104        5PY         0.04610  -0.00000  -0.00000  -0.00000  -0.00000
 105        5PZ         0.00000  -0.01719   0.03664  -0.02765  -0.00546
 106        6D 0        0.00059  -0.00000  -0.00000  -0.00000   0.00000
 107        6D+1        0.00000  -0.01423  -0.00780  -0.01769   0.00393
 108        6D-1       -0.00000  -0.00294  -0.00805   0.00034   0.00288
 109        6D+2        0.01066   0.00000  -0.00000  -0.00000   0.00000
 110        6D-2       -0.00823  -0.00000  -0.00000  -0.00000   0.00000
 111 6   C  1S          0.00134   0.00000   0.00000   0.00000  -0.00000
 112        2S          0.00223   0.00000   0.00000   0.00000  -0.00000
 113        2PX        -0.05755  -0.00000   0.00000   0.00000  -0.00000
 114        2PY         0.03288   0.00000  -0.00000  -0.00000   0.00000
 115        2PZ         0.00000   0.07443   0.10565   0.07300  -0.04147
 116        3S         -0.00833  -0.00000  -0.00000  -0.00000   0.00000
 117        3PX        -0.08282  -0.00000   0.00000   0.00000  -0.00000
 118        3PY         0.04756   0.00000  -0.00000  -0.00000  -0.00000
 119        3PZ         0.00000   0.12120   0.17367   0.11901  -0.06814
 120        4S          0.01619  -0.00000  -0.00000  -0.00000  -0.00000
 121        4PX        -0.06866  -0.00000  -0.00000  -0.00000  -0.00000
 122        4PY         0.03676   0.00000   0.00000   0.00000   0.00000
 123        4PZ         0.00000   0.09621   0.14847   0.10623  -0.06004
 124        5S          0.04576   0.00001  -0.00003  -0.00002  -0.00002
 125        5PX        -0.01176   0.00000   0.00000   0.00000   0.00000
 126        5PY        -0.04486  -0.00000   0.00002   0.00001   0.00001
 127        5PZ        -0.00000   0.01014  -0.00327   0.02032  -0.01648
 128        6D 0        0.00041   0.00000  -0.00000   0.00000   0.00000
 129        6D+1        0.00000   0.00290   0.01336  -0.00069  -0.00526
 130        6D-1        0.00000  -0.01117   0.00818  -0.01197  -0.00454
 131        6D+2        0.00945   0.00000  -0.00000  -0.00000   0.00000
 132        6D-2       -0.01518  -0.00000   0.00000   0.00000  -0.00000
 133 7   C  1S         -0.00181  -0.00000   0.00000   0.00000  -0.00000
 134        2S         -0.00300  -0.00000   0.00000   0.00000  -0.00000
 135        2PX         0.06350   0.00000  -0.00000  -0.00000   0.00000
 136        2PY        -0.04391  -0.00000   0.00000   0.00000  -0.00000
 137        2PZ         0.00000   0.10113  -0.01904   0.09650   0.01824
 138        3S          0.01003   0.00000  -0.00000  -0.00000   0.00000
 139        3PX         0.09074   0.00000  -0.00000  -0.00000   0.00000
 140        3PY        -0.06219  -0.00000   0.00000   0.00000  -0.00000
 141        3PZ         0.00000   0.16679  -0.03173   0.15884   0.02969
 142        4S         -0.02311   0.00000   0.00000   0.00000  -0.00000
 143        4PX         0.05641   0.00000   0.00000   0.00000   0.00000
 144        4PY        -0.03432  -0.00000   0.00000   0.00000   0.00000
 145        4PZ         0.00000   0.12726  -0.02608   0.13609   0.02796
 146        5S          0.04499  -0.00000  -0.00001  -0.00001  -0.00001
 147        5PX         0.02336   0.00000  -0.00001  -0.00001  -0.00000
 148        5PY        -0.05453  -0.00000   0.00002   0.00002   0.00001
 149        5PZ         0.00000  -0.00018   0.01339   0.00375   0.01372
 150        6D 0        0.00018  -0.00000  -0.00000  -0.00000   0.00000
 151        6D+1       -0.00000   0.00903  -0.01232   0.00382   0.00589
 152        6D-1        0.00000   0.00531   0.01870   0.00702  -0.00786
 153        6D+2        0.00299  -0.00000   0.00000   0.00000  -0.00000
 154        6D-2       -0.01155  -0.00000   0.00000   0.00000  -0.00000
 155 8   C  1S          0.00062   0.00000  -0.00000   0.00000   0.00000
 156        2S          0.00102   0.00000  -0.00000   0.00000   0.00000
 157        2PX        -0.06682  -0.00000   0.00000   0.00000  -0.00000
 158        2PY         0.03506   0.00000   0.00000   0.00000  -0.00000
 159        2PZ        -0.00000   0.07305  -0.12496   0.02884   0.05605
 160        3S         -0.00164  -0.00000   0.00000  -0.00000  -0.00000
 161        3PX        -0.09381  -0.00000   0.00000   0.00000  -0.00000
 162        3PY         0.05103   0.00000  -0.00000  -0.00000  -0.00000
 163        3PZ        -0.00000   0.11767  -0.20424   0.04714   0.09258
 164        4S          0.01376  -0.00000  -0.00000  -0.00000  -0.00000
 165        4PX        -0.07075   0.00000   0.00000   0.00000  -0.00000
 166        4PY         0.06129  -0.00000  -0.00000  -0.00000  -0.00000
 167        4PZ        -0.00000   0.09761  -0.17679   0.04430   0.08355
 168        5S         -0.09555   0.00000  -0.00003  -0.00002  -0.00002
 169        5PX         0.07498   0.00001  -0.00004  -0.00003  -0.00003
 170        5PY        -0.00117  -0.00000   0.00000   0.00000   0.00000
 171        5PZ        -0.00000   0.00189  -0.04504   0.00235   0.00586
 172        6D 0       -0.00025  -0.00000  -0.00000  -0.00000   0.00000
 173        6D+1       -0.00000  -0.00881  -0.00848  -0.01521   0.00079
 174        6D-1       -0.00000   0.00737  -0.00833   0.00214   0.00419
 175        6D+2        0.01228   0.00000  -0.00000  -0.00000   0.00000
 176        6D-2       -0.00970  -0.00000   0.00000   0.00000  -0.00000
 177 9   C  1S         -0.00341  -0.00000  -0.00000  -0.00000  -0.00000
 178        2S         -0.00568  -0.00000  -0.00000  -0.00000  -0.00000
 179        2PX        -0.08721  -0.00000   0.00000   0.00000  -0.00000
 180        2PY         0.03378  -0.00000  -0.00000  -0.00000  -0.00000
 181        2PZ        -0.00000  -0.00666   0.02488   0.00456  -0.05573
 182        3S          0.01828   0.00000   0.00000   0.00000   0.00000
 183        3PX        -0.13089  -0.00000   0.00000   0.00000  -0.00000
 184        3PY         0.05002  -0.00000  -0.00000  -0.00000  -0.00000
 185        3PZ        -0.00001  -0.00770   0.03778   0.00716  -0.08509
 186        4S         -0.00041  -0.00000   0.00002   0.00001   0.00001
 187        4PX        -0.09304   0.00000   0.00000   0.00000   0.00000
 188        4PY         0.05059  -0.00000  -0.00000  -0.00000  -0.00000
 189        4PZ        -0.00001  -0.04340   0.03637   0.00707  -0.08637
 190        5S         -0.01246  -0.00000   0.00004   0.00003   0.00003
 191        5PX         0.30268  -0.00000  -0.00001  -0.00000   0.00000
 192        5PY         0.00414  -0.00000   0.00001   0.00001   0.00001
 193        5PZ        -0.00000  -0.06920  -0.03827  -0.00849   0.08417
 194        6D 0       -0.00361  -0.00000   0.00000  -0.00000  -0.00000
 195        6D+1        0.00000   0.00038   0.01410   0.01011   0.00674
 196        6D-1        0.00000   0.00038  -0.00661  -0.00099   0.01699
 197        6D+2        0.00888   0.00000  -0.00000  -0.00000   0.00000
 198        6D-2       -0.00905  -0.00000   0.00000   0.00000  -0.00000
 199 10  C  1S         -0.00564  -0.00000  -0.00000  -0.00000  -0.00000
 200        2S         -0.00935  -0.00000  -0.00000  -0.00000  -0.00000
 201        2PX         0.07170   0.00000  -0.00000  -0.00000   0.00000
 202        2PY        -0.02983  -0.00000   0.00000   0.00000  -0.00000
 203        2PZ         0.00000  -0.10336  -0.00637  -0.00636   0.01542
 204        3S          0.02865   0.00000   0.00000   0.00000   0.00000
 205        3PX         0.10331   0.00000  -0.00000  -0.00000   0.00000
 206        3PY        -0.04304  -0.00000   0.00000   0.00000   0.00000
 207        3PZ         0.00000  -0.16844  -0.01087  -0.01024   0.02620
 208        4S          0.02907   0.00000  -0.00001  -0.00000  -0.00000
 209        4PX         0.08344  -0.00000  -0.00000  -0.00000   0.00000
 210        4PY        -0.05139  -0.00000   0.00000   0.00000   0.00000
 211        4PZ         0.00000  -0.13965  -0.00769  -0.00754   0.01887
 212        5S         -0.00742  -0.00000   0.00003   0.00002   0.00002
 213        5PX        -0.26497   0.00001   0.00001   0.00000  -0.00001
 214        5PY        -0.00515   0.00000   0.00000   0.00000   0.00000
 215        5PZ         0.00000  -0.01426   0.02208   0.00679  -0.05498
 216        6D 0        0.00084  -0.00000   0.00000   0.00000   0.00000
 217        6D+1       -0.00000   0.00236  -0.00600   0.02330   0.00023
 218        6D-1       -0.00000   0.00926   0.00156   0.00068  -0.00390
 219        6D+2        0.01074  -0.00000  -0.00000  -0.00000  -0.00000
 220        6D-2       -0.00878  -0.00000   0.00000   0.00000  -0.00000
 221 11  C  1S         -0.00088   0.00000  -0.00000  -0.00000   0.00000
 222        2S         -0.00148   0.00000  -0.00000  -0.00000   0.00000
 223        2PX         0.07923   0.00000  -0.00000  -0.00000   0.00000
 224        2PY        -0.04231   0.00000  -0.00000   0.00000   0.00000
 225        2PZ        -0.00000   0.00679   0.04834   0.05674   0.11232
 226        3S          0.00513  -0.00000   0.00000   0.00000  -0.00000
 227        3PX         0.11598   0.00000  -0.00000  -0.00000   0.00000
 228        3PY        -0.06065   0.00000  -0.00000   0.00000   0.00000
 229        3PZ        -0.00000   0.01062   0.07852   0.09421   0.18329
 230        4S          0.00727  -0.00000  -0.00000  -0.00000  -0.00001
 231        4PX         0.11203   0.00000   0.00000   0.00000   0.00001
 232        4PY        -0.06296   0.00000   0.00000   0.00000   0.00001
 233        4PZ        -0.00000   0.02259   0.08338   0.07580   0.19008
 234        5S          0.07767  -0.00000  -0.00006  -0.00003  -0.00004
 235        5PX         0.13985  -0.00001   0.00001   0.00001   0.00001
 236        5PY         0.20005  -0.00001  -0.00007  -0.00004  -0.00003
 237        5PZ         0.00000   0.01758  -0.00683   0.02095  -0.07089
 238        6D 0       -0.00033   0.00000  -0.00000  -0.00000  -0.00000
 239        6D+1        0.00000   0.00936   0.00315  -0.00668   0.01398
 240        6D-1        0.00000  -0.00956  -0.00792   0.01424  -0.00119
 241        6D+2        0.00875   0.00000  -0.00000  -0.00000  -0.00000
 242        6D-2       -0.01570  -0.00000   0.00000  -0.00000  -0.00000
 243 12  C  1S          0.00261  -0.00000   0.00000  -0.00000  -0.00000
 244        2S          0.00443  -0.00000   0.00000  -0.00000  -0.00000
 245        2PX        -0.06325  -0.00000   0.00000   0.00000  -0.00000
 246        2PY         0.03893  -0.00000   0.00000  -0.00000  -0.00000
 247        2PZ         0.00000  -0.05454  -0.02649   0.11206   0.00955
 248        3S         -0.01293  -0.00000  -0.00000   0.00000   0.00000
 249        3PX        -0.09132  -0.00000   0.00000   0.00000  -0.00000
 250        3PY         0.05654  -0.00000   0.00000  -0.00000  -0.00000
 251        3PZ         0.00000  -0.08978  -0.04106   0.18406   0.01514
 252        4S         -0.01133   0.00000  -0.00000  -0.00000  -0.00000
 253        4PX        -0.07591  -0.00000  -0.00000  -0.00000  -0.00000
 254        4PY         0.02409   0.00000   0.00000   0.00000  -0.00000
 255        4PZ         0.00000  -0.08192  -0.05356   0.17986   0.01595
 256        5S         -0.19939   0.00001   0.00009   0.00006   0.00005
 257        5PX        -0.28114   0.00001   0.00001   0.00001  -0.00001
 258        5PY         0.15030  -0.00001  -0.00004  -0.00003  -0.00002
 259        5PZ        -0.00000   0.01303   0.01029  -0.03155   0.07457
 260        6D 0       -0.00006   0.00000  -0.00000  -0.00000   0.00000
 261        6D+1       -0.00000   0.01244  -0.00448   0.00329  -0.01381
 262        6D-1        0.00000  -0.00460  -0.00902  -0.00231  -0.01932
 263        6D+2        0.00853  -0.00000   0.00000   0.00000  -0.00000
 264        6D-2       -0.01681  -0.00000   0.00000   0.00000  -0.00000
 265 13  C  1S         -0.00206  -0.00000   0.00000   0.00000  -0.00000
 266        2S         -0.00342  -0.00000   0.00000   0.00000  -0.00000
 267        2PX         0.07427   0.00000  -0.00000  -0.00000   0.00000
 268        2PY        -0.05722  -0.00000   0.00000   0.00000  -0.00000
 269        2PZ        -0.00000   0.00118  -0.10915  -0.06744   0.03155
 270        3S          0.00984   0.00000  -0.00000  -0.00000   0.00000
 271        3PX         0.10972   0.00000  -0.00000  -0.00000   0.00000
 272        3PY        -0.08451  -0.00000   0.00000   0.00000  -0.00000
 273        3PZ        -0.00000   0.00051  -0.17762  -0.11236   0.05129
 274        4S          0.02490   0.00000  -0.00000  -0.00000   0.00000
 275        4PX         0.10653   0.00000  -0.00001  -0.00000   0.00000
 276        4PY        -0.05836  -0.00000   0.00000   0.00000  -0.00000
 277        4PZ        -0.00000   0.01483  -0.17728  -0.09596   0.05057
 278        5S         -0.06542   0.00000  -0.00006  -0.00003  -0.00004
 279        5PX         0.11472  -0.00001  -0.00002  -0.00001  -0.00001
 280        5PY        -0.25024   0.00001  -0.00005  -0.00003  -0.00005
 281        5PZ         0.00000   0.01463   0.06358  -0.00594  -0.05449
 282        6D 0        0.00037  -0.00000  -0.00000  -0.00000   0.00000
 283        6D+1       -0.00000  -0.00978   0.01380  -0.00370  -0.00928
 284        6D-1        0.00000  -0.01162   0.00731  -0.01288   0.00154
 285        6D+2        0.00858  -0.00000  -0.00000  -0.00000  -0.00000
 286        6D-2       -0.01683  -0.00000   0.00000   0.00000  -0.00000
 287 14  C  1S          0.00111  -0.00000  -0.00000  -0.00000   0.00000
 288        2S          0.00187  -0.00000  -0.00000  -0.00000   0.00000
 289        2PX        -0.06640  -0.00000   0.00000   0.00000  -0.00000
 290        2PY         0.05252   0.00000  -0.00000  -0.00000   0.00000
 291        2PZ         0.00000  -0.07427   0.01785  -0.10755   0.00233
 292        3S         -0.00545   0.00000   0.00000   0.00000  -0.00000
 293        3PX        -0.09598  -0.00000   0.00000   0.00000  -0.00000
 294        3PY         0.07635   0.00000  -0.00000  -0.00000   0.00000
 295        3PZ         0.00000  -0.12177   0.02803  -0.17676   0.00142
 296        4S          0.01871  -0.00000   0.00000  -0.00000   0.00000
 297        4PX        -0.10340  -0.00000   0.00001   0.00000   0.00000
 298        4PY         0.08041  -0.00000  -0.00000   0.00000   0.00000
 299        4PZ         0.00000  -0.11063   0.03645  -0.17535   0.01323
 300        5S          0.22325  -0.00001   0.00008   0.00005   0.00006
 301        5PX        -0.24409   0.00001   0.00001   0.00000  -0.00001
 302        5PY        -0.17728   0.00001  -0.00004  -0.00002  -0.00003
 303        5PZ        -0.00000   0.01733  -0.06183   0.01552   0.05616
 304        6D 0        0.00009  -0.00000  -0.00000  -0.00000  -0.00000
 305        6D+1       -0.00000  -0.01241  -0.01233  -0.00030   0.00703
 306        6D-1        0.00000  -0.00517   0.01827   0.00425  -0.00605
 307        6D+2        0.00878   0.00000  -0.00000  -0.00000   0.00000
 308        6D-2       -0.01552  -0.00000   0.00000   0.00000  -0.00000
 309 15  H  1S         -0.02354   0.00000   0.00000  -0.00000   0.00000
 310        2S         -0.03448   0.00000   0.00000  -0.00000   0.00000
 311        3S         -0.01473   0.00000  -0.00000  -0.00000  -0.00000
 312        4S         -0.01211   0.00000   0.00000   0.00000   0.00000
 313        5PX        -0.00430  -0.00000   0.00000   0.00000  -0.00000
 314        5PY        -0.00102   0.00000   0.00000  -0.00000  -0.00000
 315        5PZ        -0.00000   0.00483   0.00395  -0.00393   0.00842
 316 16  H  1S          0.07048   0.00000  -0.00000  -0.00000   0.00000
 317        2S          0.10262   0.00000  -0.00000   0.00000   0.00000
 318        3S          0.03934  -0.00000   0.00000   0.00000   0.00000
 319        4S          0.00691   0.00000   0.00000   0.00000   0.00000
 320        5PX        -0.00369  -0.00000  -0.00000  -0.00000   0.00000
 321        5PY         0.00325   0.00000  -0.00000  -0.00000   0.00000
 322        5PZ         0.00000   0.00660   0.00085  -0.00747   0.00040
 323 17  H  1S         -0.04236  -0.00000   0.00000   0.00000  -0.00000
 324        2S         -0.06056  -0.00000   0.00000  -0.00000  -0.00000
 325        3S         -0.02415  -0.00000   0.00000   0.00000  -0.00000
 326        4S         -0.00574   0.00000  -0.00000  -0.00000  -0.00000
 327        5PX         0.00071   0.00000  -0.00000   0.00000   0.00000
 328        5PY         0.00458   0.00000  -0.00000  -0.00000   0.00000
 329        5PZ         0.00000   0.00497  -0.00272  -0.00420  -0.00822
 330 18  H  1S         -0.02589   0.00000  -0.00000   0.00000   0.00000
 331        2S         -0.03790   0.00000   0.00000   0.00000   0.00000
 332        3S         -0.01648   0.00000   0.00000   0.00000   0.00000
 333        4S          0.01456   0.00000   0.00000   0.00000   0.00000
 334        5PX         0.00430   0.00000  -0.00000   0.00000   0.00000
 335        5PY         0.00179  -0.00000  -0.00000  -0.00000  -0.00000
 336        5PZ         0.00000   0.00043  -0.00441   0.00332  -0.00849
 337 19  H  1S         -0.02733   0.00000   0.00000   0.00000   0.00000
 338        2S         -0.03961  -0.00000   0.00000   0.00000  -0.00000
 339        3S         -0.01917   0.00000  -0.00000  -0.00000  -0.00000
 340        4S         -0.00279  -0.00000  -0.00000   0.00000  -0.00000
 341        5PX         0.00385   0.00000  -0.00000  -0.00000   0.00000
 342        5PY         0.00070   0.00000   0.00000   0.00000   0.00000
 343        5PZ         0.00000  -0.00645  -0.00023  -0.00036   0.00052
 344 20  H  1S         -0.03453  -0.00000   0.00000   0.00000  -0.00000
 345        2S         -0.05112  -0.00000   0.00000   0.00000  -0.00000
 346        3S         -0.02605  -0.00000   0.00000   0.00000   0.00000
 347        4S         -0.01875  -0.00000   0.00000   0.00000   0.00000
 348        5PX         0.00358   0.00000  -0.00000  -0.00000   0.00000
 349        5PY         0.00168   0.00000  -0.00000  -0.00000  -0.00000
 350        5PZ         0.00000  -0.00003   0.00892  -0.00152  -0.00348
 351 21  H  1S          0.06414   0.00000  -0.00000  -0.00000   0.00000
 352        2S          0.09344   0.00000  -0.00000  -0.00000   0.00000
 353        3S          0.03541  -0.00000  -0.00000  -0.00000   0.00000
 354        4S          0.00519  -0.00000  -0.00000  -0.00000  -0.00000
 355        5PX         0.00384   0.00000  -0.00000  -0.00000   0.00000
 356        5PY        -0.00225  -0.00000   0.00000   0.00000  -0.00000
 357        5PZ         0.00000   0.00475   0.00730   0.00497  -0.00300
 358 22  H  1S         -0.03031  -0.00000   0.00000   0.00000  -0.00000
 359        2S         -0.04429  -0.00000   0.00000   0.00000  -0.00000
 360        3S         -0.01964   0.00000   0.00000   0.00000  -0.00000
 361        4S         -0.00792  -0.00000   0.00000   0.00000  -0.00000
 362        5PX         0.00019  -0.00000   0.00000   0.00000   0.00000
 363        5PY        -0.00437  -0.00000   0.00000   0.00000  -0.00000
 364        5PZ         0.00000   0.00646  -0.00133   0.00658   0.00121
 365 23  H  1S         -0.03811  -0.00000   0.00000   0.00000  -0.00000
 366        2S         -0.05356  -0.00000   0.00000  -0.00000  -0.00000
 367        3S         -0.02193   0.00000  -0.00000  -0.00000  -0.00000
 368        4S          0.00975  -0.00000   0.00000   0.00000   0.00000
 369        5PX        -0.00388  -0.00000   0.00000   0.00000  -0.00000
 370        5PY        -0.00225  -0.00000  -0.00000  -0.00000   0.00000
 371        5PZ        -0.00000   0.00469  -0.00866   0.00207   0.00372
 372 24  H  1S         -0.02058  -0.00362   0.02282   0.00409  -0.05223
 373        2S         -0.02961   0.00379   0.03553   0.00622  -0.08322
 374        3S         -0.01296   0.02538   0.02847   0.00472  -0.06975
 375        4S          0.00140   0.04548   0.01547   0.00230  -0.03765
 376        5PX        -0.00427   0.00005   0.00214   0.00066   0.00152
 377        5PY         0.00024   0.00086   0.00154   0.00026  -0.00297
 378        5PZ         0.00195   0.00013  -0.00066  -0.00007   0.00152
 379 25  H  1S         -0.02058   0.00362  -0.02282  -0.00409   0.05223
 380        2S         -0.02960  -0.00379  -0.03554  -0.00622   0.08322
 381        3S         -0.01296  -0.02537  -0.02848  -0.00473   0.06974
 382        4S          0.00140  -0.04548  -0.01548  -0.00231   0.03764
 383        5PX        -0.00427  -0.00005  -0.00214  -0.00066  -0.00152
 384        5PY         0.00024  -0.00086  -0.00154  -0.00026   0.00297
 385        5PZ        -0.00195   0.00013  -0.00066  -0.00007   0.00152
                          48        49        50        51        52
                           V         V         V         V         V
     Eigenvalues --    -0.26119  -0.14721  -0.14119  -0.12832  -0.11174
   1 1   C  1S         -0.00000  -0.00000   0.00000   0.00000  -0.00561
   2        2S         -0.00000  -0.00000   0.00000   0.00000  -0.00951
   3        2PX         0.00000  -0.00000  -0.00000  -0.00000   0.00347
   4        2PY        -0.00000  -0.00000   0.00000   0.00000  -0.01454
   5        2PZ        -0.00444   0.10051  -0.01690  -0.10202  -0.00000
   6        3S          0.00000   0.00000  -0.00000  -0.00000   0.03120
   7        3PX         0.00000  -0.00000   0.00000   0.00000   0.00343
   8        3PY        -0.00000  -0.00000   0.00000   0.00000  -0.02143
   9        3PZ        -0.00705   0.15439  -0.02537  -0.16115  -0.00000
  10        4S          0.00000   0.00001   0.00000   0.00000   0.01974
  11        4PX         0.00000   0.00000  -0.00000  -0.00000   0.02554
  12        4PY         0.00000   0.00000   0.00000   0.00000  -0.07750
  13        4PZ        -0.00714   0.28691  -0.04449  -0.28320  -0.00000
  14        5S         -0.00000   0.00001   0.00014   0.00012  -1.62330
  15        5PX         0.00000   0.00001  -0.00016  -0.00013   0.78011
  16        5PY         0.00000   0.00000  -0.00001  -0.00001  -0.44171
  17        5PZ         0.00945   0.21486  -0.00034  -0.32972  -0.00001
  18        6D 0        0.00000   0.00000   0.00000  -0.00000  -0.00524
  19        6D+1        0.01557   0.00930   0.02373  -0.00274   0.00000
  20        6D-1       -0.00187  -0.00860   0.00218   0.00807  -0.00000
  21        6D+2        0.00000   0.00000  -0.00000  -0.00000   0.00140
  22        6D-2        0.00000  -0.00000  -0.00000  -0.00000  -0.00108
  23 2   C  1S         -0.00000   0.00000   0.00000   0.00000  -0.00436
  24        2S         -0.00000   0.00000   0.00000   0.00000  -0.00722
  25        2PX        -0.00000   0.00000   0.00000  -0.00000   0.00610
  26        2PY        -0.00000   0.00000   0.00000  -0.00000  -0.00045
  27        2PZ         0.07442  -0.00954   0.10007   0.04060   0.00000
  28        3S          0.00000   0.00000  -0.00000  -0.00000   0.02065
  29        3PX        -0.00000   0.00000   0.00000  -0.00000   0.01042
  30        3PY        -0.00000   0.00000   0.00000  -0.00000  -0.00232
  31        3PZ         0.12195  -0.01390   0.15928   0.06392   0.00000
  32        4S         -0.00000  -0.00001  -0.00000   0.00000   0.10426
  33        4PX         0.00000   0.00000   0.00000   0.00000  -0.00445
  34        4PY         0.00000  -0.00000  -0.00000  -0.00000   0.01164
  35        4PZ         0.14090  -0.03147   0.26398   0.11133   0.00000
  36        5S         -0.00001  -0.00001   0.00000   0.00001   0.56558
  37        5PX         0.00000   0.00000  -0.00002  -0.00002   0.17899
  38        5PY        -0.00000  -0.00000  -0.00009  -0.00007   0.35216
  39        5PZ         0.04394  -0.02199   0.21113   0.12002   0.00001
  40        6D 0        0.00000   0.00000  -0.00000   0.00000  -0.00338
  41        6D+1        0.00171  -0.01261   0.00280   0.01395   0.00000
  42        6D-1        0.00135  -0.02241  -0.00869   0.01910   0.00000
  43        6D+2       -0.00000  -0.00000   0.00000   0.00000  -0.00209
  44        6D-2        0.00000   0.00000  -0.00000  -0.00000   0.00361
  45 3   C  1S         -0.00000  -0.00000   0.00000   0.00000  -0.00369
  46        2S         -0.00000  -0.00000   0.00000   0.00000  -0.00610
  47        2PX        -0.00000  -0.00000  -0.00000   0.00000   0.00677
  48        2PY        -0.00000  -0.00000   0.00000   0.00000   0.00037
  49        2PZ         0.01273  -0.09499  -0.06281   0.06830  -0.00000
  50        3S          0.00000   0.00000  -0.00000  -0.00000   0.01740
  51        3PX        -0.00000  -0.00000  -0.00000  -0.00000   0.01228
  52        3PY        -0.00000  -0.00000   0.00000   0.00000   0.00143
  53        3PZ         0.02186  -0.14900  -0.09970   0.10693  -0.00000
  54        4S          0.00000   0.00000   0.00000   0.00000   0.06217
  55        4PX        -0.00000  -0.00000  -0.00000  -0.00000   0.01291
  56        4PY        -0.00000  -0.00000  -0.00000  -0.00000   0.02034
  57        4PZ         0.01568  -0.25469  -0.16921   0.18290  -0.00000
  58        5S          0.00001   0.00000   0.00014   0.00011   0.14671
  59        5PX        -0.00000  -0.00000   0.00001   0.00001  -0.01820
  60        5PY        -0.00000  -0.00000  -0.00006  -0.00004   0.36755
  61        5PZ         0.00320  -0.19162  -0.12738   0.18101  -0.00000
  62        6D 0        0.00000   0.00000   0.00000  -0.00000  -0.00369
  63        6D+1        0.00902  -0.01026   0.00634   0.01384   0.00000
  64        6D-1       -0.01306   0.00750  -0.01776  -0.01411  -0.00000
  65        6D+2        0.00000   0.00000   0.00000   0.00000  -0.00221
  66        6D-2        0.00000  -0.00000  -0.00000   0.00000  -0.00328
  67 4   C  1S         -0.00000  -0.00000   0.00000   0.00000  -0.00596
  68        2S         -0.00000  -0.00000   0.00000   0.00000  -0.01002
  69        2PX        -0.00000  -0.00000  -0.00000  -0.00000   0.00399
  70        2PY        -0.00000  -0.00000  -0.00000  -0.00000   0.01592
  71        2PZ        -0.07282   0.08797  -0.04341  -0.10528  -0.00000
  72        3S          0.00000   0.00000  -0.00000  -0.00000   0.02972
  73        3PX        -0.00000  -0.00000   0.00000  -0.00000   0.00428
  74        3PY        -0.00000  -0.00000   0.00000  -0.00000   0.02149
  75        3PZ        -0.11787   0.13432  -0.06913  -0.16736  -0.00000
  76        4S          0.00000  -0.00000  -0.00001  -0.00000   0.20079
  77        4PX        -0.00000  -0.00000   0.00000   0.00000  -0.04716
  78        4PY        -0.00000   0.00000   0.00000   0.00000   0.02443
  79        4PZ        -0.13477   0.25928  -0.13240  -0.28568  -0.00000
  80        5S          0.00000  -0.00002  -0.00002  -0.00001   1.80573
  81        5PX        -0.00000   0.00001   0.00003   0.00003  -0.81818
  82        5PY         0.00000   0.00000   0.00000   0.00000   0.58237
  83        5PZ        -0.03062   0.23195  -0.16520  -0.30911  -0.00000
  84        6D 0        0.00000   0.00000  -0.00000   0.00000  -0.00542
  85        6D+1        0.00184  -0.01515  -0.02186   0.00434  -0.00000
  86        6D-1        0.00372   0.00717  -0.00176  -0.00840  -0.00000
  87        6D+2        0.00000   0.00000   0.00000  -0.00000   0.00066
  88        6D-2       -0.00000  -0.00000  -0.00000   0.00000   0.00216
  89 5   C  1S          0.00000   0.00000  -0.00000   0.00000  -0.00738
  90        2S          0.00000   0.00000  -0.00000   0.00000  -0.01243
  91        2PX        -0.00000  -0.00000   0.00000   0.00000  -0.00376
  92        2PY         0.00000   0.00000  -0.00000  -0.00000   0.01893
  93        2PZ        -0.08408   0.08428   0.00371   0.11096   0.00000
  94        3S         -0.00000  -0.00000   0.00000  -0.00000   0.03753
  95        3PX        -0.00000  -0.00000   0.00000  -0.00000  -0.00397
  96        3PY         0.00000   0.00000   0.00000  -0.00000   0.02593
  97        3PZ        -0.13647   0.12937   0.00690   0.17629   0.00000
  98        4S          0.00000  -0.00000  -0.00001  -0.00000   0.20913
  99        4PX        -0.00000  -0.00000  -0.00000  -0.00000   0.04895
 100        4PY        -0.00000   0.00000   0.00000   0.00000   0.04456
 101        4PZ        -0.15984   0.26148   0.01116   0.31646   0.00000
 102        5S         -0.00000   0.00001  -0.00007  -0.00004   1.60998
 103        5PX        -0.00000  -0.00001  -0.00005  -0.00004   0.95933
 104        5PY        -0.00000   0.00000   0.00001   0.00000   0.73472
 105        5PZ        -0.04069   0.25585   0.06359   0.37143   0.00000
 106        6D 0       -0.00000  -0.00000   0.00000   0.00000  -0.00597
 107        6D+1       -0.00070   0.00639  -0.02900   0.00435  -0.00000
 108        6D-1        0.00358   0.00712   0.00021   0.01043   0.00000
 109        6D+2       -0.00000  -0.00000   0.00000  -0.00000   0.00171
 110        6D-2       -0.00000  -0.00000   0.00000  -0.00000  -0.00231
 111 6   C  1S          0.00000   0.00000  -0.00000   0.00000  -0.00497
 112        2S          0.00000   0.00000  -0.00000   0.00000  -0.00825
 113        2PX         0.00000  -0.00000   0.00000   0.00000  -0.00962
 114        2PY         0.00000   0.00000  -0.00000   0.00000   0.00154
 115        2PZ         0.00804  -0.05785   0.10036  -0.06916   0.00000
 116        3S         -0.00000  -0.00000  -0.00000  -0.00000   0.02409
 117        3PX         0.00000  -0.00000   0.00000   0.00000  -0.01601
 118        3PY         0.00000   0.00000   0.00000   0.00000   0.00338
 119        3PZ         0.01517  -0.09086   0.15936  -0.10860   0.00000
 120        4S         -0.00000  -0.00000   0.00001   0.00000   0.09135
 121        4PX        -0.00000  -0.00000   0.00000   0.00000  -0.02021
 122        4PY         0.00000   0.00000  -0.00000  -0.00000   0.02301
 123        4PZ         0.00843  -0.16666   0.27355  -0.19961   0.00000
 124        5S         -0.00002   0.00004   0.00010   0.00008   0.32728
 125        5PX        -0.00000  -0.00000  -0.00001  -0.00001   0.00817
 126        5PY         0.00000  -0.00002  -0.00006  -0.00005   0.50418
 127        5PZ         0.00064  -0.12824   0.21941  -0.20733   0.00000
 128        6D 0       -0.00000  -0.00000   0.00000   0.00000  -0.00441
 129        6D+1       -0.01064   0.01040   0.00070   0.01479   0.00000
 130        6D-1       -0.01670   0.01240   0.01469   0.01691   0.00000
 131        6D+2       -0.00000  -0.00000   0.00000   0.00000  -0.00305
 132        6D-2        0.00000  -0.00000   0.00000  -0.00000   0.00434
 133 7   C  1S          0.00000   0.00000   0.00000   0.00000  -0.00578
 134        2S          0.00000   0.00000   0.00000   0.00000  -0.00962
 135        2PX        -0.00000   0.00000  -0.00000   0.00000  -0.00914
 136        2PY         0.00000   0.00000   0.00000  -0.00000  -0.00137
 137        2PZ         0.09576  -0.03913  -0.09772  -0.04798  -0.00000
 138        3S         -0.00000  -0.00000  -0.00000  -0.00000   0.02816
 139        3PX        -0.00000   0.00000  -0.00000   0.00000  -0.01475
 140        3PY         0.00000   0.00000   0.00000  -0.00000  -0.00395
 141        3PZ         0.15677  -0.06123  -0.15557  -0.07554  -0.00000
 142        4S          0.00000   0.00000  -0.00000   0.00000   0.12753
 143        4PX         0.00000   0.00000  -0.00000   0.00000  -0.00593
 144        4PY         0.00000  -0.00000  -0.00000  -0.00000   0.01019
 145        4PZ         0.18425  -0.11037  -0.26125  -0.13540  -0.00000
 146        5S          0.00000   0.00002   0.00004   0.00004   0.22563
 147        5PX        -0.00000   0.00001   0.00003   0.00003  -0.37991
 148        5PY         0.00001  -0.00003  -0.00009  -0.00007   0.46396
 149        5PZ         0.05909  -0.08961  -0.21814  -0.14314  -0.00001
 150        6D 0       -0.00000  -0.00000   0.00000   0.00000  -0.00419
 151        6D+1       -0.00208   0.01161  -0.00153   0.01572   0.00000
 152        6D-1        0.00057  -0.01608   0.01636  -0.02072  -0.00000
 153        6D+2        0.00000   0.00000  -0.00000   0.00000  -0.00235
 154        6D-2        0.00000   0.00000   0.00000   0.00000  -0.00467
 155 8   C  1S          0.00000   0.00000  -0.00000   0.00000  -0.00695
 156        2S          0.00000   0.00000  -0.00000   0.00000  -0.01177
 157        2PX         0.00000   0.00000   0.00000   0.00000  -0.00354
 158        2PY         0.00000   0.00000  -0.00000   0.00000  -0.01644
 159        2PZ        -0.00463   0.08951  -0.00906   0.11400   0.00000
 160        3S         -0.00000  -0.00000   0.00000  -0.00000   0.03791
 161        3PX         0.00000  -0.00000  -0.00000  -0.00000  -0.00332
 162        3PY         0.00000   0.00000   0.00000   0.00000  -0.02402
 163        3PZ        -0.00666   0.13764  -0.01413   0.18098   0.00000
 164        4S         -0.00000  -0.00000   0.00000   0.00000   0.04361
 165        4PX         0.00000   0.00000   0.00000   0.00001  -0.02625
 166        4PY        -0.00000  -0.00000   0.00000   0.00000  -0.08360
 167        4PZ        -0.00508   0.26281  -0.03841   0.32840   0.00000
 168        5S         -0.00000   0.00003   0.00011   0.00010  -1.87607
 169        5PX        -0.00001   0.00006   0.00015   0.00013  -1.16758
 170        5PY         0.00000  -0.00001  -0.00002  -0.00001  -0.49088
 171        5PZ         0.01155   0.19553  -0.05959   0.37968   0.00001
 172        6D 0       -0.00000  -0.00000   0.00000  -0.00000  -0.00605
 173        6D+1       -0.01979  -0.00122   0.02707  -0.00313   0.00000
 174        6D-1       -0.00187  -0.00839   0.00011  -0.00972   0.00000
 175        6D+2       -0.00000  -0.00000  -0.00000  -0.00000   0.00179
 176        6D-2        0.00000   0.00000   0.00000   0.00000   0.00153
 177 9   C  1S         -0.00000   0.00000   0.00000   0.00000  -0.01405
 178        2S         -0.00000   0.00000   0.00000   0.00000  -0.02363
 179        2PX         0.00000  -0.00000   0.00000  -0.00000   0.00111
 180        2PY        -0.00000   0.00000   0.00000   0.00000  -0.03072
 181        2PZ         0.02874  -0.01321   0.00358  -0.00110   0.00000
 182        3S          0.00000   0.00000  -0.00000   0.00000   0.06174
 183        3PX         0.00000  -0.00000   0.00000  -0.00000   0.00183
 184        3PY         0.00000   0.00000   0.00000   0.00000  -0.04655
 185        3PZ         0.03832  -0.02020   0.00509  -0.00170   0.00000
 186        4S          0.00000  -0.00001  -0.00005  -0.00002   0.43422
 187        4PX        -0.00000   0.00000  -0.00000  -0.00000   0.01095
 188        4PY        -0.00000   0.00000   0.00001   0.00000  -0.02389
 189        4PZ         0.07603  -0.10803   0.03292  -0.00003   0.00000
 190        5S          0.00000  -0.00003  -0.00016  -0.00014   0.84602
 191        5PX        -0.00001   0.00002   0.00001   0.00001  -0.20851
 192        5PY         0.00000  -0.00000  -0.00002  -0.00002  -0.46692
 193        5PZ         0.13064  -0.43415   0.11397  -0.01236   0.00000
 194        6D 0        0.00000   0.00000   0.00000  -0.00000  -0.00875
 195        6D+1        0.00179  -0.00433  -0.02440   0.01289  -0.00000
 196        6D-1       -0.01951  -0.02887   0.00365  -0.00133  -0.00000
 197        6D+2       -0.00000  -0.00000   0.00000   0.00000   0.00243
 198        6D-2        0.00000   0.00000  -0.00000   0.00000  -0.00029
 199 10  C  1S         -0.00000  -0.00000   0.00000   0.00000  -0.01068
 200        2S         -0.00000  -0.00000   0.00000   0.00000  -0.01819
 201        2PX        -0.00000  -0.00000   0.00000  -0.00000   0.00083
 202        2PY        -0.00000   0.00000   0.00000  -0.00000   0.02375
 203        2PZ         0.17238   0.01562   0.01617   0.00829   0.00000
 204        3S          0.00000  -0.00000  -0.00000  -0.00000   0.06067
 205        3PX        -0.00000  -0.00000   0.00000  -0.00000   0.00132
 206        3PY         0.00000  -0.00000  -0.00000  -0.00000   0.03329
 207        3PZ         0.28045   0.02257   0.02669   0.01310   0.00000
 208        4S         -0.00000   0.00000   0.00002   0.00001   0.06874
 209        4PX        -0.00000  -0.00000   0.00000   0.00000  -0.00436
 210        4PY         0.00000  -0.00000  -0.00001  -0.00000   0.20736
 211        4PZ         0.34849   0.07120   0.04356   0.02866   0.00000
 212        5S          0.00000  -0.00002  -0.00013  -0.00011   1.55472
 213        5PX         0.00000   0.00003  -0.00002  -0.00001  -0.20419
 214        5PY         0.00000  -0.00000  -0.00001  -0.00000   1.95631
 215        5PZ         0.09844   0.32943  -0.00358   0.05873   0.00000
 216        6D 0        0.00000  -0.00000  -0.00000  -0.00000  -0.00746
 217        6D+1       -0.00064   0.00451   0.03014   0.00745   0.00000
 218        6D-1        0.00086   0.01306  -0.00076   0.00185   0.00000
 219        6D+2       -0.00000   0.00000   0.00000  -0.00000   0.00105
 220        6D-2        0.00000   0.00000  -0.00000  -0.00000   0.00017
 221 11  C  1S         -0.00000  -0.00000   0.00000  -0.00000  -0.00572
 222        2S         -0.00000  -0.00000   0.00000  -0.00000  -0.00984
 223        2PX        -0.00000  -0.00000   0.00000  -0.00000   0.00274
 224        2PY        -0.00000  -0.00000   0.00000  -0.00000   0.00937
 225        2PZ        -0.08146  -0.10103  -0.08168   0.06956  -0.00000
 226        3S          0.00000   0.00000  -0.00000  -0.00000   0.03948
 227        3PX        -0.00000  -0.00000   0.00000  -0.00000   0.00406
 228        3PY        -0.00000  -0.00000   0.00000  -0.00000   0.01319
 229        3PZ        -0.13126  -0.15670  -0.12795   0.11347  -0.00000
 230        4S          0.00001   0.00001   0.00001   0.00000  -0.02315
 231        4PX        -0.00000  -0.00001  -0.00001  -0.00001   0.12501
 232        4PY        -0.00000  -0.00000  -0.00001  -0.00000   0.01023
 233        4PZ        -0.16999  -0.26693  -0.25543   0.18385  -0.00000
 234        5S         -0.00000   0.00005   0.00022   0.00016  -3.61882
 235        5PX         0.00000  -0.00003  -0.00005  -0.00005   0.75006
 236        5PY        -0.00001  -0.00001   0.00026   0.00020  -2.21377
 237        5PZ        -0.10241  -0.01439  -0.38764   0.23545  -0.00000
 238        6D 0        0.00000   0.00000   0.00000  -0.00000  -0.00761
 239        6D+1       -0.00415   0.01797  -0.00287  -0.01345  -0.00000
 240        6D-1       -0.00508  -0.01076   0.01902   0.01446   0.00000
 241        6D+2        0.00000   0.00000   0.00000  -0.00000  -0.00547
 242        6D-2       -0.00000  -0.00000   0.00000   0.00000   0.00150
 243 12  C  1S          0.00000   0.00000   0.00000   0.00000  -0.00636
 244        2S          0.00000   0.00000   0.00000   0.00000  -0.01083
 245        2PX         0.00000   0.00000   0.00000   0.00000   0.00051
 246        2PY         0.00000   0.00000   0.00000   0.00000  -0.01040
 247        2PZ        -0.02039   0.00275   0.10208   0.04343   0.00000
 248        3S         -0.00000  -0.00000  -0.00000  -0.00000   0.03752
 249        3PX         0.00000   0.00000  -0.00000  -0.00000   0.00343
 250        3PY         0.00000   0.00000   0.00000   0.00000  -0.01436
 251        3PZ        -0.03246   0.01031   0.16039   0.07415   0.00000
 252        4S          0.00000  -0.00000   0.00000  -0.00000   0.12718
 253        4PX         0.00000   0.00000   0.00001   0.00001  -0.14864
 254        4PY         0.00000   0.00000  -0.00000   0.00000  -0.08148
 255        4PZ        -0.04114  -0.02320   0.31477   0.10692   0.00000
 256        5S          0.00000  -0.00004  -0.00035  -0.00027   5.23297
 257        5PX        -0.00000   0.00003  -0.00004  -0.00002  -0.64629
 258        5PY        -0.00001   0.00000   0.00017   0.00013  -3.52519
 259        5PZ        -0.00373  -0.22749   0.43585   0.09389   0.00001
 260        6D 0       -0.00000  -0.00000   0.00000   0.00000  -0.00810
 261        6D+1       -0.02555   0.01341  -0.00972  -0.01478  -0.00000
 262        6D-1        0.01551   0.02646   0.01138  -0.01846   0.00000
 263        6D+2        0.00000  -0.00000  -0.00000   0.00000  -0.00439
 264        6D-2        0.00000   0.00000   0.00000   0.00000  -0.00275
 265 13  C  1S          0.00000   0.00000  -0.00000   0.00000  -0.00641
 266        2S          0.00000   0.00000  -0.00000   0.00000  -0.01101
 267        2PX        -0.00000  -0.00000   0.00000   0.00000  -0.00193
 268        2PY         0.00000   0.00000  -0.00000   0.00000   0.00985
 269        2PZ        -0.09372  -0.05942   0.10722  -0.07569   0.00000
 270        3S         -0.00000  -0.00000  -0.00000  -0.00000   0.04357
 271        3PX        -0.00000  -0.00000   0.00000  -0.00000  -0.00242
 272        3PY         0.00000   0.00000  -0.00000  -0.00000   0.01466
 273        3PZ        -0.15100  -0.09199   0.16806  -0.12335   0.00000
 274        4S         -0.00001  -0.00001   0.00001  -0.00000   0.00201
 275        4PX        -0.00000  -0.00000   0.00001   0.00001  -0.11112
 276        4PY         0.00000   0.00000  -0.00001   0.00000  -0.00365
 277        4PZ        -0.19753  -0.15379   0.31675  -0.21323   0.00000
 278        5S         -0.00001   0.00002   0.00023   0.00016  -4.08566
 279        5PX        -0.00000  -0.00001   0.00009   0.00006  -1.13653
[...]
 184        3PY         0.52922
 185        3PZ         0.53419
 186        4S          0.42811
 187        4PX         0.16199
 188        4PY         0.27395
 189        4PZ         0.39772
 190        5S          0.34495
 191        5PX        -0.26713
 192        5PY         0.03731
 193        5PZ        -0.02769
 194        6D 0        0.00832
 195        6D+1        0.00844
 196        6D-1        0.01217
 197        6D+2        0.01203
 198        6D-2        0.01356
 199 10  C  1S          1.10550
 200        2S          0.88523
 201        2PX         0.24234
 202        2PY         0.24071
 203        2PZ         0.11421
 204        3S          0.80044
 205        3PX         0.55208
 206        3PY         0.55000
 207        3PZ         0.30961
 208        4S          0.41220
 209        4PX         0.15692
 210        4PY         0.34572
 211        4PZ         0.25610
 212        5S          0.03376
 213        5PX        -0.38256
 214        5PY         0.19884
 215        5PZ         0.04218
 216        6D 0        0.00298
 217        6D+1        0.01277
 218        6D-1        0.00357
 219        6D+2        0.02115
 220        6D-2        0.01515
 221 11  C  1S          1.10531
 222        2S          0.88559
 223        2PX         0.22874
 224        2PY         0.23514
 225        2PZ         0.15374
 226        3S          0.76633
 227        3PX         0.53070
 228        3PY         0.53118
 229        3PZ         0.40383
 230        4S          0.41292
 231        4PX         0.27180
 232        4PY         0.21589
 233        4PZ         0.33072
 234        5S          0.12488
 235        5PX        -0.29064
 236        5PY         0.62833
 237        5PZ         0.01559
 238        6D 0        0.00394
 239        6D+1        0.00927
 240        6D-1        0.01099
 241        6D+2        0.02070
 242        6D-2        0.02082
 243 12  C  1S          1.10520
 244        2S          0.88562
 245        2PX         0.22951
 246        2PY         0.23526
 247        2PZ         0.17469
 248        3S          0.75252
 249        3PX         0.52477
 250        3PY         0.53338
 251        3PZ         0.46100
 252        4S          0.36785
 253        4PX         0.14481
 254        4PY         0.19242
 255        4PZ         0.39557
 256        5S         -0.51809
 257        5PX        -0.47064
 258        5PY         0.29939
 259        5PZ        -0.06154
 260        6D 0        0.00445
 261        6D+1        0.00741
 262        6D-1        0.00944
 263        6D+2        0.02279
 264        6D-2        0.02273
 265 13  C  1S          1.10532
 266        2S          0.88552
 267        2PX         0.23558
 268        2PY         0.23232
 269        2PZ         0.15078
 270        3S          0.76972
 271        3PX         0.53580
 272        3PY         0.53141
 273        3PZ         0.39788
 274        4S          0.40040
 275        4PX         0.26475
 276        4PY         0.22329
 277        4PZ         0.31883
 278        5S          0.15180
 279        5PX        -0.26954
 280        5PY         0.62225
 281        5PZ         0.01224
 282        6D 0        0.00387
 283        6D+1        0.01036
 284        6D-1        0.01017
 285        6D+2        0.02217
 286        6D-2        0.02056
 287 14  C  1S          1.10521
 288        2S          0.88565
 289        2PX         0.23232
 290        2PY         0.23089
 291        2PZ         0.17378
 292        3S          0.75267
 293        3PX         0.52804
 294        3PY         0.53030
 295        3PZ         0.45861
 296        4S          0.37928
 297        4PX         0.15489
 298        4PY         0.19530
 299        4PZ         0.39662
 300        5S         -0.57229
 301        5PX        -0.46609
 302        5PY         0.30762
 303        5PZ        -0.05997
 304        6D 0        0.00447
 305        6D+1        0.00729
 306        6D-1        0.00847
 307        6D+2        0.02271
 308        6D-2        0.02226
 309 15  H  1S          0.27362
 310        2S          0.46400
 311        3S          0.03458
 312        4S         -0.03202
 313        5PX         0.00332
 314        5PY         0.01471
 315        5PZ         0.00471
 316 16  H  1S          0.27368
 317        2S          0.46302
 318        3S          0.01464
 319        4S         -0.02755
 320        5PX         0.01258
 321        5PY         0.00643
 322        5PZ         0.00393
 323 17  H  1S          0.27319
 324        2S          0.46314
 325        3S          0.02103
 326        4S         -0.02777
 327        5PX         0.01173
 328        5PY         0.00666
 329        5PZ         0.00452
 330 18  H  1S          0.27343
 331        2S          0.46507
 332        3S          0.03714
 333        4S         -0.01948
 334        5PX         0.00343
 335        5PY         0.01499
 336        5PZ         0.00452
 337 19  H  1S          0.27263
 338        2S          0.45390
 339        3S          0.01719
 340        4S          0.04249
 341        5PX         0.00338
 342        5PY         0.01638
 343        5PZ         0.00289
 344 20  H  1S          0.27366
 345        2S          0.46482
 346        3S          0.03298
 347        4S         -0.01970
 348        5PX         0.00346
 349        5PY         0.01524
 350        5PZ         0.00430
 351 21  H  1S          0.27332
 352        2S          0.46276
 353        3S          0.01837
 354        4S         -0.02929
 355        5PX         0.01227
 356        5PY         0.00633
 357        5PZ         0.00446
 358 22  H  1S          0.27325
 359        2S          0.46161
 360        3S          0.01051
 361        4S         -0.02909
 362        5PX         0.01252
 363        5PY         0.00650
 364        5PZ         0.00369
 365 23  H  1S          0.27327
 366        2S          0.46351
 367        3S          0.03139
 368        4S         -0.03096
 369        5PX         0.00338
 370        5PY         0.01498
 371        5PZ         0.00459
 372 24  H  1S          0.26350
 373        2S          0.42804
 374        3S          0.01134
 375        4S          0.02741
 376        5PX         0.00342
 377        5PY         0.00769
 378        5PZ         0.00922
 379 25  H  1S          0.26350
 380        2S          0.42804
 381        3S          0.01134
 382        4S          0.02741
 383        5PX         0.00342
 384        5PY         0.00769
 385        5PZ         0.00922
          Condensed to atoms (all electrons):
               1          2          3          4          5          6
     1  C    8.770159   0.112661  -0.431029   2.113455  -0.064319  -0.100728
     2  C    0.112661   7.147668   0.239602  -1.127122   0.008489  -0.013631
     3  C   -0.431029   0.239602   6.572604   0.828069  -0.135877   0.016341
     4  C    2.113455  -1.127122   0.828069  10.519409  -0.378207  -0.112700
     5  C   -0.064319   0.008489  -0.135877  -0.378207  11.507338   0.744779
     6  C   -0.100728  -0.013631   0.016341  -0.112700   0.744779   6.596857
     7  C   -0.006182  -0.000016  -0.013598  -0.029891  -1.071246   0.413913
     8  C    0.399116  -0.023762  -0.086767  -0.021743   1.853151  -0.588740
     9  C   -1.120242  -0.772888   0.301795  -0.344614   0.006895   0.289359
    10  C   -1.331384   0.323893  -0.422508  -2.407587  -2.681697  -0.286647
    11  C    0.321838  -1.007536   1.130241  -0.195255  -1.558177  -0.227100
    12  C   -2.397616   1.642263  -1.485887  -1.577706  -0.474229  -0.122089
    13  C    0.246679  -0.298961  -0.104048  -1.381579  -0.431293   0.872062
    14  C   -1.008431  -0.101657  -0.280848  -0.223693  -1.698418  -1.362748
    15  H    0.369147  -0.108868   0.001963   0.028204   0.004811   0.001022
    16  H   -0.017963   0.376641  -0.015344   0.011056  -0.001393  -0.000309
    17  H   -0.031138  -0.009911   0.369353  -0.065831   0.000374   0.000392
    18  H    0.051643   0.003244  -0.083901   0.448749   0.005900  -0.005146
    19  H   -0.046950  -0.008372   0.052068  -0.056934  -0.080548   0.049523
    20  H    0.007027   0.002098  -0.005075   0.005669   0.466702  -0.084450
    21  H   -0.001335  -0.000376   0.000396   0.000211  -0.067597   0.378845
    22  H    0.000996   0.000386  -0.000333  -0.001577   0.015544  -0.020433
    23  H    0.004882  -0.002805   0.001134   0.006057   0.026942  -0.002640
    24  H    0.029577   0.013191  -0.001667  -0.012163  -0.011665  -0.001499
    25  H    0.029574   0.013190  -0.001668  -0.012160  -0.011667  -0.001500
               7          8          9         10         11         12
     1  C   -0.006182   0.399116  -1.120242  -1.331384   0.321838  -2.397616
     2  C   -0.000016  -0.023762  -0.772888   0.323893  -1.007536   1.642263
     3  C   -0.013598  -0.086767   0.301795  -0.422508   1.130241  -1.485887
     4  C   -0.029891  -0.021743  -0.344614  -2.407587  -0.195255  -1.577706
     5  C   -1.071246   1.853151   0.006895  -2.681697  -1.558177  -0.474229
     6  C    0.413913  -0.588740   0.289359  -0.286647  -0.227100  -0.122089
     7  C    7.169556   0.413018  -0.866337   0.196995  -0.211430  -0.253841
     8  C    0.413018   8.388186  -1.086213  -1.213620   0.230422  -1.145517
     9  C   -0.866337  -1.086213   9.557148   0.234958   1.498630  -1.705718
    10  C    0.196995  -1.213620   0.234958   9.055702  -0.526738   2.440419
    11  C   -0.211430   0.230422   1.498630  -0.526738  14.151540  -3.463786
    12  C   -0.253841  -1.145517  -1.705718   2.440419  -3.463786  15.795205
    13  C   -0.779142   0.337426   1.530206  -0.278023   1.070466  -4.817174
    14  C    1.159862  -1.947521  -2.092260   2.357947  -4.630632   3.092597
    15  H   -0.002358   0.006242   0.091971  -0.010766  -0.029212  -0.034811
    16  H    0.000329   0.000511   0.003280  -0.008384   0.024227  -0.030399
    17  H   -0.000397  -0.001269  -0.006203   0.020630  -0.029876   0.098358
    18  H    0.002026   0.006792  -0.025630   0.016440  -0.004758  -0.060790
    19  H   -0.007280  -0.043702   0.073106   0.419790   0.080550  -0.043974
    20  H    0.003138   0.048248  -0.022330   0.008152  -0.011924  -0.021682
    21  H   -0.022210  -0.020480  -0.004809   0.019164  -0.006211   0.005194
    22  H    0.380004  -0.019184   0.003116  -0.009559   0.003490  -0.010036
    23  H   -0.106389   0.367605   0.089807  -0.008592  -0.002033   0.007658
    24  H    0.015433   0.036412   0.355548   0.005149   0.004517  -0.058945
    25  H    0.015432   0.036404   0.355554   0.005150   0.004513  -0.058943
              13         14         15         16         17         18
     1  C    0.246679  -1.008431   0.369147  -0.017963  -0.031138   0.051643
     2  C   -0.298961  -0.101657  -0.108868   0.376641  -0.009911   0.003244
     3  C   -0.104048  -0.280848   0.001963  -0.015344   0.369353  -0.083901
     4  C   -1.381579  -0.223693   0.028204   0.011056  -0.065831   0.448749
     5  C   -0.431293  -1.698418   0.004811  -0.001393   0.000374   0.005900
     6  C    0.872062  -1.362748   0.001022  -0.000309   0.000392  -0.005146
     7  C   -0.779142   1.159862  -0.002358   0.000329  -0.000397   0.002026
     8  C    0.337426  -1.947521   0.006242   0.000511  -0.001269   0.006792
     9  C    1.530206  -2.092260   0.091971   0.003280  -0.006203  -0.025630
    10  C   -0.278023   2.357947  -0.010766  -0.008384   0.020630   0.016440
    11  C    1.070466  -4.630632  -0.029212   0.024227  -0.029876  -0.004758
    12  C   -4.817174   3.092597  -0.034811  -0.030399   0.098358  -0.060790
    13  C   14.523585  -3.925448   0.006370   0.002402  -0.006199  -0.011661
    14  C   -3.925448  16.183595   0.004868  -0.007791   0.004980  -0.007021
    15  H    0.006370   0.004868   0.443083  -0.009157   0.001387   0.000075
    16  H    0.002402  -0.007791  -0.009157   0.422744  -0.006242   0.001873
    17  H   -0.006199   0.004980   0.001387  -0.006242   0.423330  -0.010082
    18  H   -0.011661  -0.007021   0.000075   0.001873  -0.010082   0.456470
    19  H    0.074722  -0.086518   0.000256  -0.000518   0.001242  -0.006547
    20  H   -0.009508  -0.048693  -0.000105   0.000013  -0.000128   0.001252
    21  H   -0.022511   0.083528   0.000012  -0.000007   0.000010  -0.000156
    22  H    0.026713  -0.032793  -0.000126   0.000007  -0.000007   0.000018
    23  H   -0.032348  -0.015672   0.000557  -0.000124   0.000016  -0.000116
    24  H    0.021373  -0.059608  -0.000830   0.000640  -0.000145   0.000210
    25  H    0.021375  -0.059598  -0.000830   0.000641  -0.000145   0.000210
              19         20         21         22         23         24
     1  C   -0.046950   0.007027  -0.001335   0.000996   0.004882   0.029577
     2  C   -0.008372   0.002098  -0.000376   0.000386  -0.002805   0.013191
     3  C    0.052068  -0.005075   0.000396  -0.000333   0.001134  -0.001667
     4  C   -0.056934   0.005669   0.000211  -0.001577   0.006057  -0.012163
     5  C   -0.080548   0.466702  -0.067597   0.015544   0.026942  -0.011665
     6  C    0.049523  -0.084450   0.378845  -0.020433  -0.002640  -0.001499
     7  C   -0.007280   0.003138  -0.022210   0.380004  -0.106389   0.015433
     8  C   -0.043702   0.048248  -0.020480  -0.019184   0.367605   0.036412
     9  C    0.073106  -0.022330  -0.004809   0.003116   0.089807   0.355548
    10  C    0.419790   0.008152   0.019164  -0.009559  -0.008592   0.005149
    11  C    0.080550  -0.011924  -0.006211   0.003490  -0.002033   0.004517
    12  C   -0.043974  -0.021682   0.005194  -0.010036   0.007658  -0.058945
    13  C    0.074722  -0.009508  -0.022511   0.026713  -0.032348   0.021373
    14  C   -0.086518  -0.048693   0.083528  -0.032793  -0.015672  -0.059608
    15  H    0.000256  -0.000105   0.000012  -0.000126   0.000557  -0.000830
    16  H   -0.000518   0.000013  -0.000007   0.000007  -0.000124   0.000640
    17  H    0.001242  -0.000128   0.000010  -0.000007   0.000016  -0.000145
    18  H   -0.006547   0.001252  -0.000156   0.000018  -0.000116   0.000210
    19  H    0.442394  -0.005974   0.001579  -0.000546   0.000360   0.000564
    20  H   -0.005974   0.450072  -0.010259   0.001960   0.000246   0.000154
    21  H    0.001579  -0.010259   0.420649  -0.006689   0.001530  -0.000135
    22  H   -0.000546   0.001960  -0.006689   0.415576  -0.008775   0.000624
    23  H    0.000360   0.000246   0.001530  -0.008775   0.434805  -0.000977
    24  H    0.000564   0.000154  -0.000135   0.000624  -0.000977   0.493210
    25  H    0.000564   0.000154  -0.000135   0.000624  -0.000977  -0.078344
              25
     1  C    0.029574
     2  C    0.013190
     3  C   -0.001668
     4  C   -0.012160
     5  C   -0.011667
     6  C   -0.001500
     7  C    0.015432
     8  C    0.036404
     9  C    0.355554
    10  C    0.005150
    11  C    0.004513
    12  C   -0.058943
    13  C    0.021375
    14  C   -0.059598
    15  H   -0.000830
    16  H    0.000641
    17  H   -0.000145
    18  H    0.000210
    19  H    0.000564
    20  H    0.000154
    21  H   -0.000135
    22  H    0.000624
    23  H   -0.000977
    24  H   -0.078344
    25  H    0.493206
 Mulliken charges:
               1
     1  C    0.100564
     2  C   -0.407421
     3  C   -0.445014
     4  C   -0.012116
     5  C    0.025409
     6  C   -0.432732
     7  C   -0.399389
     8  C    0.074983
     9  C   -0.344127
    10  C    0.081114
    11  C   -0.615767
    12  C    0.681449
    13  C   -0.635483
    14  C    0.701975
    15  H    0.237096
    16  H    0.253266
    17  H    0.247501
    18  H    0.220908
    19  H    0.191145
    20  H    0.225244
    21  H    0.251793
    22  H    0.261000
    23  H    0.239847
    24  H    0.249378
    25  H    0.249376
 Sum of Mulliken charges =   1.00000
 Mulliken charges with hydrogens summed into heavy atoms:
               1
     1  C    0.337661
     2  C   -0.154154
     3  C   -0.197513
     4  C    0.208792
     5  C    0.250653
     6  C   -0.180939
     7  C   -0.138390
     8  C    0.314831
     9  C    0.154627
    10  C    0.272259
    11  C   -0.615767
    12  C    0.681449
    13  C   -0.635483
    14  C    0.701975
 Electronic spatial extent (au):  <R**2>=           2868.9273
 Charge=              1.0000 electrons
 Dipole moment (field-independent basis, Debye):
    X=             -0.8132    Y=              0.1838    Z=              0.0000  Tot=              0.8338
 Quadrupole moment (field-independent basis, Debye-Ang):
   XX=            -30.8158   YY=            -56.1890   ZZ=            -84.2711
   XY=             -0.0664   XZ=             -0.0001   YZ=             -0.0000
 Traceless Quadrupole moment (field-independent basis, Debye-Ang):
   XX=             26.2762   YY=              0.9030   ZZ=            -27.1792
   XY=             -0.0664   XZ=             -0.0001   YZ=             -0.0000
 Octapole moment (field-independent basis, Debye-Ang**2):
  XXX=             -9.0435  YYY=              5.3661  ZZZ=              0.0000  XYY=             -1.9051
  XXY=             -5.2855  XXZ=             -0.0000  XZZ=             -1.1820  YZZ=             -3.1466
  YYZ=              0.0000  XYZ=              0.0002
 Hexadecapole moment (field-independent basis, Debye-Ang**3):
 XXXX=          -2127.2143 YYYY=           -611.8302 ZZZZ=            -99.6988 XXXY=              1.8650
 XXXZ=              0.0004 YYYX=             -0.7479 YYYZ=             -0.0000 ZZZX=              0.0001
 ZZZY=             -0.0000 XXYY=           -509.2805 XXZZ=           -594.4130 YYZZ=           -146.5081
 XXYZ=              0.0000 YYXZ=             -0.0004 ZZXY=             -0.3789
 N-N= 7.793216105942D+02 E-N=-2.794877594228D+03  KE= 5.373529569831D+02
 Orbital energies and kinetic energies (alpha):
                                 1                 2
  43         O                -0.544950          1.579937
  44         O                -0.523306          1.038243
  45         O                -0.469604          1.129983
  46         O                -0.460394          1.150660
  47         O                -0.440299          1.158594
  48         V                -0.261195          1.267297
  49         V                -0.147213          1.102757
  50         V                -0.141191          1.314182
  51         V                -0.128318          1.280317
  52         V                -0.111737          0.204322
 Total kinetic energy from orbitals= 5.373529569831D+02
 Unable to Open any file for archive entry.
 1\1\GINC-GADI-CPU-CLX-1686\SP\RM062X TD-FC\6-311++G(d,p)\C14H11(1+)\TS
 1578\14-Jul-2022\0\\#n M062X/6-311++G(d,p) TD SP pop=reg formcheck\\SP
 _9\\1,1\C,0,2.5152011202,1.3729846533,0.\C,0,3.7277790398,0.6895338039
 ,0.\C,0,3.7021019696,-0.6918761059,0.\C,0,2.4490597743,-1.3950192162,0
 .\C,0,-2.4887602257,-1.410345437,0.\C,0,-3.6830826836,-0.722620874,0.\
 C,0,-3.6923256135,0.6753155027,0.\C,0,-2.4822405129,1.3726153467,0.\C,
 0,0.0076631104,1.4673262864,0.\C,0,-0.0288982355,-1.4246223266,0.\C,0,
 1.2550180304,0.6757891711,0.\C,0,1.2332661961,-0.7215211407,0.\C,0,-1.
 2743142963,0.698593849,0.\C,0,-1.2477614772,-0.7254911859,0.\H,0,2.500
 1902913,2.4585916332,0.\H,0,4.6642204268,1.2295775174,0.\H,0,4.6217988
 593,-1.264835794,0.\H,0,2.4638033771,-2.4803055027,0.\H,0,-0.024651210
 5,-2.5077546533,0.\H,0,-2.4833766229,-2.4945238039,0.\H,0,-4.618105794
 ,-1.2685288593,0.\H,0,-4.6303365531,1.2164671358,0.\H,0,-2.4898497087,
 2.4577606935,0.\H,0,0.0425625769,2.1565876734,-0.8640469799\H,0,0.0426
 549036,2.1565876734,0.8640469799\\Version=ES64L-G16RevC.01\State=1-A\H
 F=-539.7554279\RMSD=8.768e-09\PG=C01 [X(C14H11)]\\@
 The archive entry for this job was punched.


 E PUR SI MUOVE    -- GALILEO GALILEI
 FChkPn:  Coordinates translated and rotated.
 FChkPn:  Coordinates match /B/ after translation and rotation.
 Job cpu time:       0 days  1 hours 13 minutes 52.4 seconds.
 Elapsed time:       0 days  0 hours 10 minutes  9.5 seconds.
 File lengths (MBytes):  RWF=    532 Int=      0 D2E=      0 Chk=     24 Scr=      1
 Normal termination of Gaussian 16 at Thu Jul 14 14:07:09 2022.
