 Entering Gaussian System, Link 0=g16
 Initial command:
 /apps/gaussian/g16c01/g16/l1.exe "/jobfs/51120181.gadi-pbs/Gau-3711682.inp" -scrdir="/jobfs/51120181.gadi-pbs/"
 Entering Link 1 = /apps/gaussian/g16c01/g16/l1.exe PID=   3711749.
  
 Copyright (c) 1988-2019, Gaussian, Inc.  All Rights Reserved.
  
 This is part of the Gaussian(R) 16 program.  It is based on
 the Gaussian(R) 09 system (copyright 2009, Gaussian, Inc.),
 the Gaussian(R) 03 system (copyright 2003, Gaussian, Inc.),
 the Gaussian(R) 98 system (copyright 1998, Gaussian, Inc.),
 the Gaussian(R) 94 system (copyright 1995, Gaussian, Inc.),
 the Gaussian 92(TM) system (copyright 1992, Gaussian, Inc.),
 the Gaussian 90(TM) system (copyright 1990, Gaussian, Inc.),
 the Gaussian 88(TM) system (copyright 1988, Gaussian, Inc.),
 the Gaussian 86(TM) system (copyright 1986, Carnegie Mellon
 University), and the Gaussian 82(TM) system (copyright 1983,
 Carnegie Mellon University). Gaussian is a federally registered
 trademark of Gaussian, Inc.
  
 This software contains proprietary and confidential information,
 including trade secrets, belonging to Gaussian, Inc.
  
 This software is provided under written license and may be
 used, copied, transmitted, or stored only in accord with that
 written license.
  
 The following legend is applicable only to US Government
 contracts under FAR:
  
                    RESTRICTED RIGHTS LEGEND
  
 Use, reproduction and disclosure by the US Government is
 subject to restrictions as set forth in subparagraphs (a)
 and (c) of the Commercial Computer Software - Restricted
 Rights clause in FAR 52.227-19.
  
 Gaussian, Inc.
 340 Quinnipiac St., Bldg. 40, Wallingford CT 06492
  
  
 ---------------------------------------------------------------
 Warning -- This program may not be used in any manner that
 competes with the business of Gaussian, Inc. or will provide
 assistance to any competitor of Gaussian, Inc.  The licensee
 of this program is prohibited from giving any competitor of
 Gaussian, Inc. access to this program.  By using this program,
 the user acknowledges that Gaussian, Inc. is engaged in the
 business of creating and licensing software in the field of
 computational chemistry and represents and warrants to the
 licensee that it is not a competitor of Gaussian, Inc. and that
 it will not use this program in any manner prohibited above.
 ---------------------------------------------------------------
  

 Cite this work as:
 Gaussian 16, Revision C.01,
 M. J. Frisch, G. W. Trucks, H. B. Schlegel, G. E. Scuseria, 
 M. A. Robb, J. R. Cheeseman, G. Scalmani, V. Barone, 
 G. A. Petersson, H. Nakatsuji, X. Li, M. Caricato, A. V. Marenich, 
 J. Bloino, B. G. Janesko, R. Gomperts, B. Mennucci, H. P. Hratchian, 
 J. V. Ortiz, A. F. Izmaylov, J. L. Sonnenberg, D. Williams-Young, 
 F. Ding, F. Lipparini, F. Egidi, J. Goings, B. Peng, A. Petrone, 
 T. Henderson, D. Ranasinghe, V. G. Zakrzewski, J. Gao, N. Rega, 
 G. Zheng, W. Liang, M. Hada, M. Ehara, K. Toyota, R. Fukuda, 
 J. Hasegawa, M. Ishida, T. Nakajima, Y. Honda, O. Kitao, H. Nakai, 
 T. Vreven, K. Throssell, J. A. Montgomery, Jr., J. E. Peralta, 
 F. Ogliaro, M. J. Bearpark, J. J. Heyd, E. N. Brothers, K. N. Kudin, 
 V. N. Staroverov, T. A. Keith, R. Kobayashi, J. Normand, 
 K. Raghavachari, A. P. Rendell, J. C. Burant, S. S. Iyengar, 
 J. Tomasi, M. Cossi, J. M. Millam, M. Klene, C. Adamo, R. Cammi, 
 J. W. Ochterski, R. L. Martin, K. Morokuma, O. Farkas, 
 J. B. Foresman, and D. J. Fox, Gaussian, Inc., Wallingford CT, 2019.
 
 ******************************************
 Gaussian 16:  ES64L-G16RevC.01  3-Jul-2019
                14-Jul-2022 
 ******************************************
 %NProcShared=8
 Will use up to    8 processors via shared memory.
 %mem = 32GB
 %Chk=check_sp_1
 ----------------------------------------------
 #n M062X/6-311++G(d,p) TD SP pop=reg formcheck
 ----------------------------------------------
 1/38=1,172=1/1;
 2/12=2,17=6,18=5,40=1/2;
 3/5=4,6=6,7=1111,11=9,25=1,30=1,74=-55/1,2,3,8;
 4//1;
 5/5=2,38=5/2;
 8/6=1,10=2/1;
 9/42=1,70=2/14;
 6//1;
 99/5=1,9=1/99;
 ----
 SP_1
 ----
 Symbolic Z-matrix:
 Charge =  1 Multiplicity = 1
 C                     2.50035   1.37282   0. 
 C                     3.71194   0.68305   0. 
 C                     3.69357  -0.70542   0. 
 C                     2.4667   -1.40175   0. 
 C                    -2.47112  -1.40345   0. 
 C                    -3.69145  -0.70883   0. 
 C                    -3.708     0.68147   0. 
 C                    -2.49668   1.37278   0. 
 C                     0.00085   1.46675   0. 
 C                    -0.00321  -1.42454   0. 
 C                     1.26355   0.68605   0. 
 C                     1.23975  -0.72324   0. 
 C                    -1.2657    0.68858   0. 
 C                    -1.24136  -0.72369   0. 
 H                     2.49559   2.45818   0. 
 H                     4.64904   1.22367   0. 
 H                     4.62008  -1.2664    0. 
 H                     2.4725   -2.48646   0. 
 H                    -0.00274  -2.50759   0. 
 H                    -2.47468  -2.48804   0. 
 H                    -4.61967  -1.26681   0. 
 H                    -4.64527   1.22221   0. 
 H                    -2.49445   2.45809   0. 
 H                     0.00473   2.15667  -0.8638 
 H                     0.00474   2.15667   0.8638 
 
                          Input orientation:                          
 ---------------------------------------------------------------------
 Center     Atomic      Atomic             Coordinates (Angstroms)
 Number     Number       Type             X           Y           Z
 ---------------------------------------------------------------------
      1          6           0        2.500347    1.372821    0.000000
      2          6           0        3.711940    0.683050    0.000000
      3          6           0        3.693567   -0.705417    0.000000
      4          6           0        2.466704   -1.401749    0.000000
      5          6           0       -2.471116   -1.403452    0.000000
      6          6           0       -3.691454   -0.708833    0.000000
      7          6           0       -3.708001    0.681471    0.000000
      8          6           0       -2.496685    1.372779    0.000000
      9          6           0        0.000851    1.466752    0.000000
     10          6           0       -0.003211   -1.424540    0.000000
     11          6           0        1.263553    0.686048    0.000000
     12          6           0        1.239750   -0.723245    0.000000
     13          6           0       -1.265697    0.688582    0.000000
     14          6           0       -1.241360   -0.723686    0.000000
     15          1           0        2.495594    2.458181    0.000000
     16          1           0        4.649038    1.223669    0.000000
     17          1           0        4.620075   -1.266395    0.000000
     18          1           0        2.472503   -2.486461    0.000000
     19          1           0       -0.002739   -2.507591    0.000000
     20          1           0       -2.474677   -2.488040    0.000000
     21          1           0       -4.619665   -1.266805    0.000000
     22          1           0       -4.645273    1.222212    0.000000
     23          1           0       -2.494446    2.458089    0.000000
     24          1           0        0.004729    2.156670   -0.863801
     25          1           0        0.004739    2.156670    0.863801
 ---------------------------------------------------------------------
                    Distance matrix (angstroms):
                    1          2          3          4          5
     1  C    0.000000
     2  C    1.394181   0.000000
     3  C    2.396424   1.388589   0.000000
     4  C    2.774773   2.428374   1.410698   0.000000
     5  C    5.694131   6.525616   6.204076   4.937820   0.000000
     6  C    6.532356   7.533099   7.385021   6.197019   1.404179
     7  C    6.246723   7.419941   7.530382   6.516654   2.424208
     8  C    4.997031   6.246819   6.529787   5.686232   2.776349
     9  C    2.501260   3.792936   4.284211   3.782688   3.787966
    10  C    3.754068   4.271333   3.766073   2.470020   2.467995
    11  C    1.414679   2.448389   2.800204   2.409661   4.279458
    12  C    2.445934   2.844185   2.453882   1.402065   3.772692
    13  C    3.827698   4.977640   5.151459   4.277885   2.414464
    14  C    4.289022   5.149183   4.934961   3.769551   1.405126
    15  H    1.085371   2.151880   3.382823   3.860038   6.291297
    16  H    2.153862   1.081860   2.152742   3.414000   7.589357
    17  H    3.385071   2.150592   1.083104   2.157621   7.092515
    18  H    3.859382   3.403234   2.159424   1.084727   5.060857
    19  H    4.617686   4.896839   4.112239   2.705741   2.704072
    20  H    6.297389   6.951982   6.420668   5.059376   1.084595
    21  H    7.593563   8.556727   8.332166   7.087654   2.152890
    22  H    7.147207   8.374587   8.558738   7.580593   3.408969
    23  H    5.111336   6.455229   6.949768   6.285806   3.861611
    24  H    2.754756   4.081803   4.748180   4.412461   4.421586
    25  H    2.754746   4.081794   4.748173   4.412456   4.421592
                    6          7          8          9         10
     6  C    0.000000
     7  C    1.390403   0.000000
     8  C    2.400122   1.394702   0.000000
     9  C    4.285591   3.791075   2.499303   0.000000
    10  C    3.757043   4.261543   3.747320   2.891295   0.000000
    11  C    5.147600   4.971556   3.822432   1.484559   2.461559
    12  C    4.931224   5.143292   4.284187   2.516138   1.427153
    13  C    2.799476   2.442314   1.408352   1.486504   2.461535
    14  C    2.450138   2.838799   2.443564   2.518155   1.422748
    15  H    6.950507   6.453007   5.108909   2.684525   4.617310
    16  H    8.561446   8.374609   7.147278   4.654538   5.353170
    17  H    8.330210   8.552838   7.590357   5.367245   4.625990
    18  H    6.415163   6.945100   6.291785   4.662290   2.693851
    19  H    4.103918   4.888668   4.612704   3.974344   1.083050
    20  H    2.155486   3.401013   3.860883   4.665686   2.690572
    21  H    1.083009   2.151026   3.387397   5.368567   4.619148
    22  H    2.153766   1.082072   2.153858   4.652555   5.343598
    23  H    3.385591   2.151532   1.085312   2.685006   4.613140
    24  H    4.755947   4.087386   2.760019   1.105511   3.683922
    25  H    4.755955   4.087396   2.760029   1.105511   3.683922
                   11         12         13         14         15
    11  C    0.000000
    12  C    1.409493   0.000000
    13  C    2.529252   2.875851   0.000000
    14  C    2.874359   2.481110   1.412477   0.000000
    15  H    2.158329   3.420324   4.156777   4.908066   0.000000
    16  H    3.427907   3.926031   5.938889   6.203949   2.482205
    17  H    3.883075   3.423684   6.201956   5.886507   4.287877
    18  H    3.395050   2.151421   4.904593   4.110979   4.944696
    19  H    3.435523   2.174320   3.436652   2.171750   5.558827
    20  H    4.903999   4.112356   3.398906   2.152677   7.012040
    21  H    6.198862   5.884573   3.882350   3.421684   8.031341
    22  H    5.933102   6.198249   3.421446   3.920860   7.247041
    23  H    4.154839   4.905619   2.154293   3.419636   4.990040
    24  H    2.119792   3.250436   2.124951   3.255048   2.653577
    25  H    2.119786   3.250432   2.124957   3.255052   2.653567
                   16         17         18         19         20
    16  H    0.000000
    17  H    2.490232   0.000000
    18  H    4.301437   2.469945   0.000000
    19  H    5.963331   4.786542   2.475332   0.000000
    20  H    8.032690   7.199162   4.947180   2.472016   0.000000
    21  H    9.597464   9.239741   7.196277   4.780748   2.468276
    22  H    9.294311   9.593740   8.026019   5.955212   4.298541
    23  H    7.249355   8.030454   7.008505   5.555769   4.946169
    24  H    4.815210   5.810761   5.328669   4.743578   5.335442
    25  H    4.815200   5.810753   5.328665   4.743578   5.335447
                   21         22         23         24         25
    21  H    0.000000
    22  H    2.489149   0.000000
    23  H    4.288519   2.480615   0.000000
    24  H    5.818192   4.820984   2.661368   0.000000
    25  H    5.818200   4.820994   2.661378   1.727602   0.000000
 Stoichiometry    C14H11(1+)
 Framework group  C1[X(C14H11)]
 Deg. of freedom    69
 Full point group                 C1      NOp   1
 Largest Abelian subgroup         C1      NOp   1
 Largest concise Abelian subgroup C1      NOp   1
                         Standard orientation:                         
 ---------------------------------------------------------------------
 Center     Atomic      Atomic             Coordinates (Angstroms)
 Number     Number       Type             X           Y           Z
 ---------------------------------------------------------------------
      1          6           0        2.501085   -1.362700    0.000000
      2          6           0        3.712278   -0.672228    0.000000
      3          6           0        3.693099    0.716229    0.000000
      4          6           0        2.465833    1.411849    0.000000
      5          6           0       -2.471987    1.410689    0.000000
      6          6           0       -3.691922    0.715363    0.000000
      7          6           0       -3.707663   -0.674950    0.000000
      8          6           0       -2.495946   -1.365557    0.000000
      9          6           0        0.001644   -1.458081    0.000000
     10          6           0       -0.004095    1.433208    0.000000
     11          6           0        1.263893   -0.676645    0.000000
     12          6           0        1.239272    0.732634    0.000000
     13          6           0       -1.265355   -0.680645    0.000000
     14          6           0       -1.241837    0.731636    0.000000
     15          1           0        2.496962   -2.448063    0.000000
     16          1           0        4.649689   -1.212302    0.000000
     17          1           0        4.619282    1.277744    0.000000
     18          1           0        2.471003    2.496564    0.000000
     19          1           0       -0.004251    2.516259    0.000000
     20          1           0       -2.476178    2.495275    0.000000
     21          1           0       -4.620457    1.272797    0.000000
     22          1           0       -4.644621   -1.216235    0.000000
     23          1           0       -2.493078   -2.450865    0.000000
     24          1           0        0.005922   -2.147996    0.863801
     25          1           0        0.005932   -2.147996   -0.863801
 ---------------------------------------------------------------------
 Rotational constants (GHZ):           2.1252456           0.4425646           0.3670885
 Standard basis: 6-311++G(d,p) (5D, 7F)
 There are   399 symmetry adapted cartesian basis functions of A   symmetry.
 There are   385 symmetry adapted basis functions of A   symmetry.
   385 basis functions,   603 primitive gaussians,   399 cartesian basis functions
    47 alpha electrons       47 beta electrons
       nuclear repulsion energy       779.3238246900 Hartrees.
 NAtoms=   25 NActive=   25 NUniq=   25 SFac= 1.00D+00 NAtFMM=   60 NAOKFM=F Big=F
 Integral buffers will be    131072 words long.
 Regular integral format.
 Two-electron integral symmetry is turned on.
 One-electron integrals computed using PRISM.
 NBasis=   385 RedAO= T EigKep=  1.15D-06  NBF=   385
 NBsUse=   379 1.00D-06 EigRej=  8.66D-07 NBFU=   379
 ExpMin= 3.60D-02 ExpMax= 4.56D+03 ExpMxC= 6.82D+02 IAcc=3 IRadAn=         5 AccDes= 0.00D+00
 Harris functional with IExCor= 1009 and IRadAn=       5 diagonalized for initial guess.
 HarFok:  IExCor= 1009 AccDes= 0.00D+00 IRadAn=         5 IDoV= 1 UseB2=F ITyADJ=14
 ICtDFT=  3500011 ScaDFX=  1.000000  1.000000  1.000000  1.000000
 FoFCou: FMM=F IPFlag=           0 FMFlag=      100000 FMFlg1=           0
         NFxFlg=           0 DoJE=T BraDBF=F KetDBF=T FulRan=T
         wScrn=  0.000000 ICntrl=       500 IOpCl=  0 I1Cent=   200000004 NGrid=           0
         NMat0=    1 NMatS0=      1 NMatT0=    0 NMatD0=    1 NMtDS0=    0 NMtDT0=    0
 Petite list used in FoFCou.
 Requested convergence on RMS density matrix=1.00D-08 within 128 cycles.
 Requested convergence on MAX density matrix=1.00D-06.
 Requested convergence on             energy=1.00D-06.
 No special actions if energy rises.
 SCF Done:  E(RM062X) =  -539.758968284     A.U. after   15 cycles
            NFock= 15  Conv=0.45D-08     -V/T= 2.0045
 DoSCS=F DFT=T ScalE2(SS,OS)=  1.000000  1.000000
 ExpMin= 3.60D-02 ExpMax= 4.56D+03 ExpMxC= 6.82D+02 IAcc=3 IRadAn=         5 AccDes= 0.00D+00
 HarFok:  IExCor=  205 AccDes= 0.00D+00 IRadAn=         5 IDoV=-2 UseB2=F ITyADJ=14
 ICtDFT= 12500011 ScaDFX=  1.000000  1.000000  1.000000  1.000000
 Range of M.O.s used for correlation:    15   379
 NBasis=   385 NAE=    47 NBE=    47 NFC=    14 NFV=     0
 NROrb=    365 NOA=    33 NOB=    33 NVA=   332 NVB=   332

 **** Warning!!: The largest alpha MO coefficient is  0.15039404D+03

 Orbital symmetries:
       Occupied  (A) (A) (A) (A) (A) (A) (A) (A) (A) (A) (A) (A)
                 (A) (A) (A) (A) (A) (A) (A) (A) (A) (A) (A) (A)
                 (A) (A) (A) (A) (A) (A) (A) (A) (A) (A) (A) (A)
                 (A) (A) (A) (A) (A) (A) (A) (A) (A) (A) (A)
       Virtual   (A) (A) (A) (A) (A) (A) (A) (A) (A) (A) (A) (A)
                 (A) (A) (A) (A) (A) (A) (A) (A) (A) (A) (A) (A)
                 (A) (A) (A) (A) (A) (A) (A) (A) (A) (A) (A) (A)
                 (A) (A) (A) (A) (A) (A) (A) (A) (A) (A) (A) (A)
                 (A) (A) (A) (A) (A) (A) (A) (A) (A) (A) (A) (A)
                 (A) (A) (A) (A) (A) (A) (A) (A) (A) (A) (A) (A)
                 (A) (A) (A) (A) (A) (A) (A) (A) (A) (A) (A) (A)
                 (A) (A) (A) (A) (A) (A) (A) (A) (A) (A) (A) (A)
                 (A) (A) (A) (A) (A) (A) (A) (A) (A) (A) (A) (A)
                 (A) (A) (A) (A) (A) (A) (A) (A) (A) (A) (A) (A)
                 (A) (A) (A) (A) (A) (A) (A) (A) (A) (A) (A) (A)
                 (A) (A) (A) (A) (A) (A) (A) (A) (A) (A) (A) (A)
                 (A) (A) (A) (A) (A) (A) (A) (A) (A) (A) (A) (A)
                 (A) (A) (A) (A) (A) (A) (A) (A) (A) (A) (A) (A)
                 (A) (A) (A) (A) (A) (A) (A) (A) (A) (A) (A) (A)
                 (A) (A) (A) (A) (A) (A) (A) (A) (A) (A) (A) (A)
                 (A) (A) (A) (A) (A) (A) (A) (A) (A) (A) (A) (A)
                 (A) (A) (A) (A) (A) (A) (A) (A) (A) (A) (A) (A)
                 (A) (A) (A) (A) (A) (A) (A) (A) (A) (A) (A) (A)
                 (A) (A) (A) (A) (A) (A) (A) (A) (A) (A) (A) (A)
                 (A) (A) (A) (A) (A) (A) (A) (A) (A) (A) (A) (A)
                 (A) (A) (A) (A) (A) (A) (A) (A) (A) (A) (A) (A)
                 (A) (A) (A) (A) (A) (A) (A) (A) (A) (A) (A) (A)
                 (A) (A) (A) (A) (A) (A) (A) (A) (A) (A) (A) (A)
                 (A) (A) (A) (A) (A) (A) (A) (A) (A) (A) (A) (A)
                 (A) (A) (A) (A) (A) (A) (A) (A) (A) (A) (A) (A)
                 (A) (A) (A) (A) (A) (A) (A) (A) (A) (A) (A) (A)
                 (A) (A) (A) (A) (A) (A) (A) (A)
    12 initial guesses have been made.
 Convergence on wavefunction:    0.001000000000000
 Iteration     1 Dimension    12 NMult     0 NNew     12
 CISAX will form    12 AO SS matrices at one time.
 New state      2 was old state      3
 New state      3 was old state      2
 Iteration     2 Dimension    18 NMult    12 NNew      6
 Iteration     3 Dimension    24 NMult    18 NNew      6
 Iteration     4 Dimension    30 NMult    24 NNew      6
 Iteration     5 Dimension    36 NMult    30 NNew      6
 Iteration     6 Dimension    40 NMult    36 NNew      4
 ***********************************************************************
 Excited states from <AA,BB:AA,BB> singles matrix:
 ***********************************************************************
 
 Ground to excited state transition densities written to RWF  633
 Ground to excited state transition electric dipole moments (Au):
       state          X           Y           Z        Dip. S.      Osc.
         1         0.0047     -0.6405     -0.0000      0.4102      0.0282
         2         0.1755      0.0425     -0.0000      0.0326      0.0026
         3         2.5607     -0.0020     -0.0000      6.5573      0.5571
 Ground to excited state transition velocity dipole moments (Au):
       state          X           Y           Z        Dip. S.      Osc.
         1        -0.0000      0.0738     -0.0000      0.0055      0.0352
         2        -0.0135     -0.0055      0.0000      0.0002      0.0012
         3        -0.3288      0.0003     -0.0000      0.1081      0.5657
 Ground to excited state transition magnetic dipole moments (Au):
       state          X           Y           Z
         1         0.0000     -0.0000      0.0278
         2         0.0000      0.0000      0.9507
         3         0.0000      0.0000      1.0917
 Ground to excited state transition velocity quadrupole moments (Au):
       state          XX          YY          ZZ          XY          XZ          YZ
         1         0.2961      0.0357     -0.0098      0.0119      0.0000     -0.0000
         2        -0.0214     -0.0030      0.0007      0.2947     -0.0000      0.0000
         3         0.0100     -0.0006     -0.0001      0.1166      0.0000      0.0000
 <0|del|b> * <b|rxdel|0> + <0|del|b> * <b|delr+rdel|0>
 Rotatory Strengths (R) in cgs (10**-40 erg-esu-cm/Gauss)
       state          XX          YY          ZZ    R(velocity)    E-M Angle
         1        -0.0003     -0.0000      0.0003     -0.0000       90.00
         2         0.0003      0.0001     -0.0000      0.0001       90.00
         3        -0.0007     -0.0014     -0.0007     -0.0009       90.00
 1/2[<0|r|b>*<b|rxdel|0> + (<0|rxdel|b>*<b|r|0>)*]
 Rotatory Strengths (R) in cgs (10**-40 erg-esu-cm/Gauss)
       state          XX          YY          ZZ     R(length)
         1        -0.0000     -0.0000      0.0000     -0.0000
         2        -0.0000     -0.0000      0.0005      0.0002
         3        -0.0015      0.0000      0.0005     -0.0004
  1/2[<0|del|b>*<b|r|0> + (<0|r|b>*<b|del|0>)*] (Au)
       state          X           Y           Z        Dip. S.   Osc.(frdel)
         1        -0.0000     -0.0473      0.0000      0.0473      0.0315
         2        -0.0024     -0.0002     -0.0000      0.0026      0.0017
         3        -0.8421     -0.0000      0.0000      0.8421      0.5614

 Excitation energies and oscillator strengths:
 
 Excited State   1:      Singlet-A      2.8091 eV  441.37 nm  f=0.0282  <S**2>=0.000
      47 -> 48         0.70422
 This state for optimization and/or second-order correction.
 Total Energy, E(TD-HF/TD-DFT) =  -539.655736597    
 Copying the excited state density for this state as the 1-particle RhoCI density.
 
 Excited State   2:      Singlet-A      3.2431 eV  382.30 nm  f=0.0026  <S**2>=0.000
      45 -> 48         0.62201
      46 -> 48         0.32502
 
 Excited State   3:      Singlet-A      3.4679 eV  357.52 nm  f=0.5571  <S**2>=0.000
      45 -> 48        -0.32691
      46 -> 48         0.61773
 SavETr:  write IOETrn=   770 NScale= 10 NData=  16 NLR=1 NState=    3 LETran=      64.

 **********************************************************************

            Population analysis using the SCF Density.

 **********************************************************************

 Orbital symmetries:
       Occupied  (A) (A) (A) (A) (A) (A) (A) (A) (A) (A) (A) (A)
                 (A) (A) (A) (A) (A) (A) (A) (A) (A) (A) (A) (A)
                 (A) (A) (A) (A) (A) (A) (A) (A) (A) (A) (A) (A)
                 (A) (A) (A) (A) (A) (A) (A) (A) (A) (A) (A)
       Virtual   (A) (A) (A) (A) (A) (A) (A) (A) (A) (A) (A) (A)
                 (A) (A) (A) (A) (A) (A) (A) (A) (A) (A) (A) (A)
                 (A) (A) (A) (A) (A) (A) (A) (A) (A) (A) (A) (A)
                 (A) (A) (A) (A) (A) (A) (A) (A) (A) (A) (A) (A)
                 (A) (A) (A) (A) (A) (A) (A) (A) (A) (A) (A) (A)
                 (A) (A) (A) (A) (A) (A) (A) (A) (A) (A) (A) (A)
                 (A) (A) (A) (A) (A) (A) (A) (A) (A) (A) (A) (A)
                 (A) (A) (A) (A) (A) (A) (A) (A) (A) (A) (A) (A)
                 (A) (A) (A) (A) (A) (A) (A) (A) (A) (A) (A) (A)
                 (A) (A) (A) (A) (A) (A) (A) (A) (A) (A) (A) (A)
                 (A) (A) (A) (A) (A) (A) (A) (A) (A) (A) (A) (A)
                 (A) (A) (A) (A) (A) (A) (A) (A) (A) (A) (A) (A)
                 (A) (A) (A) (A) (A) (A) (A) (A) (A) (A) (A) (A)
                 (A) (A) (A) (A) (A) (A) (A) (A) (A) (A) (A) (A)
                 (A) (A) (A) (A) (A) (A) (A) (A) (A) (A) (A) (A)
                 (A) (A) (A) (A) (A) (A) (A) (A) (A) (A) (A) (A)
                 (A) (A) (A) (A) (A) (A) (A) (A) (A) (A) (A) (A)
                 (A) (A) (A) (A) (A) (A) (A) (A) (A) (A) (A) (A)
                 (A) (A) (A) (A) (A) (A) (A) (A) (A) (A) (A) (A)
                 (A) (A) (A) (A) (A) (A) (A) (A) (A) (A) (A) (A)
                 (A) (A) (A) (A) (A) (A) (A) (A) (A) (A) (A) (A)
                 (A) (A) (A) (A) (A) (A) (A) (A) (A) (A) (A) (A)
                 (A) (A) (A) (A) (A) (A) (A) (A) (A) (A) (A) (A)
                 (A) (A) (A) (A) (A) (A) (A) (A) (A) (A) (A) (A)
                 (A) (A) (A) (A) (A) (A) (A) (A) (A) (A) (A) (A)
                 (A) (A) (A) (A) (A) (A) (A) (A) (A) (A) (A) (A)
                 (A) (A) (A) (A) (A) (A) (A) (A) (A) (A) (A) (A)
                 (A) (A) (A) (A) (A) (A) (A) (A)
 The electronic state is 1-A.
 Alpha  occ. eigenvalues --  -10.77775 -10.73391 -10.73303 -10.72592 -10.72518
 Alpha  occ. eigenvalues --  -10.71514 -10.71434 -10.71194 -10.71071 -10.71018
 Alpha  occ. eigenvalues --  -10.70101 -10.70062 -10.69761 -10.69715  -1.16222
 Alpha  occ. eigenvalues --   -1.12261  -1.06767  -1.05570  -1.01179  -1.00055
 Alpha  occ. eigenvalues --   -0.95678  -0.90941  -0.86287  -0.85786  -0.83735
 Alpha  occ. eigenvalues --   -0.78333  -0.75857  -0.74291  -0.69465  -0.69198
 Alpha  occ. eigenvalues --   -0.68419  -0.68100  -0.68002  -0.64663  -0.64222
 Alpha  occ. eigenvalues --   -0.62963  -0.61783  -0.59920  -0.59532  -0.59052
 Alpha  occ. eigenvalues --   -0.56870  -0.55202  -0.54786  -0.52330  -0.46557
 Alpha  occ. eigenvalues --   -0.45992  -0.44456
 Alpha virt. eigenvalues --   -0.26105  -0.14708  -0.14148  -0.12843  -0.11167
 Alpha virt. eigenvalues --   -0.10084  -0.09229  -0.08017  -0.07984  -0.07480
 Alpha virt. eigenvalues --   -0.07197  -0.07161  -0.05657  -0.05592  -0.05356
 Alpha virt. eigenvalues --   -0.03816  -0.03626  -0.03301  -0.03159  -0.02169
 Alpha virt. eigenvalues --   -0.01359  -0.00927   0.00178   0.00585   0.00631
 Alpha virt. eigenvalues --    0.01057   0.01507   0.01922   0.02175   0.02290
 Alpha virt. eigenvalues --    0.02433   0.02648   0.02660   0.03318   0.03340
 Alpha virt. eigenvalues --    0.04232   0.04481   0.04683   0.04989   0.05331
 Alpha virt. eigenvalues --    0.06037   0.06248   0.06581   0.07023   0.07242
 Alpha virt. eigenvalues --    0.07866   0.08077   0.08330   0.08486   0.08896
 Alpha virt. eigenvalues --    0.09504   0.09517   0.09960   0.10737   0.10915
 Alpha virt. eigenvalues --    0.11097   0.12128   0.12193   0.12886   0.12924
 Alpha virt. eigenvalues --    0.13335   0.13512   0.13979   0.14266   0.16133
 Alpha virt. eigenvalues --    0.16188   0.16264   0.17314   0.17565   0.17720
 Alpha virt. eigenvalues --    0.18041   0.18957   0.19163   0.19548   0.19660
 Alpha virt. eigenvalues --    0.21445   0.21525   0.22589   0.22995   0.23472
 Alpha virt. eigenvalues --    0.23706   0.24556   0.25257   0.26820   0.27469
 Alpha virt. eigenvalues --    0.28708   0.29232   0.29745   0.31256   0.35485
 Alpha virt. eigenvalues --    0.36095   0.38115   0.39215   0.41113   0.41446
 Alpha virt. eigenvalues --    0.41828   0.42261   0.43015   0.43546   0.44317
 Alpha virt. eigenvalues --    0.44698   0.44814   0.45881   0.46037   0.47963
 Alpha virt. eigenvalues --    0.48565   0.48801   0.49067   0.50433   0.51014
 Alpha virt. eigenvalues --    0.51383   0.51528   0.52118   0.52687   0.53888
 Alpha virt. eigenvalues --    0.54074   0.54544   0.55666   0.55711   0.57474
 Alpha virt. eigenvalues --    0.58195   0.58696   0.61357   0.62077   0.62195
 Alpha virt. eigenvalues --    0.63062   0.63440   0.64736   0.65018   0.67059
 Alpha virt. eigenvalues --    0.70257   0.70560   0.70732   0.72288   0.72707
 Alpha virt. eigenvalues --    0.75702   0.75869   0.76186   0.76876   0.77091
 Alpha virt. eigenvalues --    0.77705   0.77800   0.78126   0.79907   0.80267
 Alpha virt. eigenvalues --    0.81130   0.81601   0.82020   0.82844   0.85047
 Alpha virt. eigenvalues --    0.87005   0.87999   0.88563   0.89015   0.90338
 Alpha virt. eigenvalues --    0.90915   0.91212   0.93109   0.94435   0.96357
 Alpha virt. eigenvalues --    0.96517   1.00306   1.01109   1.01564   1.02548
 Alpha virt. eigenvalues --    1.03034   1.03643   1.04561   1.05251   1.08555
 Alpha virt. eigenvalues --    1.19429   1.23149   1.23854   1.25188   1.27826
 Alpha virt. eigenvalues --    1.29676   1.31761   1.34156   1.35628   1.35826
 Alpha virt. eigenvalues --    1.39173   1.39905   1.40722   1.42922   1.43114
 Alpha virt. eigenvalues --    1.43294   1.44799   1.45053   1.46169   1.46488
 Alpha virt. eigenvalues --    1.47433   1.47639   1.51418   1.53382   1.55264
 Alpha virt. eigenvalues --    1.55534   1.56072   1.56336   1.57550   1.61060
 Alpha virt. eigenvalues --    1.63154   1.63431   1.63688   1.65943   1.67906
 Alpha virt. eigenvalues --    1.68147   1.68490   1.69512   1.74089   1.75589
 Alpha virt. eigenvalues --    1.76801   1.77860   1.79792   1.79804   1.80367
 Alpha virt. eigenvalues --    1.82802   1.82869   1.83391   1.83640   1.83853
 Alpha virt. eigenvalues --    1.83978   1.85683   1.85776   1.88063   1.91085
 Alpha virt. eigenvalues --    1.91795   1.93781   1.94976   1.97300   1.97776
 Alpha virt. eigenvalues --    1.99525   2.01963   2.03884   2.06885   2.11435
 Alpha virt. eigenvalues --    2.11568   2.13725   2.14723   2.18556   2.20672
 Alpha virt. eigenvalues --    2.22250   2.28132   2.29506   2.33984   2.34380
 Alpha virt. eigenvalues --    2.35630   2.38299   2.39245   2.41801   2.44343
 Alpha virt. eigenvalues --    2.45682   2.45714   2.48815   2.52354   2.53029
 Alpha virt. eigenvalues --    2.54083   2.56669   2.57688   2.58343   2.59516
 Alpha virt. eigenvalues --    2.59801   2.61293   2.61906   2.63475   2.63585
 Alpha virt. eigenvalues --    2.64720   2.64989   2.65275   2.65398   2.67496
 Alpha virt. eigenvalues --    2.67778   2.70492   2.70819   2.73171   2.74661
 Alpha virt. eigenvalues --    2.76138   2.77831   2.79564   2.81897   2.82871
 Alpha virt. eigenvalues --    2.83927   2.86062   2.91765   2.96767   2.99192
 Alpha virt. eigenvalues --    2.99731   3.04317   3.09834   3.10565   3.12176
 Alpha virt. eigenvalues --    3.20122   3.22808   3.25976   3.27537   3.30054
 Alpha virt. eigenvalues --    3.32057   3.32548   3.42690   3.45152   3.45673
 Alpha virt. eigenvalues --    3.47460   3.48904   3.55792   3.65882   3.66057
 Alpha virt. eigenvalues --    3.66800   3.93643   3.94148   3.94700   3.95786
 Alpha virt. eigenvalues --    4.03443   4.06376   4.07092   4.12043   4.35147
 Alpha virt. eigenvalues --    4.60546   4.69158   4.70982  23.45151  23.60097
 Alpha virt. eigenvalues --   23.81482  23.84541  23.86951  23.88348  23.89731
 Alpha virt. eigenvalues --   23.91321  23.96493  23.98224  23.98555  23.99104
 Alpha virt. eigenvalues --   24.09136  24.09251
     Molecular Orbital Coefficients:
                          43        44        45        46        47
                           O         O         O         O         O
     Eigenvalues --    -0.54786  -0.52330  -0.46557  -0.45992  -0.44456
   1 1   C  1S         -0.00227   0.00000   0.00000   0.00000  -0.00000
   2        2S         -0.00372   0.00000   0.00000   0.00000  -0.00000
   3        2PX        -0.09195   0.00000   0.00000   0.00000  -0.00000
   4        2PY        -0.00457   0.00000  -0.00000  -0.00000   0.00000
   5        2PZ        -0.00000  -0.07453   0.09624  -0.02698   0.10042
   6        3S          0.01083  -0.00000   0.00000  -0.00000   0.00000
   7        3PX        -0.13055   0.00000  -0.00000  -0.00000  -0.00000
   8        3PY        -0.00692   0.00000  -0.00000  -0.00000   0.00000
   9        3PZ        -0.00000  -0.11986   0.15682  -0.04384   0.16485
  10        4S         -0.01807  -0.00000  -0.00000  -0.00000  -0.00000
  11        4PX        -0.08303  -0.00000   0.00000   0.00000  -0.00000
  12        4PY        -0.01746  -0.00000  -0.00000  -0.00000  -0.00000
  13        4PZ        -0.00000  -0.09898   0.13756  -0.04100   0.14786
  14        5S          0.10470   0.00000  -0.00000  -0.00000   0.00000
  15        5PX         0.13908  -0.00000   0.00000   0.00000   0.00000
  16        5PY         0.01254  -0.00000   0.00000   0.00000  -0.00000
  17        5PZ        -0.00000  -0.00047   0.03952   0.00277   0.02558
  18        6D 0        0.00034  -0.00000  -0.00000  -0.00000  -0.00000
  19        6D+1        0.00000  -0.00857  -0.00387  -0.01620  -0.00625
  20        6D-1       -0.00000  -0.00761   0.00584  -0.00227   0.00659
  21        6D+2       -0.00210   0.00000  -0.00000  -0.00000  -0.00000
  22        6D-2       -0.01120   0.00000   0.00000   0.00000  -0.00000
  23 2   C  1S          0.00241  -0.00000  -0.00000  -0.00000   0.00000
  24        2S          0.00400  -0.00000  -0.00000  -0.00000   0.00000
  25        2PX         0.07958  -0.00000  -0.00000   0.00000   0.00000
  26        2PY         0.01318  -0.00000   0.00000   0.00000   0.00000
  27        2PZ         0.00000  -0.10206   0.03074  -0.10015   0.01188
  28        3S         -0.01363   0.00000   0.00000   0.00000  -0.00000
  29        3PX         0.11457  -0.00000  -0.00000   0.00000   0.00000
  30        3PY         0.01850  -0.00000   0.00000   0.00000   0.00000
  31        3PZ         0.00000  -0.16813   0.05116  -0.16458   0.01954
  32        4S          0.01939   0.00000   0.00000   0.00000   0.00000
  33        4PX         0.08021  -0.00000  -0.00000  -0.00000   0.00000
  34        4PY         0.00154  -0.00000   0.00000   0.00000   0.00000
  35        4PZ         0.00000  -0.12691   0.04175  -0.14023   0.01803
  36        5S         -0.12974  -0.00000  -0.00000  -0.00000   0.00000
  37        5PX         0.05307   0.00000   0.00000   0.00000   0.00000
  38        5PY         0.08018  -0.00000   0.00000   0.00000   0.00000
  39        5PZ         0.00000  -0.00127  -0.01660  -0.00862   0.00505
  40        6D 0        0.00005  -0.00000   0.00000   0.00000  -0.00000
  41        6D+1        0.00000   0.00931  -0.00952   0.00387  -0.01001
  42        6D-1        0.00000  -0.00554  -0.01222  -0.00808  -0.01599
  43        6D+2        0.00325  -0.00000  -0.00000  -0.00000   0.00000
  44        6D-2       -0.01707   0.00000   0.00000   0.00000  -0.00000
  45 3   C  1S         -0.00048   0.00000   0.00000   0.00000   0.00000
  46        2S         -0.00080   0.00000   0.00000   0.00000   0.00000
  47        2PX        -0.07197   0.00000   0.00000   0.00000  -0.00000
  48        2PY        -0.00334   0.00000  -0.00000  -0.00000  -0.00000
  49        2PZ         0.00000  -0.07661  -0.06166  -0.08040  -0.09007
  50        3S          0.00459  -0.00000   0.00000   0.00000  -0.00000
  51        3PX        -0.10362   0.00000   0.00000   0.00000  -0.00000
  52        3PY        -0.00510   0.00000  -0.00000  -0.00000  -0.00000
  53        3PZ         0.00000  -0.12464  -0.10176  -0.13089  -0.14807
  54        4S         -0.02652  -0.00000  -0.00000  -0.00000  -0.00000
  55        4PX        -0.07529   0.00000   0.00000   0.00000   0.00000
  56        4PY        -0.01399   0.00000   0.00000   0.00000  -0.00000
  57        4PZ         0.00000  -0.09776  -0.08771  -0.11543  -0.13119
  58        5S         -0.01331   0.00000  -0.00000  -0.00000  -0.00000
  59        5PX        -0.03219  -0.00000  -0.00000  -0.00000  -0.00000
  60        5PY         0.06347  -0.00000   0.00000   0.00000   0.00000
  61        5PZ        -0.00000  -0.00849   0.01251  -0.01619  -0.01652
  62        6D 0       -0.00025   0.00000   0.00000   0.00000  -0.00000
  63        6D+1       -0.00000   0.00312   0.00983  -0.00033   0.00987
  64        6D-1        0.00000   0.01130  -0.00810   0.01229  -0.00588
  65        6D+2       -0.00337   0.00000  -0.00000  -0.00000  -0.00000
  66        6D-2       -0.01684   0.00000   0.00000   0.00000  -0.00000
  67 4   C  1S         -0.00004  -0.00000   0.00000   0.00000   0.00000
  68        2S         -0.00007  -0.00000   0.00000   0.00000   0.00000
  69        2PX         0.08069  -0.00000   0.00000   0.00000   0.00000
  70        2PY         0.00365  -0.00000   0.00000   0.00000   0.00000
  71        2PZ         0.00000  -0.01146  -0.09923   0.01615  -0.09809
  72        3S         -0.00065   0.00000  -0.00000  -0.00000  -0.00000
  73        3PX         0.11446  -0.00000   0.00000   0.00000   0.00000
  74        3PY         0.00543  -0.00000   0.00000   0.00000   0.00000
  75        3PZ         0.00000  -0.01748  -0.16278   0.02595  -0.15969
  76        4S          0.03958   0.00000   0.00000   0.00000   0.00000
  77        4PX         0.06793  -0.00000  -0.00000  -0.00000   0.00000
  78        4PY        -0.00719  -0.00000  -0.00000  -0.00000   0.00000
  79        4PZ         0.00000  -0.02222  -0.14049   0.01595  -0.15662
  80        5S          0.22539   0.00000   0.00000   0.00000   0.00000
  81        5PX        -0.10958  -0.00000  -0.00000  -0.00000  -0.00000
  82        5PY        -0.04865  -0.00000  -0.00000  -0.00000  -0.00000
  83        5PZ         0.00000   0.01473  -0.03825   0.02269  -0.01862
  84        6D 0       -0.00025  -0.00000   0.00000   0.00000  -0.00000
  85        6D+1       -0.00000  -0.01323  -0.00129  -0.01793  -0.00863
  86        6D-1       -0.00000   0.00315   0.00590  -0.00035   0.00542
  87        6D+2       -0.00177   0.00000  -0.00000  -0.00000  -0.00000
  88        6D-2       -0.01002   0.00000   0.00000   0.00000   0.00000
  89 5   C  1S         -0.00105   0.00000   0.00000   0.00000  -0.00000
  90        2S         -0.00174   0.00000   0.00000   0.00000  -0.00000
  91        2PX         0.08268  -0.00000  -0.00000  -0.00000   0.00000
  92        2PY        -0.01680   0.00000   0.00000   0.00000  -0.00000
  93        2PZ         0.00000  -0.01075   0.10841  -0.01057  -0.08822
  94        3S          0.00643  -0.00000  -0.00000  -0.00000   0.00000
  95        3PX         0.11736  -0.00000  -0.00000  -0.00000   0.00000
  96        3PY        -0.02434   0.00000   0.00000   0.00000  -0.00000
  97        3PZ         0.00000  -0.01628   0.17776  -0.01692  -0.14349
  98        4S         -0.04085  -0.00000   0.00000   0.00000   0.00000
  99        4PX         0.06391  -0.00000   0.00000   0.00000   0.00000
 100        4PY        -0.00893   0.00000  -0.00000  -0.00000  -0.00000
 101        4PZ         0.00000  -0.02120   0.15477  -0.00781  -0.14160
 102        5S         -0.22512  -0.00000   0.00000   0.00000  -0.00000
 103        5PX        -0.10116  -0.00000   0.00000   0.00000  -0.00000
 104        5PY         0.05076   0.00000  -0.00000  -0.00000   0.00000
 105        5PZ         0.00000   0.01524   0.03955  -0.02196  -0.01551
 106        6D 0        0.00034   0.00000   0.00000   0.00000   0.00000
 107        6D+1        0.00000   0.01344  -0.00226  -0.01827   0.00757
 108        6D-1       -0.00000   0.00311  -0.00648  -0.00002   0.00490
 109        6D+2        0.00538  -0.00000  -0.00000  -0.00000   0.00000
 110        6D-2       -0.00994   0.00000  -0.00000  -0.00000   0.00000
 111 6   C  1S          0.00072  -0.00000   0.00000   0.00000  -0.00000
 112        2S          0.00121  -0.00000   0.00000   0.00000  -0.00000
 113        2PX        -0.07098   0.00000  -0.00000  -0.00000  -0.00000
 114        2PY         0.01616  -0.00000  -0.00000  -0.00000   0.00000
 115        2PZ         0.00000  -0.07620   0.07080   0.08403  -0.07915
 116        3S         -0.00581   0.00000   0.00000  -0.00000   0.00000
 117        3PX        -0.10222   0.00000  -0.00000  -0.00000  -0.00000
 118        3PY         0.02342  -0.00000  -0.00000  -0.00000   0.00000
 119        3PZ         0.00000  -0.12400   0.11675   0.13692  -0.13011
 120        4S          0.02499   0.00000  -0.00000  -0.00000   0.00000
 121        4PX        -0.07709   0.00000  -0.00000  -0.00000   0.00000
 122        4PY         0.02466  -0.00000   0.00000   0.00000   0.00000
 123        4PZ         0.00000  -0.09749   0.10047   0.12091  -0.11510
 124        5S          0.02648  -0.00000  -0.00000  -0.00000  -0.00000
 125        5PX        -0.02758  -0.00000   0.00000   0.00000  -0.00000
 126        5PY        -0.05984   0.00000   0.00000   0.00000  -0.00000
 127        5PZ        -0.00000  -0.00883  -0.01100   0.01707  -0.01674
 128        6D 0        0.00033  -0.00000   0.00000   0.00000   0.00000
 129        6D+1        0.00000  -0.00308   0.01083   0.00023  -0.00890
 130        6D-1        0.00000   0.01128   0.00865  -0.01183  -0.00569
 131        6D+2        0.00577  -0.00000  -0.00000  -0.00000   0.00000
 132        6D-2       -0.01737   0.00000   0.00000   0.00000  -0.00000
 133 7   C  1S         -0.00222   0.00000   0.00000   0.00000  -0.00000
 134        2S         -0.00368   0.00000   0.00000   0.00000  -0.00000
 135        2PX         0.07869  -0.00000  -0.00000  -0.00000   0.00000
 136        2PY        -0.02644   0.00000   0.00000   0.00000  -0.00000
 137        2PZ         0.00000  -0.10191  -0.03169   0.09846   0.01400
 138        3S          0.01256  -0.00000  -0.00000   0.00000   0.00000
 139        3PX         0.11305  -0.00000  -0.00000  -0.00000   0.00000
 140        3PY        -0.03735   0.00000   0.00000   0.00000  -0.00000
 141        3PZ         0.00000  -0.16792  -0.05269   0.16182   0.02293
 142        4S         -0.02251  -0.00000   0.00000   0.00000  -0.00000
 143        4PX         0.07617  -0.00000   0.00000   0.00000   0.00000
 144        4PY        -0.01426   0.00000   0.00000   0.00000   0.00000
 145        4PZ         0.00000  -0.12702  -0.04324   0.13808   0.02121
 146        5S          0.11621   0.00000  -0.00000  -0.00000  -0.00000
 147        5PX         0.04769   0.00000  -0.00000  -0.00000  -0.00000
 148        5PY        -0.07681   0.00000   0.00000   0.00000   0.00000
 149        5PZ         0.00000  -0.00097   0.01597   0.00816   0.00738
 150        6D 0        0.00002   0.00000   0.00000   0.00000   0.00000
 151        6D+1       -0.00000  -0.00926  -0.01049   0.00325   0.00918
 152        6D-1        0.00000  -0.00550   0.01378   0.00879  -0.01419
 153        6D+2       -0.00094   0.00000   0.00000   0.00000  -0.00000
 154        6D-2       -0.01612   0.00000  -0.00000  -0.00000  -0.00000
 155 8   C  1S          0.00165  -0.00000   0.00000   0.00000   0.00000
 156        2S          0.00270  -0.00000   0.00000   0.00000   0.00000
 157        2PX        -0.08859   0.00000   0.00000   0.00000  -0.00000
 158        2PY         0.01722  -0.00000  -0.00000   0.00000  -0.00000
 159        2PZ        -0.00000  -0.07426  -0.10590   0.02119   0.09118
 160        3S         -0.00738   0.00000   0.00000  -0.00000  -0.00000
 161        3PX        -0.12539   0.00000   0.00000   0.00000  -0.00000
 162        3PY         0.02515  -0.00000  -0.00000  -0.00000  -0.00000
 163        3PZ        -0.00000  -0.11946  -0.17272   0.03442   0.14980
 164        4S          0.01732   0.00000  -0.00000  -0.00000  -0.00000
 165        4PX        -0.08430  -0.00000  -0.00000  -0.00000  -0.00000
 166        4PY         0.03538   0.00000  -0.00000  -0.00000   0.00000
 167        4PZ        -0.00000  -0.09874  -0.15130   0.03281   0.13433
 168        5S         -0.10956  -0.00000  -0.00000  -0.00000  -0.00000
 169        5PX         0.12821  -0.00000  -0.00000  -0.00000  -0.00000
 170        5PY        -0.00938   0.00000   0.00000   0.00000   0.00000
 171        5PZ        -0.00000  -0.00075  -0.04169  -0.00387   0.02097
 172        6D 0       -0.00033   0.00000  -0.00000  -0.00000   0.00000
 173        6D+1       -0.00000   0.00862  -0.00454  -0.01640   0.00496
 174        6D-1       -0.00000  -0.00757  -0.00657   0.00185   0.00614
 175        6D+2        0.00593  -0.00000  -0.00000  -0.00000   0.00000
 176        6D-2       -0.01118   0.00000  -0.00000  -0.00000  -0.00000
 177 9   C  1S         -0.00079   0.00000  -0.00000  -0.00000  -0.00000
 178        2S         -0.00131   0.00000  -0.00000  -0.00000  -0.00000
 179        2PX        -0.10262   0.00000   0.00000   0.00000  -0.00000
 180        2PY         0.00742   0.00000  -0.00000  -0.00000  -0.00000
 181        2PZ        -0.00000   0.00637   0.00339   0.00142  -0.06089
 182        3S          0.00417  -0.00000   0.00000   0.00000   0.00000
 183        3PX        -0.15420   0.00000   0.00000   0.00000  -0.00000
 184        3PY         0.01102   0.00000  -0.00000  -0.00000  -0.00000
 185        3PZ        -0.00000   0.00725   0.00515   0.00218  -0.09289
 186        4S          0.00015   0.00000   0.00000   0.00000   0.00000
 187        4PX        -0.10447  -0.00000   0.00000   0.00000   0.00000
 188        4PY         0.01085   0.00000  -0.00000  -0.00000  -0.00000
 189        4PZ        -0.00000   0.04320   0.00498   0.00214  -0.09341
 190        5S         -0.00065   0.00000   0.00000   0.00000   0.00000
 191        5PX         0.39324   0.00000  -0.00000  -0.00000   0.00000
 192        5PY         0.00142   0.00000   0.00000   0.00000   0.00000
 193        5PZ        -0.00000   0.06969  -0.00524  -0.00237   0.09356
 194        6D 0       -0.00075   0.00000   0.00000  -0.00000  -0.00000
 195        6D+1        0.00000  -0.00004   0.01336   0.01297   0.00101
 196        6D-1        0.00000  -0.00032  -0.00092  -0.00036   0.01820
 197        6D+2        0.00173  -0.00000  -0.00000  -0.00000   0.00000
 198        6D-2       -0.01084   0.00000   0.00000   0.00000  -0.00000
 199 10  C  1S         -0.00099   0.00000  -0.00000  -0.00000  -0.00000
 200        2S         -0.00165   0.00000  -0.00000  -0.00000  -0.00000
 201        2PX         0.07672  -0.00000  -0.00000  -0.00000   0.00000
 202        2PY        -0.00572   0.00000   0.00000   0.00000  -0.00000
 203        2PZ         0.00000   0.10339  -0.00079  -0.00094   0.01706
 204        3S          0.00507  -0.00000   0.00000   0.00000   0.00000
 205        3PX         0.11017  -0.00000  -0.00000  -0.00000   0.00000
 206        3PY        -0.00819   0.00000   0.00000   0.00000   0.00000
 207        3PZ         0.00000   0.16854  -0.00136  -0.00154   0.02897
 208        4S          0.00463  -0.00000  -0.00000  -0.00000  -0.00000
 209        4PX         0.08739   0.00000  -0.00000  -0.00000   0.00000
 210        4PY        -0.00986   0.00000   0.00000   0.00000   0.00000
 211        4PZ         0.00000   0.13989  -0.00095  -0.00112   0.02075
 212        5S          0.00060   0.00000   0.00000   0.00000   0.00000
 213        5PX        -0.29647  -0.00000   0.00000   0.00000  -0.00000
 214        5PY        -0.00064  -0.00000   0.00000   0.00000   0.00000
 215        5PZ         0.00000   0.01431   0.00303   0.00160  -0.05980
 216        6D 0        0.00015   0.00000   0.00000   0.00000   0.00000
 217        6D+1       -0.00000  -0.00026  -0.00987   0.02203   0.00007
 218        6D-1       -0.00000  -0.00926   0.00021   0.00013  -0.00424
 219        6D+2        0.00218   0.00000  -0.00000  -0.00000  -0.00000
 220        6D-2       -0.01044   0.00000   0.00000   0.00000  -0.00000
 221 11  C  1S          0.00046  -0.00000   0.00000   0.00000   0.00000
 222        2S          0.00074  -0.00000   0.00000   0.00000   0.00000
 223        2PX         0.08670  -0.00000   0.00000   0.00000   0.00000
 224        2PY         0.00408  -0.00000   0.00000   0.00000   0.00000
 225        2PZ        -0.00000  -0.00414   0.07031   0.07647   0.08412
 226        3S         -0.00157   0.00000   0.00000   0.00000  -0.00000
 227        3PX         0.12710  -0.00000   0.00000   0.00000   0.00000
 228        3PY         0.00677  -0.00000   0.00000   0.00000   0.00000
 229        3PZ        -0.00000  -0.00588   0.11405   0.12666   0.13727
 230        4S         -0.01090   0.00000  -0.00000  -0.00000  -0.00000
 231        4PX         0.12188  -0.00000   0.00000   0.00000   0.00000
 232        4PY        -0.00428  -0.00000   0.00000   0.00000   0.00000
 233        4PZ        -0.00000  -0.01908   0.12103   0.11051   0.13956
 234        5S          0.08255   0.00000  -0.00001  -0.00001  -0.00000
 235        5PX         0.18794   0.00000   0.00000   0.00000   0.00000
 236        5PY         0.27311   0.00000  -0.00001  -0.00001   0.00000
 237        5PZ         0.00000  -0.01644  -0.03391   0.00884  -0.07098
 238        6D 0       -0.00042  -0.00000  -0.00000  -0.00000  -0.00000
 239        6D+1        0.00000  -0.00955   0.00887  -0.00389   0.01320
 240        6D-1        0.00000   0.01056  -0.01007   0.01206   0.00001
 241        6D+2        0.00123  -0.00000  -0.00000  -0.00000  -0.00000
 242        6D-2       -0.01901   0.00000  -0.00000  -0.00000  -0.00000
 243 12  C  1S          0.00108  -0.00000  -0.00000  -0.00000  -0.00000
 244        2S          0.00186  -0.00000  -0.00000  -0.00000  -0.00000
 245        2PX        -0.07291   0.00000  -0.00000  -0.00000  -0.00000
 246        2PY        -0.00374   0.00000  -0.00000  -0.00000  -0.00000
 247        2PZ         0.00000   0.06367  -0.04050   0.10504   0.00741
 248        3S         -0.00538   0.00000   0.00000   0.00000   0.00000
 249        3PX        -0.10470   0.00000   0.00000   0.00000  -0.00000
 250        3PY        -0.00542   0.00000  -0.00000  -0.00000  -0.00000
 251        3PZ         0.00000   0.10461  -0.06442   0.17305   0.01074
 252        4S         -0.02181  -0.00000   0.00000  -0.00000  -0.00000
 253        4PX        -0.09965   0.00000  -0.00000  -0.00000  -0.00000
 254        4PY        -0.02393  -0.00000   0.00000   0.00000  -0.00000
 255        4PZ         0.00000   0.09519  -0.07573   0.16786   0.01677
 256        5S         -0.27333  -0.00000   0.00001   0.00001  -0.00000
 257        5PX        -0.31794  -0.00000   0.00000   0.00000  -0.00000
 258        5PY         0.19606   0.00000  -0.00000  -0.00000   0.00000
 259        5PZ        -0.00000  -0.01500   0.03720  -0.01845   0.07234
 260        6D 0       -0.00005  -0.00000  -0.00000  -0.00000   0.00000
 261        6D+1       -0.00000  -0.01243  -0.00863   0.00010  -0.01172
 262        6D-1        0.00000   0.00485  -0.01355  -0.00588  -0.01448
 263        6D+2        0.00077   0.00000  -0.00000   0.00000  -0.00000
 264        6D-2       -0.01774   0.00000  -0.00000  -0.00000  -0.00000
 265 13  C  1S         -0.00099   0.00000   0.00000   0.00000  -0.00000
 266        2S         -0.00163   0.00000   0.00000   0.00000  -0.00000
 267        2PX         0.08648  -0.00000  -0.00000  -0.00000   0.00000
 268        2PY        -0.02397   0.00000   0.00000   0.00000  -0.00000
 269        2PZ        -0.00000  -0.00351  -0.07870  -0.07994   0.07215
 270        3S          0.00427  -0.00000  -0.00000   0.00000   0.00000
 271        3PX         0.12701  -0.00000  -0.00000  -0.00000   0.00000
 272        3PY        -0.03573   0.00000   0.00000   0.00000  -0.00000
 273        3PZ        -0.00000  -0.00476  -0.12770  -0.13240   0.11769
 274        4S          0.01750  -0.00000  -0.00000  -0.00000   0.00000
 275        4PX         0.12191  -0.00000  -0.00000  -0.00000   0.00000
 276        4PY        -0.01912   0.00000   0.00000   0.00000  -0.00000
 277        4PZ        -0.00000  -0.01821  -0.13406  -0.11637   0.11914
 278        5S         -0.08986  -0.00000  -0.00001  -0.00001  -0.00000
 279        5PX         0.17889   0.00000  -0.00000  -0.00000   0.00000
 280        5PY        -0.28875  -0.00000  -0.00001  -0.00001  -0.00000
 281        5PZ         0.00000  -0.01612   0.04164  -0.00506  -0.06840
 282        6D 0        0.00042   0.00000  -0.00000  -0.00000   0.00000
 283        6D+1       -0.00000   0.00960   0.01030  -0.00317  -0.01250
 284        6D-1        0.00000   0.01079   0.00997  -0.01192   0.00038
 285        6D+2        0.00235   0.00000  -0.00000  -0.00000   0.00000
 286        6D-2       -0.01937   0.00000   0.00000   0.00000  -0.00000
 287 14  C  1S         -0.00051   0.00000  -0.00000  -0.00000   0.00000
 288        2S         -0.00088   0.00000  -0.00000  -0.00000   0.00000
 289        2PX        -0.07422   0.00000   0.00000   0.00000  -0.00000
 290        2PY         0.02257  -0.00000  -0.00000  -0.00000   0.00000
 291        2PZ         0.00000   0.06587   0.03930  -0.10481   0.00604
 292        3S          0.00252  -0.00000   0.00000   0.00000  -0.00000
 293        3PX        -0.10667   0.00000   0.00000  -0.00000  -0.00000
 294        3PY         0.03267  -0.00000  -0.00000  -0.00000   0.00000
 295        3PZ         0.00000   0.10817   0.06261  -0.17263   0.00822
 296        4S          0.02361   0.00000   0.00000  -0.00000   0.00000
 297        4PX        -0.10590   0.00000   0.00000   0.00000  -0.00000
 298        4PY         0.04605   0.00000   0.00000   0.00000   0.00000
 299        4PZ         0.00000   0.09840   0.07336  -0.16793   0.01583
 300        5S          0.28733   0.00000   0.00001   0.00001   0.00000
 301        5PX        -0.30986  -0.00000  -0.00000  -0.00000  -0.00000
 302        5PY        -0.20771  -0.00000  -0.00000  -0.00000  -0.00000
 303        5PZ        -0.00000  -0.01548  -0.04430   0.01467   0.06958
 304        6D 0        0.00005   0.00000  -0.00000  -0.00000  -0.00000
 305        6D+1        0.00000   0.01242  -0.00970  -0.00061   0.01074
 306        6D-1        0.00000   0.00492   0.01485   0.00647  -0.01255
 307        6D+2        0.00251  -0.00000  -0.00000  -0.00000   0.00000
 308        6D-2       -0.01766   0.00000   0.00000   0.00000  -0.00000
 309 15  H  1S          0.00751  -0.00000   0.00000   0.00000   0.00000
 310        2S          0.00973  -0.00000   0.00000  -0.00000   0.00000
 311        3S          0.00344   0.00000  -0.00000  -0.00000   0.00000
 312        4S         -0.01384  -0.00000   0.00000   0.00000  -0.00000
 313        5PX        -0.00469   0.00000  -0.00000  -0.00000  -0.00000
 314        5PY         0.00083  -0.00000  -0.00000  -0.00000  -0.00000
 315        5PZ        -0.00000  -0.00477   0.00685  -0.00187   0.00690
 316 16  H  1S          0.05851  -0.00000  -0.00000  -0.00000   0.00000
 317        2S          0.08508  -0.00000   0.00000   0.00000   0.00000
 318        3S          0.03345   0.00000   0.00000   0.00000   0.00000
 319        4S          0.00749  -0.00000   0.00000   0.00000   0.00000
 320        5PX        -0.00207   0.00000  -0.00000  -0.00000   0.00000
 321        5PY         0.00446  -0.00000   0.00000   0.00000   0.00000
 322        5PZ         0.00000  -0.00655   0.00217  -0.00684   0.00080
 323 17  H  1S         -0.06145   0.00000  -0.00000  -0.00000  -0.00000
 324        2S         -0.08876   0.00000  -0.00000  -0.00000  -0.00000
 325        3S         -0.03406  -0.00000  -0.00000   0.00000  -0.00000
 326        4S         -0.00580  -0.00000  -0.00000  -0.00000  -0.00000
 327        5PX         0.00276  -0.00000   0.00000   0.00000   0.00000
 328        5PY         0.00402  -0.00000  -0.00000  -0.00000   0.00000
 329        5PZ         0.00000  -0.00488  -0.00431  -0.00547  -0.00644
 330 18  H  1S          0.00439  -0.00000   0.00000   0.00000   0.00000
 331        2S          0.00657  -0.00000   0.00000   0.00000   0.00000
 332        3S          0.00474  -0.00000   0.00000   0.00000   0.00000
 333        4S          0.01820  -0.00000   0.00000   0.00000   0.00000
 334        5PX         0.00443  -0.00000   0.00000   0.00000   0.00000
 335        5PY        -0.00002   0.00000  -0.00000  -0.00000  -0.00000
 336        5PZ         0.00000  -0.00021  -0.00713   0.00123  -0.00681
 337 19  H  1S         -0.00536  -0.00000   0.00000   0.00000   0.00000
 338        2S         -0.00773  -0.00000   0.00000   0.00000  -0.00000
 339        3S         -0.00374  -0.00000  -0.00000  -0.00000  -0.00000
 340        4S         -0.00057   0.00000  -0.00000  -0.00000  -0.00000
 341        5PX         0.00430  -0.00000  -0.00000  -0.00000   0.00000
 342        5PY         0.00014  -0.00000   0.00000   0.00000   0.00000
 343        5PZ         0.00000   0.00646  -0.00003  -0.00005   0.00059
 344 20  H  1S         -0.01668   0.00000   0.00000   0.00000  -0.00000
 345        2S         -0.02461   0.00000   0.00000   0.00000  -0.00000
 346        3S         -0.01329   0.00000   0.00000   0.00000  -0.00000
 347        4S         -0.01932   0.00000   0.00000   0.00000  -0.00000
 348        5PX         0.00435  -0.00000  -0.00000  -0.00000   0.00000
 349        5PY         0.00074  -0.00000  -0.00000  -0.00000   0.00000
 350        5PZ         0.00000  -0.00015   0.00775  -0.00085  -0.00608
 351 21  H  1S          0.06698  -0.00000  -0.00000  -0.00000   0.00000
 352        2S          0.09701  -0.00000  -0.00000  -0.00000   0.00000
 353        3S          0.03688   0.00000  -0.00000  -0.00000   0.00000
 354        4S          0.00579   0.00000  -0.00000  -0.00000   0.00000
 355        5PX         0.00345  -0.00000  -0.00000  -0.00000   0.00000
 356        5PY        -0.00364   0.00000  -0.00000  -0.00000  -0.00000
 357        5PZ         0.00000  -0.00486   0.00495   0.00572  -0.00567
 358 22  H  1S         -0.05145   0.00000   0.00000   0.00000  -0.00000
 359        2S         -0.07481   0.00000   0.00000   0.00000  -0.00000
 360        3S         -0.03015  -0.00000   0.00000   0.00000  -0.00000
 361        4S         -0.00800   0.00000   0.00000   0.00000  -0.00000
 362        5PX        -0.00133   0.00000   0.00000   0.00000   0.00000
 363        5PY        -0.00476   0.00000   0.00000   0.00000  -0.00000
 364        5PZ         0.00000  -0.00653  -0.00223   0.00672   0.00094
 365 23  H  1S         -0.01997   0.00000   0.00000   0.00000  -0.00000
 366        2S         -0.02754   0.00000   0.00000  -0.00000  -0.00000
 367        3S         -0.01071  -0.00000  -0.00000  -0.00000  -0.00000
 368        4S          0.01376   0.00000   0.00000   0.00000   0.00000
 369        5PX        -0.00468   0.00000   0.00000   0.00000  -0.00000
 370        5PY        -0.00151   0.00000  -0.00000  -0.00000   0.00000
 371        5PZ        -0.00000  -0.00476  -0.00749   0.00148   0.00622
 372 24  H  1S         -0.00423   0.00339   0.00312   0.00130  -0.05694
 373        2S         -0.00601  -0.00419   0.00489   0.00202  -0.09045
 374        3S         -0.00269  -0.02573   0.00395   0.00161  -0.07545
 375        4S          0.00018  -0.04573   0.00216   0.00085  -0.04095
 376        5PX        -0.00511  -0.00000   0.00236   0.00118   0.00021
 377        5PY         0.00009  -0.00088   0.00021   0.00008  -0.00336
 378        5PZ         0.00039  -0.00011  -0.00009  -0.00003   0.00165
 379 25  H  1S         -0.00423  -0.00339  -0.00312  -0.00130   0.05694
 380        2S         -0.00601   0.00419  -0.00489  -0.00202   0.09045
 381        3S         -0.00269   0.02573  -0.00395  -0.00161   0.07545
 382        4S          0.00018   0.04573  -0.00216  -0.00085   0.04095
 383        5PX        -0.00511   0.00000  -0.00236  -0.00118  -0.00021
 384        5PY         0.00009   0.00088  -0.00021  -0.00008   0.00336
 385        5PZ        -0.00039  -0.00011  -0.00009  -0.00003   0.00165
                          48        49        50        51        52
                           V         V         V         V         V
     Eigenvalues --    -0.26105  -0.14708  -0.14148  -0.12843  -0.11167
   1 1   C  1S         -0.00000  -0.00000  -0.00000   0.00000  -0.00620
   2        2S         -0.00000  -0.00000  -0.00000   0.00000  -0.01050
   3        2PX         0.00000  -0.00000  -0.00000  -0.00000   0.00349
   4        2PY        -0.00000  -0.00000  -0.00000   0.00000  -0.01536
   5        2PZ        -0.00428   0.09667  -0.00339  -0.10762  -0.00000
   6        3S          0.00000   0.00000  -0.00000  -0.00000   0.03414
   7        3PX         0.00000  -0.00000   0.00000   0.00000   0.00337
   8        3PY        -0.00000  -0.00000   0.00000   0.00000  -0.02257
   9        3PZ        -0.00651   0.14856  -0.00473  -0.17035  -0.00000
  10        4S          0.00000   0.00000   0.00000   0.00000   0.02982
  11        4PX         0.00000   0.00000  -0.00000  -0.00000   0.02608
  12        4PY         0.00000   0.00000   0.00000   0.00000  -0.08020
  13        4PZ        -0.00586   0.27991  -0.00278  -0.30352  -0.00000
  14        5S          0.00000  -0.00000   0.00001   0.00001  -1.73714
  15        5PX        -0.00000   0.00000  -0.00002  -0.00001   0.96931
  16        5PY        -0.00000   0.00000  -0.00000  -0.00000  -0.46029
  17        5PZ         0.01061   0.20864   0.03054  -0.35066  -0.00000
  18        6D 0        0.00000   0.00000   0.00000  -0.00000  -0.00561
  19        6D+1        0.01740   0.00594   0.02567  -0.00257   0.00000
  20        6D-1       -0.00187  -0.00860   0.00105   0.00880  -0.00000
  21        6D+2        0.00000   0.00000  -0.00000  -0.00000   0.00154
  22        6D-2        0.00000  -0.00000  -0.00000  -0.00000  -0.00127
  23 2   C  1S         -0.00000  -0.00000   0.00000   0.00000  -0.00495
  24        2S         -0.00000  -0.00000   0.00000   0.00000  -0.00820
  25        2PX        -0.00000   0.00000   0.00000  -0.00000   0.00733
  26        2PY        -0.00000  -0.00000   0.00000  -0.00000  -0.00078
  27        2PZ         0.08367  -0.02257   0.10025   0.04518   0.00000
  28        3S          0.00000   0.00000  -0.00000  -0.00000   0.02371
  29        3PX        -0.00000   0.00000   0.00000  -0.00000   0.01220
  30        3PY        -0.00000   0.00000   0.00000  -0.00000  -0.00294
  31        3PZ         0.13705  -0.03475   0.15962   0.07116   0.00000
  32        4S         -0.00000  -0.00000  -0.00000   0.00000   0.11373
  33        4PX         0.00000   0.00000   0.00000   0.00000  -0.00012
  34        4PY         0.00000  -0.00000  -0.00000  -0.00000   0.01122
  35        4PZ         0.15957  -0.06587   0.26570   0.12532   0.00000
  36        5S         -0.00000  -0.00000   0.00000   0.00000   0.40888
  37        5PX         0.00000   0.00000  -0.00000  -0.00000   0.27117
  38        5PY        -0.00000   0.00000  -0.00001  -0.00001   0.41211
  39        5PZ         0.05043  -0.05080   0.21643   0.13286   0.00000
  40        6D 0        0.00000   0.00000  -0.00000   0.00000  -0.00374
  41        6D+1        0.00185  -0.01238   0.00069   0.01477   0.00000
  42        6D-1        0.00101  -0.01999  -0.01264   0.01970   0.00000
  43        6D+2       -0.00000  -0.00000   0.00000   0.00000  -0.00220
  44        6D-2        0.00000   0.00000  -0.00000  -0.00000   0.00405
  45 3   C  1S         -0.00000  -0.00000  -0.00000   0.00000  -0.00423
  46        2S         -0.00000  -0.00000   0.00000   0.00000  -0.00700
  47        2PX        -0.00000  -0.00000  -0.00000   0.00000   0.00794
  48        2PY        -0.00000  -0.00000   0.00000   0.00000   0.00084
  49        2PZ         0.01083  -0.08062  -0.08204   0.06804  -0.00000
  50        3S          0.00000   0.00000  -0.00000  -0.00000   0.02018
  51        3PX        -0.00000  -0.00000  -0.00000  -0.00000   0.01382
  52        3PY        -0.00000  -0.00000   0.00000   0.00000   0.00222
  53        3PZ         0.01916  -0.12658  -0.13014   0.10663  -0.00000
  54        4S          0.00000   0.00000   0.00000   0.00000   0.07453
  55        4PX        -0.00000  -0.00000  -0.00000  -0.00000   0.01569
  56        4PY        -0.00000  -0.00000  -0.00000  -0.00000   0.02144
  57        4PZ         0.01269  -0.22169  -0.22116   0.18809  -0.00000
  58        5S          0.00000  -0.00000   0.00001   0.00001   0.23113
  59        5PX        -0.00000  -0.00000   0.00000   0.00000  -0.02278
  60        5PY        -0.00000   0.00000  -0.00001  -0.00001   0.43540
  61        5PZ         0.00217  -0.16905  -0.17198   0.19038  -0.00000
  62        6D 0        0.00000   0.00000   0.00000   0.00000  -0.00402
  63        6D+1        0.00977  -0.01065   0.00379   0.01435   0.00000
  64        6D-1       -0.01466   0.00981  -0.01658  -0.01556  -0.00000
  65        6D+2        0.00000   0.00000   0.00000   0.00000  -0.00256
  66        6D-2        0.00000  -0.00000  -0.00000   0.00000  -0.00373
  67 4   C  1S         -0.00000  -0.00000  -0.00000   0.00000  -0.00660
  68        2S         -0.00000  -0.00000  -0.00000   0.00000  -0.01111
  69        2PX        -0.00000  -0.00000  -0.00000  -0.00000   0.00390
  70        2PY        -0.00000  -0.00000  -0.00000  -0.00000   0.01731
  71        2PZ        -0.07812   0.08849  -0.02466  -0.10843  -0.00000
  72        3S          0.00000   0.00000   0.00000  -0.00000   0.03323
  73        3PX        -0.00000  -0.00000   0.00000   0.00000   0.00418
  74        3PY        -0.00000  -0.00000   0.00000  -0.00000   0.02351
  75        3PZ        -0.12663   0.13554  -0.03982  -0.17233  -0.00000
  76        4S         -0.00000  -0.00000  -0.00000  -0.00000   0.20515
  77        4PX        -0.00000  -0.00000   0.00000   0.00000  -0.04810
  78        4PY         0.00000   0.00000   0.00000   0.00000   0.03347
  79        4PZ        -0.14652   0.26708  -0.07691  -0.30101  -0.00000
  80        5S          0.00000  -0.00000  -0.00000  -0.00000   1.73180
  81        5PX        -0.00000   0.00000   0.00000   0.00000  -0.89794
  82        5PY         0.00000   0.00000   0.00000   0.00000   0.65730
  83        5PZ        -0.03526   0.24830  -0.11956  -0.33852  -0.00000
  84        6D 0        0.00000   0.00000   0.00000   0.00000  -0.00569
  85        6D+1        0.00138  -0.01172  -0.02546   0.00407  -0.00000
  86        6D-1        0.00368   0.00721  -0.00100  -0.00932  -0.00000
  87        6D+2        0.00000   0.00000   0.00000  -0.00000   0.00109
  88        6D-2       -0.00000  -0.00000  -0.00000   0.00000   0.00223
  89 5   C  1S          0.00000   0.00000  -0.00000   0.00000  -0.00676
  90        2S          0.00000   0.00000  -0.00000   0.00000  -0.01138
  91        2PX        -0.00000  -0.00000   0.00000   0.00000  -0.00388
  92        2PY         0.00000   0.00000  -0.00000  -0.00000   0.01765
  93        2PZ        -0.07938   0.08811   0.02001   0.10903   0.00000
  94        3S         -0.00000  -0.00000   0.00000  -0.00000   0.03410
  95        3PX        -0.00000  -0.00000  -0.00000  -0.00000  -0.00415
  96        3PY         0.00000   0.00000   0.00000  -0.00000   0.02400
  97        3PZ        -0.12871   0.13505   0.03254   0.17328   0.00000
  98        4S          0.00000   0.00000  -0.00000  -0.00000   0.20609
  99        4PX        -0.00000  -0.00000  -0.00000  -0.00000   0.04830
 100        4PY        -0.00000  -0.00000   0.00000   0.00000   0.03572
 101        4PZ        -0.14932   0.26747   0.06270   0.30434   0.00000
 102        5S         -0.00000   0.00000  -0.00001  -0.00000   1.71086
 103        5PX        -0.00000   0.00000  -0.00001  -0.00000   0.91410
 104        5PY        -0.00000  -0.00000   0.00000   0.00000   0.67413
 105        5PZ        -0.03638   0.25121   0.10759   0.34538   0.00000
 106        6D 0       -0.00000  -0.00000   0.00000   0.00000  -0.00575
 107        6D+1       -0.00125   0.01069  -0.02629   0.00406  -0.00000
 108        6D-1        0.00367   0.00721   0.00081   0.00954   0.00000
 109        6D+2       -0.00000  -0.00000   0.00000  -0.00000   0.00121
 110        6D-2       -0.00000  -0.00000   0.00000  -0.00000  -0.00225
 111 6   C  1S          0.00000   0.00000  -0.00000   0.00000  -0.00437
 112        2S          0.00000   0.00000  -0.00000   0.00000  -0.00724
 113        2PX         0.00000  -0.00000   0.00000  -0.00000  -0.00825
 114        2PY         0.00000   0.00000   0.00000   0.00000   0.00098
 115        2PZ         0.01031  -0.07627   0.08643  -0.06810   0.00000
 116        3S         -0.00000  -0.00000  -0.00000  -0.00000   0.02092
 117        3PX        -0.00000  -0.00000   0.00000   0.00000  -0.01423
 118        3PY         0.00000   0.00000   0.00000   0.00000   0.00244
 119        3PZ         0.01842  -0.11977   0.13711  -0.10676   0.00000
 120        4S         -0.00000  -0.00000   0.00000   0.00000   0.07778
 121        4PX        -0.00000  -0.00000   0.00000   0.00000  -0.01650
 122        4PY         0.00000   0.00000  -0.00000  -0.00000   0.02173
 123        4PZ         0.01189  -0.21134   0.23336  -0.18985   0.00000
 124        5S         -0.00000   0.00000   0.00001   0.00001   0.25164
 125        5PX        -0.00000  -0.00000  -0.00000  -0.00000   0.02185
 126        5PY         0.00000  -0.00000  -0.00001  -0.00001   0.45088
 127        5PZ         0.00188  -0.16159   0.18270  -0.19320   0.00000
 128        6D 0       -0.00000  -0.00000   0.00000   0.00000  -0.00410
 129        6D+1       -0.00996   0.01067   0.00313   0.01445   0.00000
 130        6D-1       -0.01507   0.01040   0.01622   0.01587   0.00000
 131        6D+2       -0.00000  -0.00000   0.00000   0.00000  -0.00265
 132        6D-2        0.00000  -0.00000   0.00000  -0.00000   0.00385
 133 7   C  1S          0.00000   0.00000   0.00000   0.00000  -0.00510
 134        2S          0.00000   0.00000   0.00000   0.00000  -0.00847
 135        2PX        -0.00000   0.00000  -0.00000   0.00000  -0.00767
 136        2PY         0.00000   0.00000   0.00000  -0.00000  -0.00088
 137        2PZ         0.08605  -0.02610  -0.09994  -0.04601  -0.00000
 138        3S         -0.00000  -0.00000  -0.00000  -0.00000   0.02455
 139        3PX        -0.00000   0.00000  -0.00000   0.00000  -0.01268
 140        3PY         0.00000  -0.00000   0.00000  -0.00000  -0.00312
 141        3PZ         0.14092  -0.04039  -0.15914  -0.07246  -0.00000
 142        4S          0.00000   0.00000  -0.00000   0.00000   0.11632
 143        4PX         0.00000   0.00000  -0.00000  -0.00000  -0.00103
 144        4PY         0.00000  -0.00000  -0.00000  -0.00000   0.01106
 145        4PZ         0.16440  -0.07526  -0.26527  -0.12802  -0.00000
 146        5S          0.00000   0.00000   0.00000   0.00000   0.37032
 147        5PX         0.00000   0.00000   0.00000   0.00000  -0.29383
 148        5PY         0.00000  -0.00000  -0.00001  -0.00001   0.42486
 149        5PZ         0.05212  -0.05882  -0.21712  -0.13547  -0.00000
 150        6D 0       -0.00000  -0.00000  -0.00000   0.00000  -0.00383
 151        6D+1       -0.00189   0.01227   0.00018   0.01497   0.00000
 152        6D-1        0.00093  -0.01925   0.01355  -0.01988  -0.00000
 153        6D+2        0.00000   0.00000  -0.00000   0.00000  -0.00223
 154        6D-2        0.00000   0.00000   0.00000   0.00000  -0.00417
 155 8   C  1S          0.00000   0.00000  -0.00000   0.00000  -0.00635
 156        2S          0.00000   0.00000  -0.00000   0.00000  -0.01076
 157        2PX         0.00000   0.00000   0.00000   0.00000  -0.00350
 158        2PY         0.00000   0.00000  -0.00000   0.00000  -0.01557
 159        2PZ        -0.00430   0.09541   0.00027   0.10895   0.00000
 160        3S         -0.00000  -0.00000  -0.00000  -0.00000   0.03488
 161        3PX         0.00000  -0.00000  -0.00000  -0.00000  -0.00336
 162        3PY         0.00000   0.00000   0.00000   0.00000  -0.02286
 163        3PZ        -0.00647   0.14664  -0.00001   0.17254   0.00000
 164        4S         -0.00000  -0.00000   0.00000   0.00000   0.03248
 165        4PX         0.00000   0.00000   0.00000   0.00000  -0.02615
 166        4PY        -0.00000  -0.00000   0.00000   0.00000  -0.08088
 167        4PZ        -0.00562   0.27714  -0.00713   0.30851   0.00000
 168        5S         -0.00000   0.00000   0.00001   0.00001  -1.76557
 169        5PX        -0.00000   0.00000   0.00002   0.00001  -1.01308
 170        5PY         0.00000  -0.00000  -0.00000  -0.00000  -0.46580
 171        5PZ         0.01085   0.20635  -0.03772   0.35617   0.00000
 172        6D 0       -0.00000  -0.00000   0.00000  -0.00000  -0.00570
 173        6D+1       -0.01787  -0.00498   0.02606  -0.00261   0.00000
 174        6D-1       -0.00187  -0.00858  -0.00078  -0.00899   0.00000
 175        6D+2       -0.00000  -0.00000  -0.00000  -0.00000   0.00158
 176        6D-2        0.00000  -0.00000   0.00000   0.00000   0.00132
 177 9   C  1S         -0.00000   0.00000   0.00000   0.00000  -0.01414
 178        2S         -0.00000   0.00000   0.00000   0.00000  -0.02377
 179        2PX         0.00000  -0.00000   0.00000   0.00000   0.00012
 180        2PY        -0.00000   0.00000   0.00000   0.00000  -0.03085
 181        2PZ         0.02878  -0.01363   0.00042  -0.00012   0.00000
 182        3S          0.00000   0.00000  -0.00000   0.00000   0.06209
 183        3PX         0.00000  -0.00000   0.00000  -0.00000   0.00020
 184        3PY         0.00000   0.00000   0.00000   0.00000  -0.04675
 185        3PZ         0.03836  -0.02076   0.00059  -0.00018   0.00000
 186        4S          0.00000  -0.00000  -0.00001  -0.00000   0.43752
 187        4PX        -0.00000   0.00000  -0.00000  -0.00000   0.00122
 188        4PY        -0.00000   0.00000   0.00000   0.00000  -0.02398
 189        4PZ         0.07646  -0.11214   0.00382   0.00003   0.00000
 190        5S          0.00000  -0.00000  -0.00002  -0.00002   0.81771
 191        5PX        -0.00000   0.00000   0.00000   0.00000  -0.02412
 192        5PY         0.00000  -0.00000  -0.00000  -0.00000  -0.47121
 193        5PZ         0.13147  -0.44880   0.01329  -0.00128   0.00000
 194        6D 0        0.00000   0.00000   0.00000  -0.00000  -0.00879
 195        6D+1        0.00020  -0.00052  -0.02507   0.01258  -0.00000
 196        6D-1       -0.01960  -0.02910   0.00044  -0.00015  -0.00000
 197        6D+2       -0.00000  -0.00000   0.00000   0.00000   0.00242
 198        6D-2        0.00000   0.00000  -0.00000   0.00000  -0.00003
 199 10  C  1S         -0.00000  -0.00000   0.00000   0.00000  -0.01077
 200        2S         -0.00000  -0.00000   0.00000   0.00000  -0.01836
 201        2PX        -0.00000  -0.00000   0.00000  -0.00000   0.00009
 202        2PY        -0.00000   0.00000   0.00000  -0.00000   0.02390
 203        2PZ         0.17326   0.01303   0.00181   0.00095   0.00000
 204        3S          0.00000  -0.00000  -0.00000  -0.00000   0.06127
 205        3PX        -0.00000  -0.00000   0.00000  -0.00000   0.00015
 206        3PY         0.00000  -0.00000  -0.00000  -0.00000   0.03348
 207        3PZ         0.28192   0.01831   0.00299   0.00150   0.00000
 208        4S         -0.00000   0.00000   0.00000   0.00000   0.06865
 209        4PX        -0.00000  -0.00000   0.00000   0.00000  -0.00048
 210        4PY         0.00000  -0.00000  -0.00000  -0.00000   0.20873
 211        4PZ         0.35060   0.06421   0.00483   0.00326   0.00000
 212        5S          0.00000  -0.00000  -0.00001  -0.00001   1.55411
 213        5PX         0.00000   0.00000  -0.00000  -0.00000  -0.02208
 214        5PY         0.00000  -0.00000  -0.00000  -0.00000   1.96797
 215        5PZ         0.09903   0.32863  -0.00078   0.00659   0.00000
 216        6D 0        0.00000  -0.00000  -0.00000  -0.00000  -0.00749
 217        6D+1       -0.00007   0.00054   0.03047   0.00784   0.00000
 218        6D-1        0.00090   0.01309  -0.00010   0.00021   0.00000
 219        6D+2       -0.00000   0.00000   0.00000  -0.00000   0.00107
 220        6D-2        0.00000   0.00000  -0.00000  -0.00000   0.00002
 221 11  C  1S         -0.00000  -0.00000   0.00000   0.00000  -0.00604
 222        2S         -0.00000  -0.00000   0.00000   0.00000  -0.01039
 223        2PX        -0.00000  -0.00000  -0.00000  -0.00000   0.00240
 224        2PY        -0.00000  -0.00000  -0.00000  -0.00000   0.00964
 225        2PZ        -0.08694  -0.08370  -0.09624   0.07128  -0.00000
 226        3S          0.00000   0.00000  -0.00000  -0.00000   0.04144
 227        3PX        -0.00000  -0.00000  -0.00000  -0.00000   0.00337
 228        3PY        -0.00000  -0.00000   0.00000  -0.00000   0.01388
 229        3PZ        -0.14008  -0.12980  -0.15081   0.11628  -0.00000
 230        4S          0.00000   0.00000   0.00000   0.00000  -0.01243
 231        4PX        -0.00000  -0.00000  -0.00000  -0.00000   0.11993
 232        4PY        -0.00000  -0.00000  -0.00000   0.00000   0.00394
 233        4PZ        -0.18245  -0.21930  -0.29124   0.19323  -0.00000
 234        5S          0.00000   0.00000   0.00002   0.00002  -3.86966
 235        5PX         0.00000  -0.00000  -0.00001  -0.00001   0.92321
 236        5PY        -0.00000  -0.00000   0.00003   0.00002  -2.30855
 237        5PZ        -0.11033   0.04819  -0.37853   0.22917  -0.00000
 238        6D 0        0.00000   0.00000   0.00000  -0.00000  -0.00783
 239        6D+1       -0.00422   0.01757   0.00019  -0.01451  -0.00000
 240        6D-1       -0.00465  -0.01322   0.01811   0.01633   0.00000
 241        6D+2        0.00000   0.00000   0.00000  -0.00000  -0.00552
 242        6D-2        0.00000  -0.00000   0.00000   0.00000   0.00149
 243 12  C  1S          0.00000   0.00000   0.00000   0.00000  -0.00666
 244        2S          0.00000   0.00000   0.00000   0.00000  -0.01134
 245        2PX         0.00000   0.00000   0.00000   0.00000   0.00088
 246        2PY         0.00000   0.00000   0.00000   0.00000  -0.01042
 247        2PZ        -0.01789  -0.01093   0.10802   0.04950   0.00000
 248        3S         -0.00000  -0.00000  -0.00000   0.00000   0.03928
 249        3PX         0.00000   0.00000  -0.00000  -0.00000   0.00391
 250        3PY         0.00000   0.00000   0.00000   0.00000  -0.01439
 251        3PZ        -0.02892  -0.01095   0.17081   0.08353   0.00000
 252        4S          0.00000  -0.00000  -0.00000  -0.00000   0.14138
 253        4PX         0.00000   0.00000   0.00000   0.00000  -0.14219
 254        4PY         0.00000   0.00000  -0.00000   0.00000  -0.08518
 255        4PZ        -0.03663  -0.06655   0.32588   0.12728   0.00000
 256        5S         -0.00000   0.00000  -0.00004  -0.00003   5.20889
 257        5PX        -0.00000   0.00000  -0.00000  -0.00000  -0.55146
 258        5PY        -0.00000  -0.00000   0.00002   0.00001  -3.79728
 259        5PZ         0.00128  -0.29009   0.41640   0.14168   0.00000
 260        6D 0       -0.00000  -0.00000   0.00000   0.00000  -0.00845
 261        6D+1       -0.02646   0.01398  -0.00461  -0.01446  -0.00000
 262        6D-1        0.01631   0.02347   0.01438  -0.01956   0.00000
 263        6D+2        0.00000  -0.00000  -0.00000   0.00000  -0.00466
 264        6D-2        0.00000   0.00000   0.00000   0.00000  -0.00243
 265 13  C  1S          0.00000   0.00000   0.00000   0.00000  -0.00612
 266        2S          0.00000   0.00000   0.00000   0.00000  -0.01052
 267        2PX        -0.00000  -0.00000   0.00000   0.00000  -0.00231
 268        2PY         0.00000   0.00000  -0.00000  -0.00000   0.00969
 269        2PZ        -0.08831  -0.07881   0.09928  -0.07195   0.00000
 270        3S         -0.00000  -0.00000  -0.00000  -0.00000   0.04190
 271        3PX        -0.00000  -0.00000   0.00000   0.00000  -0.00319
 272        3PY         0.00000   0.00000  -0.00000  -0.00000   0.01404
 273        3PZ        -0.14228  -0.12219   0.15558  -0.11735   0.00000
 274        4S         -0.00000  -0.00000   0.00000  -0.00000  -0.00962
 275        4PX        -0.00000  -0.00000   0.00000   0.00000  -0.11838
 276        4PY         0.00000   0.00000  -0.00000   0.00000   0.00240
 277        4PZ        -0.18553  -0.20593   0.29858  -0.19645   0.00000
 278        5S         -0.00000  -0.00000   0.00002   0.00002  -3.92080
 279        5PX         0.00000  -0.00000   0.00001   0.00001  -0.96774
 280        5PY        -0.00000   0.00001   0.00003   0.00002  -2.32301
[...]
 189        4PZ         0.39774
 190        5S          0.34445
 191        5PX        -0.27126
 192        5PY         0.03774
 193        5PZ        -0.02759
 194        6D 0        0.00832
 195        6D+1        0.00843
 196        6D-1        0.01219
 197        6D+2        0.01207
 198        6D-2        0.01353
 199 10  C  1S          1.10550
 200        2S          0.88523
 201        2PX         0.24232
 202        2PY         0.24069
 203        2PZ         0.11389
 204        3S          0.80071
 205        3PX         0.55229
 206        3PY         0.55023
 207        3PZ         0.30896
 208        4S          0.41186
 209        4PX         0.15651
 210        4PY         0.34616
 211        4PZ         0.25601
 212        5S          0.03499
 213        5PX        -0.38686
 214        5PY         0.19924
 215        5PZ         0.04216
 216        6D 0        0.00298
 217        6D+1        0.01278
 218        6D-1        0.00356
 219        6D+2        0.02115
 220        6D-2        0.01516
 221 11  C  1S          1.10532
 222        2S          0.88557
 223        2PX         0.23178
 224        2PY         0.23376
 225        2PZ         0.15236
 226        3S          0.76789
 227        3PX         0.53318
 228        3PY         0.53137
 229        3PZ         0.40119
 230        4S          0.40732
 231        4PX         0.26844
 232        4PY         0.21921
 233        4PZ         0.32554
 234        5S          0.13830
 235        5PX        -0.28205
 236        5PY         0.62932
 237        5PZ         0.01405
 238        6D 0        0.00391
 239        6D+1        0.00975
 240        6D-1        0.01060
 241        6D+2        0.02133
 242        6D-2        0.02069
 243 12  C  1S          1.10520
 244        2S          0.88564
 245        2PX         0.23073
 246        2PY         0.23323
 247        2PZ         0.17418
 248        3S          0.75261
 249        3PX         0.52632
 250        3PY         0.53213
 251        3PZ         0.45981
 252        4S          0.37354
 253        4PX         0.14890
 254        4PY         0.19375
 255        4PZ         0.39630
 256        5S         -0.54520
 257        5PX        -0.46815
 258        5PY         0.30675
 259        5PZ        -0.06085
 260        6D 0        0.00446
 261        6D+1        0.00734
 262        6D-1        0.00899
 263        6D+2        0.02271
 264        6D-2        0.02253
 265 13  C  1S          1.10532
 266        2S          0.88556
 267        2PX         0.23254
 268        2PY         0.23344
 269        2PZ         0.15203
 270        3S          0.76826
 271        3PX         0.53375
 272        3PY         0.53139
 273        3PZ         0.40053
 274        4S          0.40593
 275        4PX         0.26766
 276        4PY         0.22003
 277        4PZ         0.32422
 278        5S          0.14137
 279        5PX        -0.27975
 280        5PY         0.62842
 281        5PZ         0.01368
 282        6D 0        0.00391
 283        6D+1        0.00987
 284        6D-1        0.01051
 285        6D+2        0.02150
 286        6D-2        0.02067
 287 14  C  1S          1.10520
 288        2S          0.88565
 289        2PX         0.23104
 290        2PY         0.23274
 291        2PZ         0.17407
 292        3S          0.75263
 293        3PX         0.52669
 294        3PY         0.53178
 295        3PZ         0.45954
 296        4S          0.37481
 297        4PX         0.15003
 298        4PY         0.19407
 299        4PZ         0.39642
 300        5S         -0.55115
 301        5PX        -0.46766
 302        5PY         0.30747
 303        5PZ        -0.06068
 304        6D 0        0.00446
 305        6D+1        0.00732
 306        6D-1        0.00888
 307        6D+2        0.02270
 308        6D-2        0.02248
 309 15  H  1S          0.27350
 310        2S          0.46377
 311        3S          0.03316
 312        4S         -0.03147
 313        5PX         0.00335
 314        5PY         0.01483
 315        5PZ         0.00465
 316 16  H  1S          0.27350
 317        2S          0.46242
 318        3S          0.01285
 319        4S         -0.02826
 320        5PX         0.01255
 321        5PY         0.00646
 322        5PZ         0.00383
 323 17  H  1S          0.27328
 324        2S          0.46297
 325        3S          0.01981
 326        4S         -0.02848
 327        5PX         0.01197
 328        5PY         0.00651
 329        5PZ         0.00449
 330 18  H  1S          0.27358
 331        2S          0.46493
 332        3S          0.03525
 333        4S         -0.01946
 334        5PX         0.00344
 335        5PY         0.01510
 336        5PZ         0.00442
 337 19  H  1S          0.27266
 338        2S          0.45380
 339        3S          0.01698
 340        4S          0.04240
 341        5PX         0.00338
 342        5PY         0.01638
 343        5PZ         0.00289
 344 20  H  1S          0.27360
 345        2S          0.46491
 346        3S          0.03478
 347        4S         -0.01949
 348        5PX         0.00345
 349        5PY         0.01513
 350        5PZ         0.00440
 351 21  H  1S          0.27329
 352        2S          0.46292
 353        3S          0.01951
 354        4S         -0.02864
 355        5PX         0.01203
 356        5PY         0.00647
 357        5PZ         0.00448
 358 22  H  1S          0.27345
 359        2S          0.46227
 360        3S          0.01239
 361        4S         -0.02843
 362        5PX         0.01255
 363        5PY         0.00647
 364        5PZ         0.00380
 365 23  H  1S          0.27346
 366        2S          0.46372
 367        3S          0.03281
 368        4S         -0.03135
 369        5PX         0.00335
 370        5PY         0.01486
 371        5PZ         0.00464
 372 24  H  1S          0.26362
 373        2S          0.42804
 374        3S          0.01129
 375        4S          0.02739
 376        5PX         0.00341
 377        5PY         0.00770
 378        5PZ         0.00922
 379 25  H  1S          0.26362
 380        2S          0.42804
 381        3S          0.01129
 382        4S          0.02739
 383        5PX         0.00341
 384        5PY         0.00770
 385        5PZ         0.00922
          Condensed to atoms (all electrons):
               1          2          3          4          5          6
     1  C    8.571190   0.275083  -0.516706   1.987374  -0.038420  -0.094446
     2  C    0.275083   7.126201   0.331502  -1.088084  -0.012355  -0.013860
     3  C   -0.516706   0.331502   6.568156   0.783172  -0.123440   0.016366
     4  C    1.987374  -1.088084   0.783172  10.903588  -0.367743  -0.120916
     5  C   -0.038420  -0.012355  -0.123440  -0.367743  11.012803   0.773933
     6  C   -0.094446  -0.013860   0.016366  -0.120916   0.773933   6.571178
     7  C   -0.014539   0.000921  -0.013857  -0.016536  -1.081979   0.350508
     8  C    0.398937  -0.016468  -0.092883  -0.033848   1.958267  -0.533833
     9  C   -1.118499  -0.799875   0.294443  -0.211569  -0.172651   0.293084
    10  C   -1.274045   0.261196  -0.359115  -2.529709  -2.560321  -0.344074
    11  C    0.308357  -0.906911   1.013218  -0.276877  -1.480147  -0.176168
    12  C   -2.140344   1.396102  -1.406934  -1.604769  -0.346683  -0.189866
    13  C    0.222835  -0.249913  -0.162535  -1.460297  -0.302631   0.984257
    14  C   -1.061003  -0.177826  -0.207411  -0.318895  -1.617550  -1.393168
    15  H    0.368000  -0.106987  -0.000448   0.027654   0.005531   0.001068
    16  H   -0.018711   0.378267  -0.017389   0.012983  -0.001497  -0.000320
    17  H   -0.025637  -0.016318   0.373772  -0.066655   0.000321   0.000393
    18  H    0.049916   0.003285  -0.084350   0.454964   0.005957  -0.005056
    19  H   -0.045932  -0.007721   0.050728  -0.066240  -0.068843   0.050449
    20  H    0.007021   0.002035  -0.005048   0.005939   0.456925  -0.084432
    21  H   -0.001302  -0.000387   0.000393   0.000300  -0.066842   0.374827
    22  H    0.000772   0.000364  -0.000323  -0.001516   0.013486  -0.017961
    23  H    0.005462  -0.002647   0.001081   0.005665   0.027512  -0.000952
    24  H    0.032626   0.014231  -0.001588  -0.011980  -0.011928  -0.001570
    25  H    0.032627   0.014231  -0.001588  -0.011980  -0.011929  -0.001570
               7          8          9         10         11         12
     1  C   -0.014539   0.398937  -1.118499  -1.274045   0.308357  -2.140344
     2  C    0.000921  -0.016468  -0.799875   0.261196  -0.906911   1.396102
     3  C   -0.013857  -0.092883   0.294443  -0.359115   1.013218  -1.406934
     4  C   -0.016536  -0.033848  -0.211569  -2.529709  -0.276877  -1.604769
     5  C   -1.081979   1.958267  -0.172651  -2.560321  -1.480147  -0.346683
     6  C    0.350508  -0.533833   0.293084  -0.344074  -0.176168  -0.189866
     7  C    7.129336   0.307652  -0.810320   0.247244  -0.240428  -0.194567
     8  C    0.307652   8.530007  -1.114755  -1.260955   0.221721  -1.076848
     9  C   -0.810320  -1.114755   9.530863   0.244657   1.556816  -1.892324
    10  C    0.247244  -1.260955   0.244657   9.071983  -0.421269   2.391618
    11  C   -0.240428   0.221721   1.556816  -0.421269  14.323531  -3.684330
    12  C   -0.194567  -1.076848  -1.892324   2.391618  -3.684330  15.935445
    13  C   -0.881591   0.310115   1.560736  -0.393105   1.075587  -4.753345
    14  C    1.343046  -2.090959  -1.935360   2.382091  -4.732717   3.091860
    15  H   -0.002599   0.005612   0.091004  -0.009838  -0.030338  -0.026169
    16  H    0.000357   0.000718   0.003513  -0.009020   0.025953  -0.032294
    17  H   -0.000390  -0.001295  -0.005692   0.020182  -0.027187   0.092090
    18  H    0.002029   0.006992  -0.024460   0.013499  -0.007267  -0.054215
    19  H   -0.007606  -0.045557   0.073785   0.420303   0.076570  -0.062726
    20  H    0.003264   0.049541  -0.024099   0.012590  -0.011617  -0.014603
    21  H   -0.017670  -0.024457  -0.005532   0.020001  -0.006217   0.005135
    22  H    0.378634  -0.018843   0.003498  -0.009146   0.003069  -0.009079
    23  H   -0.106724   0.367839   0.090769  -0.009597   0.001337   0.006720
    24  H    0.014482   0.033395   0.355783   0.005167   0.012072  -0.059477
    25  H    0.014482   0.033395   0.355783   0.005167   0.012071  -0.059477
              13         14         15         16         17         18
     1  C    0.222835  -1.061003   0.368000  -0.018711  -0.025637   0.049916
     2  C   -0.249913  -0.177826  -0.106987   0.378267  -0.016318   0.003285
     3  C   -0.162535  -0.207411  -0.000448  -0.017389   0.373772  -0.084350
     4  C   -1.460297  -0.318895   0.027654   0.012983  -0.066655   0.454964
     5  C   -0.302631  -1.617550   0.005531  -0.001497   0.000321   0.005957
     6  C    0.984257  -1.393168   0.001068  -0.000320   0.000393  -0.005056
     7  C   -0.881591   1.343046  -0.002599   0.000357  -0.000390   0.002029
     8  C    0.310115  -2.090959   0.005612   0.000718  -0.001295   0.006992
     9  C    1.560736  -1.935360   0.091004   0.003513  -0.005692  -0.024460
    10  C   -0.393105   2.382091  -0.009838  -0.009020   0.020182   0.013499
    11  C    1.075587  -4.732717  -0.030338   0.025953  -0.027187  -0.007267
    12  C   -4.753345   3.091860  -0.026169  -0.032294   0.092090  -0.054215
    13  C   14.362012  -3.733899   0.002254   0.002952  -0.006218  -0.011586
    14  C   -3.733899  15.976144   0.006423  -0.008833   0.005118  -0.012987
    15  H    0.002254   0.006423   0.439187  -0.009021   0.001457   0.000167
    16  H    0.002952  -0.008833  -0.009021   0.419659  -0.006501   0.001905
    17  H   -0.006218   0.005118   0.001457  -0.006501   0.422317  -0.010188
    18  H   -0.011586  -0.012987   0.000167   0.001905  -0.010188   0.453487
    19  H    0.075876  -0.067461   0.000294  -0.000528   0.001383  -0.006201
    20  H   -0.007799  -0.052836  -0.000109   0.000015  -0.000140   0.001252
    21  H   -0.026329   0.090403   0.000013  -0.000007   0.000010  -0.000143
    22  H    0.026224  -0.032556  -0.000125   0.000007  -0.000007   0.000015
    23  H   -0.030689  -0.024054   0.000565  -0.000125   0.000014  -0.000110
    24  H    0.013958  -0.059537  -0.000903   0.000634  -0.000141   0.000183
    25  H    0.013958  -0.059537  -0.000904   0.000634  -0.000141   0.000183
              19         20         21         22         23         24
     1  C   -0.045932   0.007021  -0.001302   0.000772   0.005462   0.032626
     2  C   -0.007721   0.002035  -0.000387   0.000364  -0.002647   0.014231
     3  C    0.050728  -0.005048   0.000393  -0.000323   0.001081  -0.001588
     4  C   -0.066240   0.005939   0.000300  -0.001516   0.005665  -0.011980
     5  C   -0.068843   0.456925  -0.066842   0.013486   0.027512  -0.011928
     6  C    0.050449  -0.084432   0.374827  -0.017961  -0.000952  -0.001570
     7  C   -0.007606   0.003264  -0.017670   0.378634  -0.106724   0.014482
     8  C   -0.045557   0.049541  -0.024457  -0.018843   0.367839   0.033395
     9  C    0.073785  -0.024099  -0.005532   0.003498   0.090769   0.355783
    10  C    0.420303   0.012590   0.020001  -0.009146  -0.009597   0.005167
    11  C    0.076570  -0.011617  -0.006217   0.003069   0.001337   0.012072
    12  C   -0.062726  -0.014603   0.005135  -0.009079   0.006720  -0.059477
    13  C    0.075876  -0.007799  -0.026329   0.026224  -0.030689   0.013958
    14  C   -0.067461  -0.052836   0.090403  -0.032556  -0.024054  -0.059537
    15  H    0.000294  -0.000109   0.000013  -0.000125   0.000565  -0.000903
    16  H   -0.000528   0.000015  -0.000007   0.000007  -0.000125   0.000634
    17  H    0.001383  -0.000140   0.000010  -0.000007   0.000014  -0.000141
    18  H   -0.006201   0.001252  -0.000143   0.000015  -0.000110   0.000183
    19  H    0.441729  -0.006138   0.001421  -0.000531   0.000306   0.000567
    20  H   -0.006138   0.452772  -0.010205   0.001915   0.000186   0.000177
    21  H    0.001421  -0.010205   0.422014  -0.006550   0.001473  -0.000140
    22  H   -0.000531   0.001915  -0.006550   0.418858  -0.008978   0.000632
    23  H    0.000306   0.000186   0.001473  -0.008978   0.438267  -0.000920
    24  H    0.000567   0.000177  -0.000140   0.000632  -0.000920   0.493604
    25  H    0.000567   0.000177  -0.000140   0.000632  -0.000920  -0.078655
              25
     1  C    0.032627
     2  C    0.014231
     3  C   -0.001588
     4  C   -0.011980
     5  C   -0.011929
     6  C   -0.001570
     7  C    0.014482
     8  C    0.033395
     9  C    0.355783
    10  C    0.005167
    11  C    0.012071
    12  C   -0.059477
    13  C    0.013958
    14  C   -0.059537
    15  H   -0.000904
    16  H    0.000634
    17  H   -0.000141
    18  H    0.000183
    19  H    0.000567
    20  H    0.000177
    21  H   -0.000140
    22  H    0.000632
    23  H   -0.000920
    24  H   -0.078655
    25  H    0.493604
 Mulliken charges:
               1
     1  C    0.089385
     2  C   -0.404064
     3  C   -0.439217
     4  C    0.005975
     5  C    0.010225
     6  C   -0.437871
     7  C   -0.403150
     8  C    0.086510
     9  C   -0.339600
    10  C    0.084495
    11  C   -0.628830
    12  C    0.689078
    13  C   -0.630827
    14  C    0.691503
    15  H    0.238209
    16  H    0.256650
    17  H    0.249452
    18  H    0.222729
    19  H    0.191506
    20  H    0.223219
    21  H    0.249931
    22  H    0.257511
    23  H    0.238520
    24  H    0.249330
    25  H    0.249330
 Sum of Mulliken charges =   1.00000
 Mulliken charges with hydrogens summed into heavy atoms:
               1
     1  C    0.327594
     2  C   -0.147414
     3  C   -0.189765
     4  C    0.228705
     5  C    0.233445
     6  C   -0.187940
     7  C   -0.145638
     8  C    0.325029
     9  C    0.159060
    10  C    0.276001
    11  C   -0.628830
    12  C    0.689078
    13  C   -0.630827
    14  C    0.691503
 Electronic spatial extent (au):  <R**2>=           2868.6816
 Charge=              1.0000 electrons
 Dipole moment (field-independent basis, Debye):
    X=             -0.0906    Y=              0.1987    Z=              0.0000  Tot=              0.2184
 Quadrupole moment (field-independent basis, Debye-Ang):
   XX=            -30.8881   YY=            -56.1769   ZZ=            -84.2782
   XY=             -0.0075   XZ=             -0.0000   YZ=             -0.0000
 Traceless Quadrupole moment (field-independent basis, Debye-Ang):
   XX=             26.2263   YY=              0.9375   ZZ=            -27.1638
   XY=             -0.0075   XZ=             -0.0000   YZ=             -0.0000
 Octapole moment (field-independent basis, Debye-Ang**2):
  XXX=             -1.0084  YYY=              5.3875  ZZZ=              0.0000  XYY=             -0.2122
  XXY=             -5.1869  XXZ=             -0.0000  XZZ=             -0.1316  YZZ=             -3.1349
  YYZ=              0.0000  XYZ=              0.0000
 Hexadecapole moment (field-independent basis, Debye-Ang**3):
 XXXX=          -2127.9771 YYYY=           -611.6343 ZZZZ=            -99.7087 XXXY=              0.2073
 XXXZ=              0.0000 YYYX=             -0.0838 YYYZ=             -0.0000 ZZZX=              0.0000
 ZZZY=             -0.0000 XXYY=           -509.3280 XXZZ=           -594.4457 YYZZ=           -146.4878
 XXYZ=              0.0000 YYXZ=             -0.0000 ZZXY=             -0.0422
 N-N= 7.793238246900D+02 E-N=-2.794872416365D+03  KE= 5.373386478048D+02
 Orbital energies and kinetic energies (alpha):
                                 1                 2
  43         O                -0.547860          1.614486
  44         O                -0.523297          1.037880
  45         O                -0.465570          1.117674
  46         O                -0.459915          1.154341
  47         O                -0.444559          1.166486
  48         V                -0.261046          1.266907
  49         V                -0.147081          1.095900
  50         V                -0.141482          1.320538
  51         V                -0.128426          1.282105
  52         V                -0.111670          0.204277
 Total kinetic energy from orbitals= 5.373386478048D+02
 Unable to Open any file for archive entry.
 1\1\GINC-GADI-CPU-CLX-0034\SP\RM062X TD-FC\6-311++G(d,p)\C14H11(1+)\TS
 1578\14-Jul-2022\0\\#n M062X/6-311++G(d,p) TD SP pop=reg formcheck\\SP
 _1\\1,1\C,0,2.5003467911,1.372820517,0.\C,0,3.7119398933,0.6830504227,
 0.\C,0,3.6935668855,-0.7054173451,0.\C,0,2.4667044194,-1.4017488018,0.
 \C,0,-2.4711155806,-1.4034517152,0.\C,0,-3.6914536315,-0.7088334304,0.
 \C,0,-3.7080006237,0.6814706114,0.\C,0,-2.4966845014,1.372779483,0.\C,
 0,0.0008514567,1.4667518096,0.\C,0,-0.0032109151,-1.4245402585,0.\C,0,
 1.2635531145,0.6860476857,0.\C,0,1.2397495773,-0.7232445712,0.\C,0,-1.
 265697144,0.6885815388,0.\C,0,-1.2413601641,-0.7236856873,0.\H,0,2.495
 5944768,2.4581812926,0.\H,0,4.6490378252,1.223668613,0.\H,0,4.62007542
 88,-1.2663950882,0.\H,0,2.4725025975,-2.4864606114,0.\H,0,-0.002739023
 4,-2.507590517,0.\H,0,-2.4746774025,-2.4880404227,0.\H,0,-4.6196650882
 ,-1.2668054288,0.\H,0,-4.6452729503,1.222211904,0.\H,0,-2.4944455232,2
 .4580889659,0.\H,0,0.0047291752,2.1566697415,-0.8638007755\H,0,0.00473
 94337,2.1566697415,0.8638007755\\Version=ES64L-G16RevC.01\State=1-A\HF
 =-539.7589683\RMSD=4.450e-09\PG=C01 [X(C14H11)]\\@
 The archive entry for this job was punched.


 SLITHERY-DITHERY
 FRIEDRICH A. KEKULE
 DREAMT ON A BUS OF THINGS
 FREUD WOULD THINK KEEN.
 MOST OF THE TIME THEY WERE
 HERPETOLOGICAL
 BITING THEIR TAILS IN THE
 SHAPE OF BENZENE.
 FChkPn:  Coordinates translated and rotated.
 FChkPn:  Coordinates match /B/ after translation and rotation.
 Job cpu time:       0 days  1 hours  9 minutes 34.9 seconds.
 Elapsed time:       0 days  0 hours  8 minutes 44.3 seconds.
 File lengths (MBytes):  RWF=    532 Int=      0 D2E=      0 Chk=     24 Scr=      1
 Normal termination of Gaussian 16 at Thu Jul 14 12:37:48 2022.
