 Entering Gaussian System, Link 0=g16
 Initial command:
 /apps/gaussian/g16c01/g16/l1.exe "/jobfs/51125639.gadi-pbs/Gau-155165.inp" -scrdir="/jobfs/51125639.gadi-pbs/"
 Entering Link 1 = /apps/gaussian/g16c01/g16/l1.exe PID=    155168.
  
 Copyright (c) 1988-2019, Gaussian, Inc.  All Rights Reserved.
  
 This is part of the Gaussian(R) 16 program.  It is based on
 the Gaussian(R) 09 system (copyright 2009, Gaussian, Inc.),
 the Gaussian(R) 03 system (copyright 2003, Gaussian, Inc.),
 the Gaussian(R) 98 system (copyright 1998, Gaussian, Inc.),
 the Gaussian(R) 94 system (copyright 1995, Gaussian, Inc.),
 the Gaussian 92(TM) system (copyright 1992, Gaussian, Inc.),
 the Gaussian 90(TM) system (copyright 1990, Gaussian, Inc.),
 the Gaussian 88(TM) system (copyright 1988, Gaussian, Inc.),
 the Gaussian 86(TM) system (copyright 1986, Carnegie Mellon
 University), and the Gaussian 82(TM) system (copyright 1983,
 Carnegie Mellon University). Gaussian is a federally registered
 trademark of Gaussian, Inc.
  
 This software contains proprietary and confidential information,
 including trade secrets, belonging to Gaussian, Inc.
  
 This software is provided under written license and may be
 used, copied, transmitted, or stored only in accord with that
 written license.
  
 The following legend is applicable only to US Government
 contracts under FAR:
  
                    RESTRICTED RIGHTS LEGEND
  
 Use, reproduction and disclosure by the US Government is
 subject to restrictions as set forth in subparagraphs (a)
 and (c) of the Commercial Computer Software - Restricted
 Rights clause in FAR 52.227-19.
  
 Gaussian, Inc.
 340 Quinnipiac St., Bldg. 40, Wallingford CT 06492
  
  
 ---------------------------------------------------------------
 Warning -- This program may not be used in any manner that
 competes with the business of Gaussian, Inc. or will provide
 assistance to any competitor of Gaussian, Inc.  The licensee
 of this program is prohibited from giving any competitor of
 Gaussian, Inc. access to this program.  By using this program,
 the user acknowledges that Gaussian, Inc. is engaged in the
 business of creating and licensing software in the field of
 computational chemistry and represents and warrants to the
 licensee that it is not a competitor of Gaussian, Inc. and that
 it will not use this program in any manner prohibited above.
 ---------------------------------------------------------------
  

 Cite this work as:
 Gaussian 16, Revision C.01,
 M. J. Frisch, G. W. Trucks, H. B. Schlegel, G. E. Scuseria, 
 M. A. Robb, J. R. Cheeseman, G. Scalmani, V. Barone, 
 G. A. Petersson, H. Nakatsuji, X. Li, M. Caricato, A. V. Marenich, 
 J. Bloino, B. G. Janesko, R. Gomperts, B. Mennucci, H. P. Hratchian, 
 J. V. Ortiz, A. F. Izmaylov, J. L. Sonnenberg, D. Williams-Young, 
 F. Ding, F. Lipparini, F. Egidi, J. Goings, B. Peng, A. Petrone, 
 T. Henderson, D. Ranasinghe, V. G. Zakrzewski, J. Gao, N. Rega, 
 G. Zheng, W. Liang, M. Hada, M. Ehara, K. Toyota, R. Fukuda, 
 J. Hasegawa, M. Ishida, T. Nakajima, Y. Honda, O. Kitao, H. Nakai, 
 T. Vreven, K. Throssell, J. A. Montgomery, Jr., J. E. Peralta, 
 F. Ogliaro, M. J. Bearpark, J. J. Heyd, E. N. Brothers, K. N. Kudin, 
 V. N. Staroverov, T. A. Keith, R. Kobayashi, J. Normand, 
 K. Raghavachari, A. P. Rendell, J. C. Burant, S. S. Iyengar, 
 J. Tomasi, M. Cossi, J. M. Millam, M. Klene, C. Adamo, R. Cammi, 
 J. W. Ochterski, R. L. Martin, K. Morokuma, O. Farkas, 
 J. B. Foresman, and D. J. Fox, Gaussian, Inc., Wallingford CT, 2019.
 
 ******************************************
 Gaussian 16:  ES64L-G16RevC.01  3-Jul-2019
                14-Jul-2022 
 ******************************************
 %NProcShared=8
 Will use up to    8 processors via shared memory.
 %mem = 32GB
 %Chk=check_sp_20
 ----------------------------------------------
 #n M062X/6-311++G(d,p) TD SP pop=reg formcheck
 ----------------------------------------------
 1/38=1,172=1/1;
 2/12=2,17=6,18=5,40=1/2;
 3/5=4,6=6,7=1111,11=9,25=1,30=1,74=-55/1,2,3,8;
 4//1;
 5/5=2,38=5/2;
 8/6=1,10=2/1;
 9/42=1,70=2/14;
 6//1;
 99/5=1,9=1/99;
 -----
 SP_20
 -----
 Symbolic Z-matrix:
 Charge =  1 Multiplicity = 1
 C                     2.53563   1.37321   0. 
 C                     3.74956   0.69845   0. 
 C                     3.71384  -0.67326   0. 
 C                     2.4248   -1.38577   0. 
 C                    -2.51302  -1.41982   0. 
 C                    -3.67157  -0.74158   0. 
 C                    -3.67077   0.66685   0. 
 C                    -2.46238   1.37239   0. 
 C                     0.01703   1.46812   0. 
 C                    -0.06422  -1.42474   0. 
 C                     1.24328   0.66168   0. 
 C                     1.22435  -0.71915   0. 
 C                    -1.28616   0.71236   0. 
 C                    -1.25656  -0.72797   0. 
 H                     2.50651   2.45916   0. 
 H                     4.6851    1.2377    0. 
 H                     4.62417  -1.26269   0. 
 H                     2.45184  -2.47184   0. 
 H                    -0.05478  -2.50798   0. 
 H                    -2.49534  -2.50344   0. 
 H                    -4.61596  -1.2709    0. 
 H                    -4.6098    1.20857   0. 
 H                    -2.48353   2.45731   0. 
 H                     0.09458   2.15647  -0.86439 
 H                     0.09479   2.15647   0.86439 
 
                          Input orientation:                          
 ---------------------------------------------------------------------
 Center     Atomic      Atomic             Coordinates (Angstroms)
 Number     Number       Type             X           Y           Z
 ---------------------------------------------------------------------
      1          6           0        2.535626    1.373210    0.000000
      2          6           0        3.749558    0.698448    0.000000
      3          6           0        3.713838   -0.673257    0.000000
      4          6           0        2.424798   -1.385766    0.000000
      5          6           0       -2.513022   -1.419824    0.000000
      6          6           0       -3.671573   -0.741579    0.000000
      7          6           0       -3.670772    0.666852    0.000000
      8          6           0       -2.462380    1.372390    0.000000
      9          6           0        0.017029    1.468116    0.000000
     10          6           0       -0.064218   -1.424735    0.000000
     11          6           0        1.243282    0.661684    0.000000
     12          6           0        1.224352   -0.719151    0.000000
     13          6           0       -1.286163    0.712361    0.000000
     14          6           0       -1.256563   -0.727974    0.000000
     15          1           0        2.506510    2.459156    0.000000
     16          1           0        4.685097    1.237702    0.000000
     17          1           0        4.624169   -1.262692    0.000000
     18          1           0        2.451842   -2.471842    0.000000
     19          1           0       -0.054780   -2.507980    0.000000
     20          1           0       -2.495338   -2.503438    0.000000
     21          1           0       -4.615962   -1.270899    0.000000
     22          1           0       -4.609799    1.208568    0.000000
     23          1           0       -2.483530    2.457309    0.000000
     24          1           0        0.094584    2.156475   -0.864386
     25          1           0        0.094789    2.156475    0.864386
 ---------------------------------------------------------------------
                    Distance matrix (angstroms):
                    1          2          3          4          5
     1  C    0.000000
     2  C    1.388861   0.000000
     3  C    2.361400   1.372170   0.000000
     4  C    2.761201   2.469603   1.472852   0.000000
     5  C    5.769739   6.611126   6.271454   4.937937   0.000000
     6  C    6.557564   7.559554   7.385726   6.130311   1.342482
     7  C    6.246465   7.420398   7.505222   6.431891   2.386337
     8  C    4.998006   6.248389   6.506177   5.611768   2.792673
     9  C    2.520384   3.811057   4.272221   3.733898   3.839447
    10  C    3.819383   4.364951   3.852068   2.489322   2.448808
    11  C    1.475270   2.506545   2.808151   2.363902   4.294473
    12  C    2.469295   2.895903   2.489909   1.373116   3.802486
    13  C    3.878504   5.035740   5.188443   4.263024   2.459958
    14  C    4.335398   5.205375   4.970702   3.739668   1.434345
    15  H    1.086336   2.155286   3.357030   3.845790   6.343672
    16  H    2.153738   1.079827   2.143620   3.462879   7.673028
    17  H    3.363033   2.147327   1.084498   2.202811   7.138920
    18  H    3.845965   3.425611   2.197167   1.086413   5.075097
    19  H    4.666245   4.975357   4.191502   2.721705   2.688314
    20  H    6.351299   7.017892   6.473286   5.045487   1.083758
    21  H    7.624731   8.594198   8.351212   7.041697   2.108207
    22  H    7.147321   8.374907   8.533709   7.497742   3.362279
    23  H    5.134900   6.476495   6.943185   6.233853   3.877246
    24  H    2.705430   4.028876   4.674778   4.327185   4.509621
    25  H    2.705245   4.028690   4.674619   4.327075   4.509740
                    6          7          8          9         10
     6  C    0.000000
     7  C    1.408431   0.000000
     8  C    2.435366   1.399284   0.000000
     9  C    4.299830   3.773845   2.481256   0.000000
    10  C    3.671472   4.169169   3.684438   2.893992   0.000000
    11  C    5.111257   4.914057   3.773200   1.467661   2.462255
    12  C    4.895976   5.087558   4.238695   2.498353   1.469102
    13  C    2.793585   2.385044   1.348749   1.506478   2.461773
    14  C    2.415048   2.788180   2.421884   2.538671   1.381001
    15  H    6.957974   6.432042   5.086347   2.679491   4.657601
    16  H    8.587868   8.375346   7.148745   4.673750   5.444682
    17  H    8.312092   8.516407   7.560610   5.355656   4.691186
    18  H    6.363177   6.880248   6.239206   4.631586   2.725251
    19  H    4.025091   4.811960   4.566597   3.976745   1.083286
    20  H    2.118414   3.381182   3.875968   4.699493   2.659689
    21  H    1.082613   2.155983   3.409529   5.382082   4.554342
    22  H    2.164103   1.084079   2.153659   4.634102   5.253246
    23  H    3.412379   2.148320   1.085126   2.689108   4.574204
    24  H    4.830094   4.140537   2.810696   1.107707   3.687471
    25  H    4.830254   4.140723   2.810883   1.107721   3.687480
                   11         12         13         14         15
    11  C    0.000000
    12  C    1.380965   0.000000
    13  C    2.529953   2.889967   0.000000
    14  C    2.860136   2.480931   1.440639   0.000000
    15  H    2.196964   3.427181   4.175603   4.931380   0.000000
    16  H    3.489682   3.975680   5.994324   6.258371   2.497637
    17  H    3.890194   3.442992   6.231601   5.904992   4.282129
    18  H    3.358512   2.139780   4.910380   4.097969   4.931301
    19  H    3.425162   2.199111   3.447738   2.147721   5.588618
    20  H    4.898498   4.125503   3.435618   2.164911   7.045979
    21  H    6.169734   5.866318   3.875678   3.402988   8.040081
    22  H    5.878575   6.144381   3.360473   3.872258   7.225359
    23  H    4.136835   4.882447   2.116255   3.413426   4.990040
    24  H    2.073903   3.208234   2.176945   3.300425   2.579955
    25  H    2.073789   3.208162   2.177075   3.300509   2.579763
                   16         17         18         19         20
    16  H    0.000000
    17  H    2.501136   0.000000
    18  H    4.329913   2.486171   0.000000
    19  H    6.041239   4.841829   2.506883   0.000000
    20  H    8.096590   7.226813   4.947281   2.440562   0.000000
    21  H    9.633419   9.240134   7.169108   4.725965   2.452794
    22  H    9.294941   9.558937   7.963177   5.878854   4.271995
    23  H    7.271634   8.022331   6.975273   5.527470   4.960762
    24  H    4.760684   5.740645   5.265468   4.746221   5.400893
    25  H    4.760486   5.740483   5.265376   4.746227   5.400992
                   21         22         23         24         25
    21  H    0.000000
    22  H    2.479474   0.000000
    23  H    4.294973   2.465841   0.000000
    24  H    5.889252   4.876157   2.735751   0.000000
    25  H    5.889416   4.876355   2.735945   1.728771   0.000000
 Stoichiometry    C14H11(1+)
 Framework group  C1[X(C14H11)]
 Deg. of freedom    69
 Full point group                 C1      NOp   1
 Largest Abelian subgroup         C1      NOp   1
 Largest concise Abelian subgroup C1      NOp   1
                         Standard orientation:                         
 ---------------------------------------------------------------------
 Center     Atomic      Atomic             Coordinates (Angstroms)
 Number     Number       Type             X           Y           Z
 ---------------------------------------------------------------------
      1          6           0        2.550219   -1.335065    0.000000
      2          6           0        3.756247   -0.646275    0.000000
      3          6           0        3.704626    0.724924    0.000000
      4          6           0        2.407413    1.422441    0.000000
      5          6           0       -2.530470    1.399249    0.000000
      6          6           0       -3.681080    0.707617    0.000000
      7          6           0       -3.663951   -0.700710    0.000000
      8          6           0       -2.447460   -1.392190    0.000000
      9          6           0        0.032892   -1.459165    0.000000
     10          6           0       -0.081888    1.432550    0.000000
     11          6           0        1.249714   -0.638570    0.000000
     12          6           0        1.214775    0.741953    0.000000
     13          6           0       -1.278974   -0.718569    0.000000
     14          6           0       -1.266075    0.722012    0.000000
     15          1           0        2.533695   -2.421275    0.000000
     16          1           0        4.697975   -1.174646    0.000000
     17          1           0        4.608062    1.324874    0.000000
     18          1           0        2.421863    2.508757    0.000000
     19          1           0       -0.085010    2.515832    0.000000
     20          1           0       -2.525351    2.482995    0.000000
     21          1           0       -4.631542    1.225952    0.000000
     22          1           0       -4.596634   -1.253276    0.000000
     23          1           0       -2.456031   -2.477282    0.000000
     24          1           0        0.118422   -2.146578    0.864386
     25          1           0        0.118627   -2.146576   -0.864386
 ---------------------------------------------------------------------
 Rotational constants (GHZ):           2.1249187           0.4423805           0.3669531
 Standard basis: 6-311++G(d,p) (5D, 7F)
 There are   399 symmetry adapted cartesian basis functions of A   symmetry.
 There are   385 symmetry adapted basis functions of A   symmetry.
   385 basis functions,   603 primitive gaussians,   399 cartesian basis functions
    47 alpha electrons       47 beta electrons
       nuclear repulsion energy       779.4036178315 Hartrees.
 NAtoms=   25 NActive=   25 NUniq=   25 SFac= 1.00D+00 NAtFMM=   60 NAOKFM=F Big=F
 Integral buffers will be    131072 words long.
 Regular integral format.
 Two-electron integral symmetry is turned on.
 One-electron integrals computed using PRISM.
 NBasis=   385 RedAO= T EigKep=  1.14D-06  NBF=   385
 NBsUse=   379 1.00D-06 EigRej=  8.62D-07 NBFU=   379
 ExpMin= 3.60D-02 ExpMax= 4.56D+03 ExpMxC= 6.82D+02 IAcc=3 IRadAn=         5 AccDes= 0.00D+00
 Harris functional with IExCor= 1009 and IRadAn=       5 diagonalized for initial guess.
 HarFok:  IExCor= 1009 AccDes= 0.00D+00 IRadAn=         5 IDoV= 1 UseB2=F ITyADJ=14
 ICtDFT=  3500011 ScaDFX=  1.000000  1.000000  1.000000  1.000000
 FoFCou: FMM=F IPFlag=           0 FMFlag=      100000 FMFlg1=           0
         NFxFlg=           0 DoJE=T BraDBF=F KetDBF=T FulRan=T
         wScrn=  0.000000 ICntrl=       500 IOpCl=  0 I1Cent=   200000004 NGrid=           0
         NMat0=    1 NMatS0=      1 NMatT0=    0 NMatD0=    1 NMtDS0=    0 NMtDT0=    0
 Petite list used in FoFCou.
 Requested convergence on RMS density matrix=1.00D-08 within 128 cycles.
 Requested convergence on MAX density matrix=1.00D-06.
 Requested convergence on             energy=1.00D-06.
 No special actions if energy rises.
 SCF Done:  E(RM062X) =  -539.741174365     A.U. after   16 cycles
            NFock= 16  Conv=0.39D-08     -V/T= 2.0043
 DoSCS=F DFT=T ScalE2(SS,OS)=  1.000000  1.000000
 ExpMin= 3.60D-02 ExpMax= 4.56D+03 ExpMxC= 6.82D+02 IAcc=3 IRadAn=         5 AccDes= 0.00D+00
 HarFok:  IExCor=  205 AccDes= 0.00D+00 IRadAn=         5 IDoV=-2 UseB2=F ITyADJ=14
 ICtDFT= 12500011 ScaDFX=  1.000000  1.000000  1.000000  1.000000
 Range of M.O.s used for correlation:    15   379
 NBasis=   385 NAE=    47 NBE=    47 NFC=    14 NFV=     0
 NROrb=    365 NOA=    33 NOB=    33 NVA=   332 NVB=   332

 **** Warning!!: The largest alpha MO coefficient is  0.14776267D+03

 Orbital symmetries:
       Occupied  (A) (A) (A) (A) (A) (A) (A) (A) (A) (A) (A) (A)
                 (A) (A) (A) (A) (A) (A) (A) (A) (A) (A) (A) (A)
                 (A) (A) (A) (A) (A) (A) (A) (A) (A) (A) (A) (A)
                 (A) (A) (A) (A) (A) (A) (A) (A) (A) (A) (A)
       Virtual   (A) (A) (A) (A) (A) (A) (A) (A) (A) (A) (A) (A)
                 (A) (A) (A) (A) (A) (A) (A) (A) (A) (A) (A) (A)
                 (A) (A) (A) (A) (A) (A) (A) (A) (A) (A) (A) (A)
                 (A) (A) (A) (A) (A) (A) (A) (A) (A) (A) (A) (A)
                 (A) (A) (A) (A) (A) (A) (A) (A) (A) (A) (A) (A)
                 (A) (A) (A) (A) (A) (A) (A) (A) (A) (A) (A) (A)
                 (A) (A) (A) (A) (A) (A) (A) (A) (A) (A) (A) (A)
                 (A) (A) (A) (A) (A) (A) (A) (A) (A) (A) (A) (A)
                 (A) (A) (A) (A) (A) (A) (A) (A) (A) (A) (A) (A)
                 (A) (A) (A) (A) (A) (A) (A) (A) (A) (A) (A) (A)
                 (A) (A) (A) (A) (A) (A) (A) (A) (A) (A) (A) (A)
                 (A) (A) (A) (A) (A) (A) (A) (A) (A) (A) (A) (A)
                 (A) (A) (A) (A) (A) (A) (A) (A) (A) (A) (A) (A)
                 (A) (A) (A) (A) (A) (A) (A) (A) (A) (A) (A) (A)
                 (A) (A) (A) (A) (A) (A) (A) (A) (A) (A) (A) (A)
                 (A) (A) (A) (A) (A) (A) (A) (A) (A) (A) (A) (A)
                 (A) (A) (A) (A) (A) (A) (A) (A) (A) (A) (A) (A)
                 (A) (A) (A) (A) (A) (A) (A) (A) (A) (A) (A) (A)
                 (A) (A) (A) (A) (A) (A) (A) (A) (A) (A) (A) (A)
                 (A) (A) (A) (A) (A) (A) (A) (A) (A) (A) (A) (A)
                 (A) (A) (A) (A) (A) (A) (A) (A) (A) (A) (A) (A)
                 (A) (A) (A) (A) (A) (A) (A) (A) (A) (A) (A) (A)
                 (A) (A) (A) (A) (A) (A) (A) (A) (A) (A) (A) (A)
                 (A) (A) (A) (A) (A) (A) (A) (A) (A) (A) (A) (A)
                 (A) (A) (A) (A) (A) (A) (A) (A) (A) (A) (A) (A)
                 (A) (A) (A) (A) (A) (A) (A) (A) (A) (A) (A) (A)
                 (A) (A) (A) (A) (A) (A) (A) (A) (A) (A) (A) (A)
                 (A) (A) (A) (A) (A) (A) (A) (A)
    12 initial guesses have been made.
 Convergence on wavefunction:    0.001000000000000
 Iteration     1 Dimension    12 NMult     0 NNew     12
 CISAX will form    12 AO SS matrices at one time.
 Iteration     2 Dimension    18 NMult    12 NNew      6
 Iteration     3 Dimension    24 NMult    18 NNew      6
 Iteration     4 Dimension    30 NMult    24 NNew      6
 Iteration     5 Dimension    36 NMult    30 NNew      6
 Iteration     6 Dimension    42 NMult    36 NNew      6
 ***********************************************************************
 Excited states from <AA,BB:AA,BB> singles matrix:
 ***********************************************************************
 
 Ground to excited state transition densities written to RWF  633
 Ground to excited state transition electric dipole moments (Au):
       state          X           Y           Z        Dip. S.      Osc.
         1         0.1247     -0.4799     -0.0000      0.2459      0.0149
         2         2.2500      0.2108      0.0000      5.1067      0.4330
         3        -1.1108      0.3914      0.0000      1.3870      0.1219
 Ground to excited state transition velocity dipole moments (Au):
       state          X           Y           Z        Dip. S.      Osc.
         1        -0.0070      0.0500      0.0000      0.0025      0.0186
         2        -0.2854     -0.0289     -0.0000      0.0823      0.4313
         3         0.1526     -0.0550      0.0000      0.0263      0.1331
 Ground to excited state transition magnetic dipole moments (Au):
       state          X           Y           Z
         1        -0.0000      0.0000      0.1302
         2        -0.0000      0.0000      1.3960
         3         0.0000     -0.0000      0.4417
 Ground to excited state transition velocity quadrupole moments (Au):
       state          XX          YY          ZZ          XY          XZ          YZ
         1         0.1964      0.0187     -0.0070      0.0864      0.0000     -0.0000
         2         0.0458     -0.0274      0.0030      0.2449     -0.0000      0.0000
         3        -0.2891     -0.0244      0.0072      0.2172     -0.0000      0.0000
 <0|del|b> * <b|rxdel|0> + <0|del|b> * <b|delr+rdel|0>
 Rotatory Strengths (R) in cgs (10**-40 erg-esu-cm/Gauss)
       state          XX          YY          ZZ    R(velocity)    E-M Angle
         1        -0.0002      0.0006      0.0025      0.0010       90.00
         2        -0.0123     -0.0023      0.0090     -0.0019       90.00
         3         0.0006      0.0105      0.0010      0.0041       90.00
 1/2[<0|r|b>*<b|rxdel|0> + (<0|rxdel|b>*<b|r|0>)*]
 Rotatory Strengths (R) in cgs (10**-40 erg-esu-cm/Gauss)
       state          XX          YY          ZZ     R(length)
         1         0.0005      0.0001      0.0001      0.0002
         2         0.0149     -0.0000     -0.0055      0.0031
         3         0.0088      0.0013     -0.0005      0.0032
  1/2[<0|del|b>*<b|r|0> + (<0|r|b>*<b|del|0>)*] (Au)
       state          X           Y           Z        Dip. S.   Osc.(frdel)
         1        -0.0009     -0.0240     -0.0000      0.0249      0.0166
         2        -0.6421     -0.0061     -0.0000      0.6482      0.4322
         3        -0.1695     -0.0215      0.0000      0.1911      0.1274

 Excitation energies and oscillator strengths:
 
 Excited State   1:      Singlet-A      2.4797 eV  500.00 nm  f=0.0149  <S**2>=0.000
      47 -> 48         0.70327
 This state for optimization and/or second-order correction.
 Total Energy, E(TD-HF/TD-DFT) =  -539.650048549    
 Copying the excited state density for this state as the 1-particle RhoCI density.
 
 Excited State   2:      Singlet-A      3.4609 eV  358.24 nm  f=0.4330  <S**2>=0.000
      45 -> 48         0.18264
      46 -> 48         0.67229
 
 Excited State   3:      Singlet-A      3.5869 eV  345.66 nm  f=0.1219  <S**2>=0.000
      45 -> 48         0.67721
      46 -> 48        -0.18322
 SavETr:  write IOETrn=   770 NScale= 10 NData=  16 NLR=1 NState=    3 LETran=      64.

 **********************************************************************

            Population analysis using the SCF Density.

 **********************************************************************

 Orbital symmetries:
       Occupied  (A) (A) (A) (A) (A) (A) (A) (A) (A) (A) (A) (A)
                 (A) (A) (A) (A) (A) (A) (A) (A) (A) (A) (A) (A)
                 (A) (A) (A) (A) (A) (A) (A) (A) (A) (A) (A) (A)
                 (A) (A) (A) (A) (A) (A) (A) (A) (A) (A) (A)
       Virtual   (A) (A) (A) (A) (A) (A) (A) (A) (A) (A) (A) (A)
                 (A) (A) (A) (A) (A) (A) (A) (A) (A) (A) (A) (A)
                 (A) (A) (A) (A) (A) (A) (A) (A) (A) (A) (A) (A)
                 (A) (A) (A) (A) (A) (A) (A) (A) (A) (A) (A) (A)
                 (A) (A) (A) (A) (A) (A) (A) (A) (A) (A) (A) (A)
                 (A) (A) (A) (A) (A) (A) (A) (A) (A) (A) (A) (A)
                 (A) (A) (A) (A) (A) (A) (A) (A) (A) (A) (A) (A)
                 (A) (A) (A) (A) (A) (A) (A) (A) (A) (A) (A) (A)
                 (A) (A) (A) (A) (A) (A) (A) (A) (A) (A) (A) (A)
                 (A) (A) (A) (A) (A) (A) (A) (A) (A) (A) (A) (A)
                 (A) (A) (A) (A) (A) (A) (A) (A) (A) (A) (A) (A)
                 (A) (A) (A) (A) (A) (A) (A) (A) (A) (A) (A) (A)
                 (A) (A) (A) (A) (A) (A) (A) (A) (A) (A) (A) (A)
                 (A) (A) (A) (A) (A) (A) (A) (A) (A) (A) (A) (A)
                 (A) (A) (A) (A) (A) (A) (A) (A) (A) (A) (A) (A)
                 (A) (A) (A) (A) (A) (A) (A) (A) (A) (A) (A) (A)
                 (A) (A) (A) (A) (A) (A) (A) (A) (A) (A) (A) (A)
                 (A) (A) (A) (A) (A) (A) (A) (A) (A) (A) (A) (A)
                 (A) (A) (A) (A) (A) (A) (A) (A) (A) (A) (A) (A)
                 (A) (A) (A) (A) (A) (A) (A) (A) (A) (A) (A) (A)
                 (A) (A) (A) (A) (A) (A) (A) (A) (A) (A) (A) (A)
                 (A) (A) (A) (A) (A) (A) (A) (A) (A) (A) (A) (A)
                 (A) (A) (A) (A) (A) (A) (A) (A) (A) (A) (A) (A)
                 (A) (A) (A) (A) (A) (A) (A) (A) (A) (A) (A) (A)
                 (A) (A) (A) (A) (A) (A) (A) (A) (A) (A) (A) (A)
                 (A) (A) (A) (A) (A) (A) (A) (A) (A) (A) (A) (A)
                 (A) (A) (A) (A) (A) (A) (A) (A) (A) (A) (A) (A)
                 (A) (A) (A) (A) (A) (A) (A) (A)
 The electronic state is 1-A.
 Alpha  occ. eigenvalues --  -10.77515 -10.74178 -10.73157 -10.72955 -10.72443
 Alpha  occ. eigenvalues --  -10.72157 -10.71705 -10.71096 -10.70593 -10.70456
 Alpha  occ. eigenvalues --  -10.70163 -10.69715 -10.69469 -10.69270  -1.16478
 Alpha  occ. eigenvalues --   -1.12284  -1.06746  -1.05900  -1.01120  -1.00562
 Alpha  occ. eigenvalues --   -0.95233  -0.90882  -0.86345  -0.85704  -0.83688
 Alpha  occ. eigenvalues --   -0.78134  -0.76155  -0.74151  -0.70066  -0.69218
 Alpha  occ. eigenvalues --   -0.68024  -0.67971  -0.67783  -0.65688  -0.64112
 Alpha  occ. eigenvalues --   -0.62335  -0.61280  -0.60694  -0.59369  -0.58842
 Alpha  occ. eigenvalues --   -0.56743  -0.55550  -0.53819  -0.52336  -0.48032
 Alpha  occ. eigenvalues --   -0.46101  -0.43000
 Alpha virt. eigenvalues --   -0.26175  -0.14763  -0.14011  -0.12782  -0.11200
 Alpha virt. eigenvalues --   -0.10102  -0.09306  -0.07928  -0.07876  -0.07504
 Alpha virt. eigenvalues --   -0.07217  -0.07126  -0.05668  -0.05570  -0.05400
 Alpha virt. eigenvalues --   -0.03875  -0.03675  -0.03275  -0.03159  -0.02147
 Alpha virt. eigenvalues --   -0.01304  -0.00998   0.00162   0.00536   0.00636
 Alpha virt. eigenvalues --    0.01081   0.01478   0.01897   0.02027   0.02287
 Alpha virt. eigenvalues --    0.02439   0.02665   0.02807   0.03124   0.03499
 Alpha virt. eigenvalues --    0.04180   0.04479   0.04756   0.05020   0.05388
 Alpha virt. eigenvalues --    0.06020   0.06236   0.06536   0.07054   0.07280
 Alpha virt. eigenvalues --    0.07892   0.07932   0.08302   0.08698   0.08835
 Alpha virt. eigenvalues --    0.09329   0.09504   0.09769   0.10564   0.10777
 Alpha virt. eigenvalues --    0.11128   0.11895   0.12164   0.12431   0.12998
 Alpha virt. eigenvalues --    0.13514   0.13517   0.13913   0.14100   0.15479
 Alpha virt. eigenvalues --    0.16258   0.16471   0.17166   0.17298   0.17655
 Alpha virt. eigenvalues --    0.18028   0.19033   0.19355   0.19743   0.20122
 Alpha virt. eigenvalues --    0.21400   0.21540   0.22425   0.23144   0.23529
 Alpha virt. eigenvalues --    0.24024   0.24455   0.25435   0.26903   0.27454
 Alpha virt. eigenvalues --    0.28754   0.29259   0.29878   0.31249   0.35447
 Alpha virt. eigenvalues --    0.36255   0.38153   0.39185   0.40788   0.41088
 Alpha virt. eigenvalues --    0.41831   0.42006   0.43034   0.43591   0.44535
 Alpha virt. eigenvalues --    0.44564   0.44951   0.45702   0.46304   0.47822
 Alpha virt. eigenvalues --    0.48217   0.48579   0.49081   0.50744   0.50792
 Alpha virt. eigenvalues --    0.50996   0.52188   0.52198   0.52548   0.54165
 Alpha virt. eigenvalues --    0.54258   0.54519   0.55544   0.56214   0.57665
 Alpha virt. eigenvalues --    0.58168   0.59127   0.61533   0.62213   0.62316
 Alpha virt. eigenvalues --    0.62950   0.63417   0.64572   0.65115   0.67664
 Alpha virt. eigenvalues --    0.70022   0.70223   0.71252   0.72561   0.72947
 Alpha virt. eigenvalues --    0.75339   0.75876   0.76357   0.76711   0.77104
 Alpha virt. eigenvalues --    0.77831   0.78144   0.78304   0.80036   0.80245
 Alpha virt. eigenvalues --    0.81089   0.81570   0.82639   0.82845   0.85232
 Alpha virt. eigenvalues --    0.86876   0.87692   0.88144   0.89369   0.90748
 Alpha virt. eigenvalues --    0.90879   0.91619   0.93357   0.94413   0.96205
 Alpha virt. eigenvalues --    0.96918   0.99933   1.01223   1.01256   1.02768
 Alpha virt. eigenvalues --    1.02924   1.03188   1.04905   1.06409   1.08853
 Alpha virt. eigenvalues --    1.19542   1.22527   1.23220   1.24118   1.28822
 Alpha virt. eigenvalues --    1.29675   1.32348   1.34068   1.35724   1.35799
 Alpha virt. eigenvalues --    1.39042   1.39233   1.40357   1.42631   1.43096
 Alpha virt. eigenvalues --    1.43178   1.43961   1.46105   1.46347   1.46733
 Alpha virt. eigenvalues --    1.47680   1.48167   1.51613   1.53473   1.55273
 Alpha virt. eigenvalues --    1.55374   1.56112   1.56416   1.57665   1.61161
 Alpha virt. eigenvalues --    1.62405   1.63374   1.64451   1.65868   1.67934
 Alpha virt. eigenvalues --    1.68109   1.68504   1.69708   1.74227   1.75678
 Alpha virt. eigenvalues --    1.76769   1.78171   1.78920   1.79513   1.81435
 Alpha virt. eigenvalues --    1.82252   1.82809   1.83141   1.83670   1.84047
 Alpha virt. eigenvalues --    1.84690   1.85153   1.86431   1.88436   1.91223
 Alpha virt. eigenvalues --    1.92085   1.93475   1.95539   1.97520   1.97877
 Alpha virt. eigenvalues --    1.99613   2.01930   2.04373   2.07057   2.11249
 Alpha virt. eigenvalues --    2.11995   2.14347   2.14897   2.18573   2.20768
 Alpha virt. eigenvalues --    2.22190   2.27685   2.29843   2.33499   2.34077
 Alpha virt. eigenvalues --    2.35835   2.38041   2.39533   2.41720   2.43928
 Alpha virt. eigenvalues --    2.45550   2.45682   2.48443   2.52506   2.53204
 Alpha virt. eigenvalues --    2.54285   2.56846   2.57960   2.58638   2.59080
 Alpha virt. eigenvalues --    2.60083   2.61108   2.61872   2.63414   2.63656
 Alpha virt. eigenvalues --    2.64857   2.64897   2.65058   2.65870   2.67309
 Alpha virt. eigenvalues --    2.67789   2.70619   2.70705   2.73334   2.74635
 Alpha virt. eigenvalues --    2.76091   2.76803   2.79375   2.82804   2.83292
 Alpha virt. eigenvalues --    2.83966   2.86036   2.91850   2.96947   2.98994
 Alpha virt. eigenvalues --    2.99989   3.04022   3.06515   3.09979   3.14096
 Alpha virt. eigenvalues --    3.18525   3.19543   3.24365   3.28332   3.31031
 Alpha virt. eigenvalues --    3.32030   3.35071   3.44375   3.46005   3.46258
 Alpha virt. eigenvalues --    3.48026   3.48881   3.55974   3.65477   3.66695
 Alpha virt. eigenvalues --    3.68186   3.92532   3.93049   3.94614   3.96232
 Alpha virt. eigenvalues --    4.03270   4.05400   4.07093   4.11759   4.34299
 Alpha virt. eigenvalues --    4.59177   4.67315   4.69526  23.44698  23.58770
 Alpha virt. eigenvalues --   23.75540  23.77457  23.81029  23.88474  23.90736
 Alpha virt. eigenvalues --   23.94346  23.95420  23.99506  24.06904  24.11695
 Alpha virt. eigenvalues --   24.11846  24.17714
     Molecular Orbital Coefficients:
                          43        44        45        46        47
                           O         O         O         O         O
     Eigenvalues --    -0.53819  -0.52336  -0.48032  -0.46101  -0.43000
   1 1   C  1S          0.00259  -0.00000   0.00000   0.00000  -0.00000
   2        2S          0.00430  -0.00000   0.00000   0.00000  -0.00000
   3        2PX         0.09124  -0.00000   0.00000   0.00000  -0.00000
   4        2PY        -0.03718  -0.00000  -0.00000   0.00000   0.00000
   5        2PZ         0.00000   0.07657   0.02484  -0.06793   0.12569
   6        3S         -0.01442   0.00000  -0.00000  -0.00000   0.00000
   7        3PX         0.13240  -0.00000   0.00000   0.00000  -0.00000
   8        3PY        -0.05409  -0.00000  -0.00000  -0.00000   0.00000
   9        3PZ         0.00000   0.12276   0.03997  -0.10972   0.20543
  10        4S          0.02191   0.00000  -0.00000  -0.00000  -0.00000
  11        4PX         0.06669   0.00000   0.00000   0.00000  -0.00000
  12        4PY        -0.04453   0.00000  -0.00000  -0.00000  -0.00000
  13        4PZ         0.00000   0.10060   0.03512  -0.09823   0.18945
  14        5S         -0.17316  -0.00001  -0.00008  -0.00004  -0.00008
  15        5PX        -0.09156   0.00000   0.00006   0.00005   0.00009
  16        5PY        -0.02827   0.00000   0.00000   0.00000   0.00000
  17        5PZ        -0.00000  -0.00217   0.02218  -0.01005   0.04393
  18        6D 0       -0.00020   0.00000   0.00000  -0.00000  -0.00000
  19        6D+1       -0.00000   0.00810  -0.00342  -0.01487  -0.01011
  20        6D-1        0.00000   0.00803   0.00078  -0.00484   0.00665
  21        6D+2       -0.01034  -0.00000   0.00000  -0.00000  -0.00000
  22        6D-2        0.01041  -0.00000   0.00000   0.00000  -0.00000
  23 2   C  1S         -0.00305   0.00000  -0.00000  -0.00000   0.00000
  24        2S         -0.00509   0.00000  -0.00000  -0.00000   0.00000
  25        2PX        -0.07501   0.00000  -0.00000  -0.00000   0.00000
  26        2PY         0.03405   0.00000  -0.00000  -0.00000   0.00000
  27        2PZ        -0.00000   0.10299  -0.00177  -0.11479   0.00319
  28        3S          0.01728  -0.00000   0.00000   0.00000  -0.00000
  29        3PX        -0.10886   0.00000  -0.00000  -0.00000   0.00000
  30        3PY         0.04862   0.00000  -0.00000  -0.00000   0.00000
  31        3PZ        -0.00000   0.16930  -0.00230  -0.18859   0.00583
  32        4S         -0.00660  -0.00000   0.00000   0.00000   0.00000
  33        4PX        -0.08633   0.00000  -0.00000  -0.00000  -0.00000
  34        4PY         0.03999   0.00000   0.00000   0.00000   0.00000
  35        4PZ        -0.00000   0.12515  -0.00346  -0.15728   0.00494
  36        5S          0.10197   0.00001   0.00002   0.00000   0.00002
  37        5PX        -0.04380  -0.00000   0.00000   0.00001   0.00001
  38        5PY        -0.06143   0.00000   0.00004   0.00003   0.00005
  39        5PZ         0.00000   0.00408  -0.01766  -0.00491  -0.00664
  40        6D 0       -0.00019   0.00000   0.00000   0.00000  -0.00000
  41        6D+1       -0.00000  -0.00977  -0.00213   0.00824  -0.01208
  42        6D-1       -0.00000   0.00589  -0.00434  -0.00379  -0.02144
  43        6D+2       -0.01107   0.00000  -0.00000   0.00000   0.00000
  44        6D-2        0.01891  -0.00000   0.00000   0.00000  -0.00000
  45 3   C  1S         -0.00036   0.00000  -0.00000   0.00000   0.00000
  46        2S         -0.00059  -0.00000  -0.00000   0.00000   0.00000
  47        2PX         0.07360  -0.00000   0.00000   0.00000  -0.00000
  48        2PY        -0.04164  -0.00000  -0.00000  -0.00000  -0.00000
  49        2PZ        -0.00000   0.07997  -0.02563  -0.06113  -0.12053
  50        3S         -0.00045   0.00000   0.00000  -0.00000  -0.00000
  51        3PX         0.10725  -0.00000   0.00000   0.00000   0.00000
  52        3PY        -0.05983  -0.00000  -0.00000  -0.00000  -0.00000
  53        3PZ        -0.00000   0.12984  -0.04214  -0.09835  -0.19796
  54        4S          0.02093   0.00000  -0.00000  -0.00000  -0.00001
  55        4PX         0.07206  -0.00000   0.00000   0.00000   0.00000
  56        4PY        -0.02530  -0.00000   0.00000   0.00000   0.00000
  57        4PZ        -0.00000   0.09980  -0.03628  -0.08398  -0.18035
  58        5S         -0.04488  -0.00001  -0.00008  -0.00005  -0.00010
  59        5PX         0.03951   0.00000   0.00000  -0.00000  -0.00000
  60        5PY        -0.05797   0.00000   0.00002   0.00002   0.00003
  61        5PZ        -0.00000   0.00534   0.01395  -0.01696  -0.01413
  62        6D 0       -0.00008  -0.00000   0.00000   0.00000   0.00000
  63        6D+1        0.00000  -0.00351   0.00334  -0.00423   0.01189
  64        6D-1       -0.00000  -0.01145  -0.00125   0.01589  -0.00588
  65        6D+2       -0.00539  -0.00000   0.00000  -0.00000  -0.00000
  66        6D-2        0.01347  -0.00000   0.00000   0.00000  -0.00000
  67 4   C  1S          0.00311   0.00000  -0.00000   0.00000   0.00000
  68        2S          0.00518   0.00000  -0.00000   0.00000   0.00000
  69        2PX        -0.07312   0.00000  -0.00000   0.00000   0.00000
  70        2PY         0.04094   0.00000  -0.00000   0.00000   0.00000
  71        2PZ        -0.00000   0.01936  -0.03437   0.05784  -0.12649
  72        3S         -0.01615  -0.00000   0.00000  -0.00000  -0.00000
  73        3PX        -0.10503   0.00000  -0.00000   0.00000   0.00000
  74        3PY         0.05953   0.00000  -0.00000   0.00000   0.00000
  75        3PZ        -0.00000   0.03069  -0.05682   0.09347  -0.20606
  76        4S         -0.03290  -0.00000   0.00000   0.00000   0.00001
  77        4PX        -0.07953   0.00000  -0.00000  -0.00000   0.00000
  78        4PY         0.06036   0.00000  -0.00000  -0.00000  -0.00000
  79        4PZ        -0.00000   0.03258  -0.04316   0.07202  -0.20390
  80        5S         -0.16314  -0.00001  -0.00000  -0.00000   0.00002
  81        5PX         0.11584   0.00000  -0.00000  -0.00001  -0.00002
  82        5PY         0.03483   0.00000  -0.00000  -0.00000  -0.00001
  83        5PZ        -0.00000  -0.00964  -0.02033   0.03356  -0.03384
  84        6D 0        0.00001   0.00000   0.00000  -0.00000  -0.00000
  85        6D+1        0.00000   0.01092  -0.00038  -0.01722  -0.01067
  86        6D-1        0.00000  -0.00368   0.00224  -0.00317   0.00604
  87        6D+2       -0.00994  -0.00000   0.00000  -0.00000  -0.00000
  88        6D-2        0.00947  -0.00000   0.00000   0.00000   0.00000
  89 5   C  1S          0.00508  -0.00000   0.00000   0.00000  -0.00000
  90        2S          0.00842  -0.00000   0.00000   0.00000  -0.00000
  91        2PX        -0.06618   0.00000  -0.00000  -0.00000   0.00000
  92        2PY         0.03539  -0.00000   0.00000   0.00000  -0.00000
  93        2PZ        -0.00000   0.00546   0.13101  -0.02844  -0.03098
  94        3S         -0.02659   0.00000  -0.00000  -0.00000   0.00000
  95        3PX        -0.09482   0.00000  -0.00000  -0.00000   0.00000
  96        3PY         0.05183  -0.00000   0.00000   0.00000  -0.00000
  97        3PZ        -0.00001   0.00712   0.21430  -0.04691  -0.04964
  98        4S          0.01250   0.00000   0.00001   0.00000   0.00001
  99        4PX        -0.04295   0.00000  -0.00000   0.00000   0.00000
 100        4PY         0.03907  -0.00000  -0.00000  -0.00000  -0.00000
 101        4PZ        -0.00001   0.01270   0.18727  -0.03755  -0.05518
 102        5S          0.23148   0.00002   0.00006   0.00002   0.00004
 103        5PX         0.08780   0.00000   0.00004   0.00002   0.00003
 104        5PY        -0.04103  -0.00000  -0.00001  -0.00000  -0.00000
 105        5PZ        -0.00000  -0.01958   0.03078  -0.03140  -0.00013
 106        6D 0       -0.00081  -0.00000  -0.00000  -0.00000   0.00000
 107        6D+1        0.00000  -0.01513  -0.01102  -0.01596   0.00207
 108        6D-1        0.00000  -0.00277  -0.00901   0.00078   0.00167
 109        6D+2       -0.00990   0.00000  -0.00000  -0.00000   0.00000
 110        6D-2        0.00700  -0.00000   0.00000  -0.00000   0.00000
 111 6   C  1S         -0.00187   0.00000   0.00000   0.00000  -0.00000
 112        2S         -0.00312   0.00000   0.00000   0.00000  -0.00000
 113        2PX         0.04675  -0.00000   0.00000   0.00000  -0.00000
 114        2PY        -0.02778   0.00000  -0.00000  -0.00000   0.00000
 115        2PZ        -0.00000   0.07173   0.12053   0.05609  -0.02114
 116        3S          0.01028  -0.00000  -0.00000  -0.00000   0.00000
 117        3PX         0.06691  -0.00000   0.00000  -0.00000  -0.00000
 118        3PY        -0.04078   0.00000  -0.00000  -0.00000  -0.00000
 119        3PZ        -0.00001   0.11689   0.19766   0.09154  -0.03459
 120        4S         -0.00910  -0.00000  -0.00000  -0.00000  -0.00000
 121        4PX         0.05923  -0.00000  -0.00000  -0.00000  -0.00000
 122        4PY        -0.03094   0.00000   0.00000   0.00000   0.00000
 123        4PZ        -0.00000   0.09408   0.16642   0.08356  -0.03036
 124        5S         -0.04097   0.00002  -0.00005  -0.00003  -0.00006
 125        5PX         0.00414  -0.00000   0.00001   0.00001   0.00001
 126        5PY         0.04082  -0.00000   0.00003   0.00002   0.00003
 127        5PZ         0.00000   0.01183   0.00074   0.02082  -0.01616
 128        6D 0       -0.00035   0.00000  -0.00000   0.00000   0.00000
 129        6D+1       -0.00000   0.00267   0.01438  -0.00184  -0.00313
 130        6D-1       -0.00000  -0.01095   0.00751  -0.01181  -0.00363
 131        6D+2       -0.00970   0.00000  -0.00000  -0.00000   0.00000
 132        6D-2        0.01231  -0.00000   0.00000   0.00000  -0.00000
 133 7   C  1S          0.00192  -0.00000   0.00000   0.00000  -0.00000
 134        2S          0.00317  -0.00000   0.00000  -0.00000  -0.00000
 135        2PX        -0.05063   0.00000  -0.00000  -0.00000   0.00000
 136        2PY         0.04028  -0.00000   0.00000   0.00000  -0.00000
 137        2PZ        -0.00000   0.09954  -0.01061   0.09147   0.01875
 138        3S         -0.01017   0.00000  -0.00000   0.00000   0.00000
 139        3PX        -0.07211   0.00000  -0.00000  -0.00000   0.00000
 140        3PY         0.05705  -0.00000   0.00000   0.00000  -0.00000
 141        3PZ        -0.00000   0.16438  -0.01764   0.15075   0.03045
 142        4S          0.01790   0.00000   0.00000   0.00000   0.00000
 143        4PX        -0.04464   0.00000   0.00000   0.00000   0.00000
 144        4PY         0.03473  -0.00000   0.00000   0.00000   0.00000
 145        4PZ        -0.00000   0.12685  -0.01449   0.13024   0.02967
 146        5S          0.00544   0.00000  -0.00002  -0.00002  -0.00003
 147        5PX        -0.00912   0.00000  -0.00002  -0.00001  -0.00002
 148        5PY         0.04108  -0.00001   0.00004   0.00003   0.00005
 149        5PZ        -0.00000  -0.00166   0.01045   0.00125   0.01687
 150        6D 0       -0.00024  -0.00000  -0.00000  -0.00000   0.00000
 151        6D+1        0.00000   0.00867  -0.01273   0.00454   0.00378
 152        6D-1       -0.00000   0.00503   0.02030   0.00448  -0.00432
 153        6D+2       -0.00310  -0.00000   0.00000  -0.00000  -0.00000
 154        6D-2        0.00863  -0.00000   0.00000  -0.00000  -0.00000
 155 8   C  1S         -0.00100   0.00000  -0.00000   0.00000   0.00000
 156        2S         -0.00164   0.00000  -0.00000   0.00000   0.00000
 157        2PX         0.05146  -0.00000   0.00000   0.00000  -0.00000
 158        2PY        -0.03204   0.00000  -0.00000  -0.00000  -0.00000
 159        2PZ         0.00000   0.07092  -0.12832   0.03806   0.03402
 160        3S          0.00320  -0.00000   0.00000  -0.00000  -0.00000
 161        3PX         0.07169  -0.00000   0.00000   0.00000  -0.00000
 162        3PY        -0.04720   0.00000  -0.00000  -0.00000  -0.00000
 163        3PZ         0.00000   0.11445  -0.20986   0.06265   0.05675
 164        4S         -0.01135  -0.00000  -0.00000  -0.00000  -0.00001
 165        4PX         0.05576   0.00000   0.00000   0.00000  -0.00001
 166        4PY        -0.05948  -0.00000  -0.00000  -0.00000  -0.00000
 167        4PZ         0.00000   0.09541  -0.17791   0.05798   0.05205
 168        5S          0.06647   0.00001  -0.00004  -0.00003  -0.00007
 169        5PX        -0.04590   0.00002  -0.00007  -0.00005  -0.00009
 170        5PY        -0.00083  -0.00000   0.00001   0.00001   0.00001
 171        5PZ         0.00000   0.00340  -0.04290   0.00762  -0.00252
 172        6D 0        0.00020  -0.00000  -0.00000  -0.00000   0.00000
 173        6D+1        0.00000  -0.00903  -0.01032  -0.01341  -0.00143
 174        6D-1        0.00000   0.00706  -0.00931   0.00268   0.00285
 175        6D+2       -0.01301   0.00000  -0.00000  -0.00000   0.00000
 176        6D-2        0.00862  -0.00000   0.00000  -0.00000  -0.00000
 177 9   C  1S          0.00296  -0.00000  -0.00000  -0.00000  -0.00000
 178        2S          0.00496  -0.00000  -0.00000  -0.00000  -0.00000
 179        2PX         0.07637  -0.00000   0.00000   0.00000  -0.00000
 180        2PY        -0.03301  -0.00000  -0.00000  -0.00000  -0.00000
 181        2PZ         0.00001  -0.00777   0.03689  -0.00025  -0.05008
 182        3S         -0.01623   0.00000   0.00000   0.00000   0.00000
 183        3PX         0.11433  -0.00000   0.00001   0.00000  -0.00000
 184        3PY        -0.04848  -0.00000  -0.00000  -0.00000  -0.00000
 185        3PZ         0.00001  -0.00940   0.05604   0.00012  -0.07666
 186        4S          0.00222  -0.00000   0.00003   0.00001   0.00004
 187        4PX         0.08752   0.00001   0.00001   0.00000   0.00000
 188        4PY        -0.05232  -0.00000  -0.00000  -0.00000  -0.00001
 189        4PZ         0.00001  -0.04411   0.05330   0.00025  -0.08001
 190        5S          0.03339  -0.00001   0.00007   0.00005   0.00009
 191        5PX        -0.22732   0.00000  -0.00002  -0.00001  -0.00000
 192        5PY         0.00141  -0.00000   0.00001   0.00001   0.00002
 193        5PZ         0.00000  -0.06721  -0.05476  -0.00273   0.07078
 194        6D 0        0.00401  -0.00000   0.00000  -0.00000  -0.00000
 195        6D+1       -0.00000   0.00082   0.01385   0.00818   0.00913
 196        6D-1       -0.00000   0.00060  -0.00920   0.00067   0.01595
 197        6D+2       -0.01108   0.00000  -0.00000  -0.00000   0.00000
 198        6D-2        0.00753  -0.00000   0.00000   0.00000  -0.00000
 199 10  C  1S          0.00810  -0.00000   0.00000  -0.00000  -0.00000
 200        2S          0.01345  -0.00000   0.00000  -0.00000  -0.00000
 201        2PX        -0.07362   0.00000  -0.00000  -0.00000   0.00000
 202        2PY         0.03791  -0.00000   0.00000   0.00000  -0.00000
 203        2PZ        -0.00000  -0.10332  -0.01045  -0.01128   0.01374
 204        3S         -0.04101   0.00000   0.00000   0.00000   0.00000
 205        3PX        -0.10676   0.00000  -0.00000  -0.00000   0.00000
 206        3PY         0.05544  -0.00000   0.00000   0.00000   0.00000
 207        3PZ        -0.00001  -0.16815  -0.01770  -0.01790   0.02335
 208        4S         -0.04746   0.00000  -0.00001  -0.00001  -0.00001
 209        4PX        -0.08936   0.00000  -0.00000  -0.00000   0.00000
 210        4PY         0.06557  -0.00000   0.00001   0.00000   0.00001
 211        4PZ        -0.00001  -0.13879  -0.01265  -0.01332   0.01718
 212        5S          0.03117  -0.00001   0.00006   0.00004   0.00008
 213        5PX         0.26267   0.00001   0.00003   0.00001  -0.00001
 214        5PY         0.01122   0.00000   0.00000  -0.00000   0.00000
 215        5PZ        -0.00000  -0.01408   0.03101   0.00535  -0.04945
 216        6D 0       -0.00123  -0.00000   0.00000   0.00000   0.00000
 217        6D+1        0.00000   0.00514  -0.00324   0.02354  -0.00006
 218        6D-1        0.00000   0.00926   0.00229   0.00083  -0.00356
 219        6D+2       -0.01242  -0.00000  -0.00000  -0.00000  -0.00000
 220        6D-2        0.00765  -0.00000   0.00000   0.00000  -0.00000
 221 11  C  1S          0.00135   0.00000  -0.00000   0.00000   0.00000
 222        2S          0.00229   0.00000  -0.00000   0.00000   0.00000
 223        2PX        -0.07867   0.00000  -0.00000   0.00000   0.00000
 224        2PY         0.05865   0.00000  -0.00000   0.00000   0.00000
 225        2PZ         0.00000   0.01076   0.03279   0.05272   0.12118
 226        3S         -0.00770  -0.00000   0.00000   0.00000  -0.00000
 227        3PX        -0.11578   0.00000  -0.00001   0.00000   0.00001
 228        3PY         0.08417   0.00000  -0.00000   0.00000   0.00000
 229        3PZ         0.00000   0.01757   0.05330   0.08717   0.19755
 230        4S         -0.01319  -0.00000  -0.00000  -0.00000  -0.00002
 231        4PX        -0.11474   0.00000   0.00000   0.00000   0.00002
 232        4PY         0.09101   0.00000   0.00000   0.00000   0.00001
 233        4PZ         0.00000   0.02749   0.05532   0.06650   0.21142
 234        5S         -0.11861   0.00000  -0.00011  -0.00005  -0.00013
 235        5PX        -0.06427  -0.00002   0.00001   0.00002   0.00004
 236        5PY        -0.18300  -0.00002  -0.00014  -0.00007  -0.00013
 237        5PZ        -0.00000   0.01873   0.00679   0.02157  -0.06221
 238        6D 0        0.00026   0.00000   0.00000  -0.00000  -0.00000
 239        6D+1       -0.00000   0.00908  -0.00036  -0.00714   0.01325
 240        6D-1       -0.00000  -0.00801  -0.00634   0.01584  -0.00194
 241        6D+2       -0.01051  -0.00000  -0.00000  -0.00000  -0.00000
 242        6D-2        0.01432  -0.00000   0.00000  -0.00000  -0.00000
 243 12  C  1S         -0.00392  -0.00000   0.00000  -0.00000  -0.00000
 244        2S         -0.00662  -0.00000   0.00000  -0.00000  -0.00000
 245        2PX         0.06276  -0.00000   0.00000  -0.00000  -0.00000
 246        2PY        -0.05137  -0.00000   0.00000  -0.00000  -0.00000
 247        2PZ        -0.00000  -0.04139  -0.01705   0.11727   0.00794
 248        3S          0.01926   0.00000  -0.00000   0.00000   0.00000
 249        3PX         0.09169  -0.00000   0.00000   0.00000  -0.00000
 250        3PY        -0.07512  -0.00000   0.00000  -0.00000  -0.00000
 251        3PZ        -0.00000  -0.06843  -0.02561   0.19193   0.01303
 252        4S          0.00342   0.00000  -0.00000  -0.00000  -0.00000
 253        4PX         0.07154  -0.00000  -0.00001  -0.00000  -0.00001
 254        4PY        -0.03162  -0.00000   0.00000   0.00000  -0.00000
 255        4PZ        -0.00000  -0.06299  -0.03714   0.18781   0.01058
 256        5S          0.18384   0.00001   0.00018   0.00010   0.00020
 257        5PX         0.25896   0.00002   0.00005   0.00002   0.00001
 258        5PY        -0.15350  -0.00001  -0.00009  -0.00004  -0.00008
 259        5PZ         0.00000   0.01022  -0.00315  -0.03353   0.07097
 260        6D 0        0.00006   0.00000  -0.00000  -0.00000   0.00000
 261        6D+1        0.00000   0.01247  -0.00182   0.00474  -0.01452
 262        6D-1       -0.00000  -0.00428  -0.00591  -0.00146  -0.02160
 263        6D+2       -0.01212  -0.00000   0.00000   0.00000  -0.00000
 264        6D-2        0.01766  -0.00000   0.00000  -0.00000  -0.00000
 265 13  C  1S          0.00241  -0.00000   0.00000   0.00000  -0.00000
 266        2S          0.00403  -0.00000   0.00000  -0.00000  -0.00000
 267        2PX        -0.06492   0.00000  -0.00000  -0.00000   0.00000
 268        2PY         0.05932  -0.00000   0.00000   0.00000  -0.00000
 269        2PZ         0.00000  -0.00158  -0.11970  -0.05061   0.00903
 270        3S         -0.01189   0.00000  -0.00000   0.00000   0.00000
 271        3PX        -0.09633   0.00000  -0.00001  -0.00000   0.00001
 272        3PY         0.08823  -0.00000   0.00000   0.00000  -0.00000
 273        3PZ         0.00001  -0.00462  -0.19478  -0.08524   0.01438
 274        4S         -0.02109   0.00000  -0.00001  -0.00000   0.00001
 275        4PX        -0.09543   0.00000  -0.00002  -0.00000  -0.00000
 276        4PY         0.06178  -0.00000   0.00001   0.00000  -0.00000
 277        4PZ         0.00001   0.01037  -0.18622  -0.07012   0.01218
 278        5S         -0.00283  -0.00000  -0.00012  -0.00006  -0.00014
 279        5PX        -0.07784  -0.00002  -0.00005  -0.00003  -0.00004
 280        5PY         0.18272   0.00003  -0.00008  -0.00006  -0.00015
 281        5PZ        -0.00000   0.01220   0.07490  -0.01233  -0.04367
 282        6D 0       -0.00038  -0.00000  -0.00000  -0.00000   0.00000
 283        6D+1        0.00000  -0.01001   0.01552  -0.00499  -0.00703
 284        6D-1       -0.00000  -0.01254   0.00538  -0.01271   0.00223
 285        6D+2       -0.00884  -0.00000  -0.00000  -0.00000  -0.00000
 286        6D-2        0.01431  -0.00000   0.00000   0.00000  -0.00000
 287 14  C  1S         -0.00231  -0.00000  -0.00000  -0.00000   0.00000
 288        2S         -0.00388  -0.00000  -0.00000  -0.00000   0.00000
 289        2PX         0.05939  -0.00000   0.00000   0.00000  -0.00000
 290        2PY        -0.05103   0.00000  -0.00000  -0.00000   0.00000
 291        2PZ        -0.00000  -0.08464   0.00317  -0.10454   0.00170
 292        3S          0.01120   0.00000   0.00000   0.00000  -0.00000
 293        3PX         0.08634  -0.00000   0.00000  -0.00000  -0.00000
 294        3PY        -0.07495   0.00000  -0.00000  -0.00000   0.00000
 295        3PZ        -0.00001  -0.13849   0.00441  -0.17174  -0.00000
 296        4S         -0.01007  -0.00000   0.00000  -0.00000   0.00000
 297        4PX         0.09574  -0.00000   0.00001   0.00000   0.00001
 298        4PY        -0.07930  -0.00000  -0.00000   0.00000   0.00000
 299        4PZ        -0.00000  -0.12564   0.01087  -0.17178   0.01383
 300        5S         -0.11381  -0.00003   0.00013   0.00008   0.00019
 301        5PX         0.22307   0.00002   0.00005   0.00002   0.00001
 302        5PY         0.11568   0.00001  -0.00007  -0.00004  -0.00011
 303        5PZ         0.00000   0.01963  -0.06852   0.02079   0.04708
 304        6D 0       -0.00015  -0.00000  -0.00000  -0.00000  -0.00000
 305        6D+1        0.00000  -0.01240  -0.01300   0.00029   0.00484
 306        6D-1       -0.00000  -0.00552   0.01836   0.00160  -0.00243
 307        6D+2       -0.01059   0.00000  -0.00000  -0.00000   0.00000
 308        6D-2        0.01423  -0.00000   0.00000   0.00000  -0.00000
 309 15  H  1S          0.03488   0.00000   0.00000  -0.00000   0.00000
 310        2S          0.05064   0.00000   0.00000  -0.00000   0.00000
 311        3S          0.02198   0.00000  -0.00000  -0.00000  -0.00000
 312        4S          0.01129   0.00000   0.00001   0.00000   0.00001
 313        5PX         0.00439  -0.00000   0.00000   0.00000  -0.00000
 314        5PY         0.00173   0.00000   0.00000  -0.00000  -0.00000
 315        5PZ         0.00000   0.00488   0.00199  -0.00475   0.00899
 316 16  H  1S         -0.07776   0.00000  -0.00000  -0.00000   0.00000
 317        2S         -0.11342   0.00000  -0.00000   0.00000   0.00000
 318        3S         -0.04471  -0.00000  -0.00000   0.00000   0.00000
 319        4S         -0.00878   0.00000   0.00000   0.00000   0.00000
 320        5PX         0.00436  -0.00000  -0.00000  -0.00000  -0.00000
 321        5PY        -0.00286   0.00000  -0.00000  -0.00000   0.00000
 322        5PZ        -0.00000   0.00666  -0.00002  -0.00792   0.00028
 323 17  H  1S          0.03846  -0.00000   0.00000   0.00000  -0.00000
 324        2S          0.05475  -0.00000   0.00000  -0.00000  -0.00000
 325        3S          0.02217  -0.00000   0.00000   0.00000  -0.00000
 326        4S          0.00602   0.00000  -0.00000  -0.00000  -0.00000
 327        5PX         0.00007   0.00000  -0.00000   0.00000   0.00000
 328        5PY        -0.00504   0.00000  -0.00000  -0.00000   0.00000
 329        5PZ        -0.00000   0.00508  -0.00173  -0.00406  -0.00876
 330 18  H  1S          0.03747   0.00000  -0.00000   0.00000   0.00000
 331        2S          0.05513   0.00000  -0.00000   0.00000   0.00000
 332        3S          0.02492  -0.00000   0.00000   0.00000   0.00000
 333        4S         -0.01494   0.00000   0.00000   0.00000   0.00000
 334        5PX        -0.00459   0.00000  -0.00000   0.00000   0.00000
 335        5PY        -0.00250  -0.00000  -0.00000  -0.00000  -0.00000
 336        5PZ        -0.00000   0.00079  -0.00261   0.00416  -0.00915
 337 19  H  1S          0.03354  -0.00000   0.00000   0.00000   0.00000
 338        2S          0.04910  -0.00000   0.00000   0.00000  -0.00000
 339        3S          0.02386   0.00000  -0.00000  -0.00000  -0.00000
 340        4S          0.00245  -0.00000  -0.00000   0.00000  -0.00000
 341        5PX        -0.00375   0.00000  -0.00000   0.00000   0.00000
 342        5PY        -0.00088   0.00000   0.00000   0.00000   0.00000
 343        5PZ        -0.00000  -0.00645  -0.00041  -0.00069   0.00045
 344 20  H  1S          0.03196  -0.00000   0.00000   0.00000  -0.00000
 345        2S          0.04789  -0.00000   0.00000   0.00000  -0.00000
 346        3S          0.02517  -0.00000   0.00000   0.00000   0.00000
 347        4S          0.01741  -0.00000   0.00000   0.00000   0.00000
 348        5PX        -0.00306   0.00000  -0.00000  -0.00000   0.00000
 349        5PY        -0.00134   0.00000  -0.00000  -0.00000  -0.00000
 350        5PZ        -0.00000  -0.00024   0.00896  -0.00220  -0.00198
 351 21  H  1S         -0.05288   0.00000  -0.00000  -0.00000   0.00000
 352        2S         -0.07742   0.00000  -0.00000  -0.00000   0.00000
 353        3S         -0.03006  -0.00000  -0.00000   0.00000   0.00000
 354        4S         -0.00462  -0.00000  -0.00000  -0.00000  -0.00000
 355        5PX        -0.00305   0.00000  -0.00000  -0.00000   0.00000
 356        5PY         0.00150  -0.00000   0.00000   0.00000  -0.00000
 357        5PZ        -0.00000   0.00459   0.00819   0.00381  -0.00156
 358 22  H  1S          0.02089  -0.00000   0.00000   0.00000  -0.00000
 359        2S          0.03096  -0.00000   0.00000   0.00000  -0.00000
 360        3S          0.01480   0.00000   0.00000   0.00000  -0.00000
 361        4S          0.00674  -0.00000   0.00000   0.00000  -0.00000
 362        5PX        -0.00054  -0.00000  -0.00000   0.00000   0.00000
 363        5PY         0.00355  -0.00000   0.00000   0.00000  -0.00000
 364        5PZ        -0.00000   0.00633  -0.00072   0.00622   0.00124
 365 23  H  1S          0.03668  -0.00000   0.00000   0.00000  -0.00000
 366        2S          0.05153  -0.00000   0.00000  -0.00000  -0.00000
 367        3S          0.02237   0.00000   0.00000  -0.00000  -0.00000
 368        4S         -0.00471  -0.00000   0.00001   0.00000   0.00001
 369        5PX         0.00313  -0.00000   0.00000   0.00000  -0.00000
 370        5PY         0.00180  -0.00000  -0.00000  -0.00000   0.00000
 371        5PZ         0.00000   0.00456  -0.00870   0.00274   0.00218
 372 24  H  1S          0.02316  -0.00446   0.03340  -0.00050  -0.04708
 373        2S          0.03427   0.00229   0.05147  -0.00123  -0.07549
 374        3S          0.01446   0.02397   0.04013  -0.00171  -0.06376
 375        4S         -0.00264   0.04440   0.02135  -0.00153  -0.03355
 376        5PX         0.00359   0.00011   0.00158   0.00037   0.00242
 377        5PY         0.00011   0.00077   0.00233  -0.00004  -0.00242
 378        5PZ        -0.00235   0.00017  -0.00095   0.00012   0.00137
 379 25  H  1S          0.02315   0.00446  -0.03340   0.00050   0.04708
 380        2S          0.03426  -0.00229  -0.05147   0.00123   0.07549
 381        3S          0.01446  -0.02396  -0.04016   0.00170   0.06372
 382        4S         -0.00265  -0.04440  -0.02137   0.00152   0.03352
 383        5PX         0.00359  -0.00011  -0.00158  -0.00037  -0.00242
 384        5PY         0.00011  -0.00077  -0.00233   0.00004   0.00242
 385        5PZ         0.00235   0.00017  -0.00095   0.00012   0.00137
                          48        49        50        51        52
                           V         V         V         V         V
     Eigenvalues --    -0.26175  -0.14763  -0.14011  -0.12782  -0.11200
   1 1   C  1S         -0.00000  -0.00000   0.00000   0.00000  -0.00483
   2        2S         -0.00000  -0.00000   0.00000   0.00000  -0.00819
   3        2PX         0.00000  -0.00000  -0.00000  -0.00000   0.00349
   4        2PY        -0.00000  -0.00000   0.00000   0.00000  -0.01350
   5        2PZ        -0.00536   0.10396  -0.03365  -0.09311  -0.00000
   6        3S          0.00000   0.00000  -0.00000  -0.00000   0.02735
   7        3PX         0.00000  -0.00000   0.00000   0.00000   0.00357
   8        3PY        -0.00000  -0.00000   0.00000   0.00000  -0.01987
   9        3PZ        -0.00882   0.15954  -0.05104  -0.14677  -0.00000
  10        4S          0.00000   0.00001   0.00000   0.00001   0.00739
  11        4PX         0.00000   0.00001  -0.00001  -0.00001   0.02428
  12        4PY         0.00000   0.00001   0.00000   0.00000  -0.07387
  13        4PZ        -0.00994   0.29016  -0.09408  -0.25286  -0.00000
  14        5S         -0.00002   0.00007   0.00035   0.00027  -1.46435
  15        5PX         0.00002  -0.00004  -0.00034  -0.00025   0.50327
  16        5PY         0.00000   0.00000  -0.00001  -0.00001  -0.42337
  17        5PZ         0.00740   0.21753  -0.03873  -0.30277  -0.00002
  18        6D 0        0.00000   0.00000   0.00000  -0.00000  -0.00471
  19        6D+1        0.01318   0.01187   0.02090  -0.00377   0.00000
  20        6D-1       -0.00184  -0.00854   0.00344   0.00700  -0.00000
  21        6D+2        0.00000   0.00000  -0.00000  -0.00000   0.00127
  22        6D-2        0.00000  -0.00000  -0.00000  -0.00000  -0.00084
  23 2   C  1S         -0.00000   0.00000   0.00000   0.00000  -0.00367
  24        2S         -0.00000   0.00000   0.00000   0.00000  -0.00607
  25        2PX        -0.00000   0.00000  -0.00000  -0.00000   0.00467
  26        2PY        -0.00000   0.00000   0.00000  -0.00000  -0.00016
  27        2PZ         0.06251   0.00143   0.09737   0.03106   0.00000
  28        3S          0.00000  -0.00000  -0.00000  -0.00000   0.01713
  29        3PX        -0.00000   0.00000  -0.00000  -0.00000   0.00833
  30        3PY        -0.00000   0.00000  -0.00000  -0.00000  -0.00169
  31        3PZ         0.10251   0.00370   0.15489   0.04880   0.00000
  32        4S         -0.00000  -0.00001   0.00000   0.00000   0.09324
  33        4PX         0.00000   0.00001   0.00000   0.00000  -0.00964
  34        4PY         0.00000  -0.00000  -0.00000  -0.00000   0.01171
  35        4PZ         0.11716  -0.00285   0.25569   0.08395   0.00000
  36        5S         -0.00001  -0.00004  -0.00005  -0.00002   0.76018
  37        5PX         0.00001   0.00000  -0.00003  -0.00003   0.05713
  38        5PY         0.00001  -0.00003  -0.00020  -0.00014   0.25403
  39        5PZ         0.03585   0.00159   0.20029   0.09651   0.00001
  40        6D 0        0.00000   0.00000  -0.00000   0.00000  -0.00292
  41        6D+1        0.00158  -0.01260   0.00527   0.01260   0.00000
  42        6D-1        0.00181  -0.02424  -0.00365   0.01834   0.00000
  43        6D+2       -0.00000  -0.00000   0.00000   0.00000  -0.00195
  44        6D-2        0.00000   0.00000  -0.00000  -0.00000   0.00309
  45 3   C  1S         -0.00000  -0.00000   0.00000   0.00000  -0.00304
  46        2S         -0.00000  -0.00000   0.00000   0.00000  -0.00503
  47        2PX        -0.00000  -0.00000  -0.00000   0.00000   0.00540
  48        2PY        -0.00000  -0.00000   0.00000   0.00000  -0.00016
  49        2PZ         0.01498  -0.10575  -0.03787   0.06904   0.00000
  50        3S          0.00000   0.00000  -0.00000  -0.00000   0.01411
  51        3PX        -0.00000  -0.00000  -0.00000  -0.00000   0.01047
  52        3PY        -0.00000  -0.00000   0.00000   0.00000   0.00055
  53        3PZ         0.02510  -0.16556  -0.06040   0.10798   0.00000
  54        4S          0.00000   0.00001   0.00001   0.00000   0.04702
  55        4PX        -0.00000  -0.00000  -0.00000  -0.00000   0.01002
  56        4PY        -0.00000  -0.00000  -0.00000  -0.00000   0.01898
  57        4PZ         0.01942  -0.27605  -0.10509   0.17825   0.00000
  58        5S         -0.00000   0.00008   0.00037   0.00025   0.03788
  59        5PX        -0.00000  -0.00000   0.00001   0.00001   0.00336
  60        5PY         0.00000  -0.00003  -0.00012  -0.00009   0.26326
  61        5PZ         0.00440  -0.20321  -0.07320   0.17088  -0.00000
  62        6D 0        0.00000   0.00000   0.00000  -0.00000  -0.00323
  63        6D+1        0.00794  -0.00952   0.00925   0.01272   0.00000
  64        6D-1       -0.01097   0.00525  -0.01860  -0.01154  -0.00000
  65        6D+2        0.00000   0.00000   0.00000   0.00000  -0.00179
  66        6D-2        0.00000  -0.00000   0.00000   0.00000  -0.00273
  67 4   C  1S         -0.00000  -0.00000   0.00000  -0.00000  -0.00508
  68        2S         -0.00000  -0.00000   0.00000  -0.00000  -0.00853
  69        2PX        -0.00000  -0.00000  -0.00000  -0.00000   0.00407
  70        2PY        -0.00000  -0.00000  -0.00000  -0.00000   0.01394
  71        2PZ        -0.06503   0.08540  -0.06574  -0.09800  -0.00000
  72        3S          0.00000   0.00000  -0.00000  -0.00000   0.02495
  73        3PX        -0.00000  -0.00000   0.00000  -0.00000   0.00431
  74        3PY        -0.00000  -0.00000   0.00000  -0.00000   0.01869
  75        3PZ        -0.10499   0.12977  -0.10404  -0.15584  -0.00000
  76        4S          0.00000  -0.00001  -0.00002  -0.00000   0.19330
  77        4PX        -0.00000  -0.00000   0.00000   0.00000  -0.04537
  78        4PY        -0.00000   0.00001   0.00001   0.00000   0.01222
  79        4PZ        -0.11776   0.24344  -0.19424  -0.25669  -0.00000
  80        5S          0.00001  -0.00002  -0.00001   0.00000   1.87717
  81        5PX        -0.00001   0.00001   0.00006   0.00004  -0.67475
  82        5PY         0.00000   0.00000   0.00001   0.00001   0.46169
  83        5PZ        -0.02414   0.20882  -0.21312  -0.26176  -0.00000
  84        6D 0        0.00000   0.00000  -0.00000   0.00000  -0.00499
  85        6D+1        0.00236  -0.01747  -0.01731   0.00518  -0.00000
  86        6D-1        0.00369   0.00708  -0.00252  -0.00711  -0.00000
  87        6D+2        0.00000   0.00000  -0.00000  -0.00000   0.00017
  88        6D-2       -0.00000  -0.00000   0.00000   0.00000   0.00205
  89 5   C  1S          0.00000   0.00000  -0.00000   0.00000  -0.00815
  90        2S          0.00000   0.00000  -0.00000   0.00000  -0.01374
  91        2PX        -0.00000  -0.00000   0.00000  -0.00000  -0.00357
  92        2PY         0.00000   0.00000  -0.00000  -0.00000   0.02047
  93        2PZ        -0.08973   0.07501  -0.00851   0.11299   0.00000
  94        3S         -0.00000  -0.00000   0.00000  -0.00000   0.04190
  95        3PX        -0.00000  -0.00000   0.00000  -0.00000  -0.00361
  96        3PY         0.00000   0.00000  -0.00000  -0.00000   0.02827
  97        3PZ        -0.14579   0.11503  -0.01271   0.17947   0.00000
  98        4S          0.00000  -0.00000  -0.00002  -0.00000   0.21083
  99        4PX        -0.00000  -0.00000  -0.00000  -0.00000   0.04946
 100        4PY        -0.00000   0.00000   0.00001   0.00000   0.05601
 101        4PZ        -0.17249   0.23930  -0.03182   0.33215   0.00000
 102        5S          0.00001  -0.00001  -0.00023  -0.00011   1.39385
 103        5PX         0.00001  -0.00004  -0.00015  -0.00011   0.95731
 104        5PY        -0.00000   0.00001   0.00002   0.00001   0.80364
 105        5PZ        -0.04610   0.24633   0.02865   0.40497   0.00001
 106        6D 0       -0.00000  -0.00000   0.00000   0.00000  -0.00616
 107        6D+1        0.00018   0.00163  -0.03111   0.00585  -0.00000
 108        6D-1        0.00338   0.00689   0.00018   0.01158   0.00000
 109        6D+2       -0.00000  -0.00000   0.00000  -0.00000   0.00247
 110        6D-2       -0.00000  -0.00000   0.00000  -0.00000  -0.00239
 111 6   C  1S          0.00000   0.00000  -0.00000   0.00000  -0.00585
 112        2S          0.00000   0.00000  -0.00000   0.00000  -0.00975
 113        2PX         0.00000  -0.00000   0.00000   0.00000  -0.01174
 114        2PY         0.00000   0.00000  -0.00000   0.00000   0.00242
 115        2PZ         0.00446  -0.03611   0.10870  -0.07377   0.00000
 116        3S         -0.00000  -0.00000   0.00000  -0.00000   0.02886
 117        3PX         0.00000   0.00000   0.00000   0.00000  -0.01874
 118        3PY         0.00000   0.00000   0.00000   0.00000   0.00482
 119        3PZ         0.01008  -0.05668   0.17306  -0.11619   0.00000
 120        4S         -0.00000  -0.00000   0.00001   0.00000   0.11105
 121        4PX        -0.00000  -0.00000   0.00001   0.00000  -0.02653
 122        4PY         0.00000   0.00000  -0.00000  -0.00000   0.02504
 123        4PZ         0.00316  -0.11333   0.30082  -0.22304   0.00000
 124        5S         -0.00004   0.00011   0.00017   0.00012   0.40678
 125        5PX        -0.00000  -0.00002  -0.00003  -0.00003  -0.03747
 126        5PY         0.00001  -0.00006  -0.00013  -0.00010   0.54764
 127        5PZ        -0.00127  -0.08658   0.24865  -0.23732   0.00000
 128        6D 0       -0.00000  -0.00000   0.00000   0.00000  -0.00481
 129        6D+1       -0.01146   0.00931  -0.00155   0.01521   0.00000
 130        6D-1       -0.01897   0.01377   0.01330   0.01778   0.00000
 131        6D+2       -0.00000  -0.00000   0.00000   0.00000  -0.00363
 132        6D-2        0.00000  -0.00000   0.00000  -0.00000   0.00508
 133 7   C  1S          0.00000   0.00000   0.00000   0.00000  -0.00684
 134        2S          0.00000   0.00000   0.00000   0.00000  -0.01140
 135        2PX        -0.00000  -0.00000  -0.00000   0.00000  -0.01150
 136        2PY         0.00000   0.00000  -0.00000   0.00000  -0.00230
 137        2PZ         0.10950  -0.05021  -0.09502  -0.04666  -0.00000
 138        3S         -0.00000  -0.00000  -0.00000  -0.00000   0.03386
 139        3PX        -0.00000   0.00000  -0.00000   0.00000  -0.01807
 140        3PY         0.00000   0.00000  -0.00000  -0.00000  -0.00540
 141        3PZ         0.17919  -0.07890  -0.15104  -0.07335  -0.00000
 142        4S          0.00000   0.00001  -0.00001   0.00001   0.14513
 143        4PX         0.00000   0.00000  -0.00000   0.00000  -0.01353
 144        4PY         0.00000  -0.00000  -0.00000  -0.00000   0.00829
 145        4PZ         0.21266  -0.14138  -0.25787  -0.13479  -0.00000
 146        5S          0.00000   0.00008   0.00011   0.00010   0.06600
 147        5PX        -0.00000   0.00004   0.00008   0.00007  -0.47955
 148        5PY         0.00002  -0.00009  -0.00018  -0.00014   0.48114
 149        5PZ         0.06911  -0.11909  -0.22180  -0.14447  -0.00002
 150        6D 0       -0.00000  -0.00000   0.00000  -0.00000  -0.00467
 151        6D+1       -0.00239   0.01046  -0.00248   0.01671   0.00000
 152        6D-1        0.00007  -0.01230   0.01764  -0.02242  -0.00000
 153        6D+2        0.00000   0.00000  -0.00000   0.00000  -0.00255
 154        6D-2        0.00000   0.00000  -0.00000   0.00000  -0.00545
 155 8   C  1S         -0.00000   0.00000  -0.00000   0.00000  -0.00777
 156        2S         -0.00000   0.00000  -0.00000   0.00000  -0.01316
 157        2PX         0.00000   0.00000   0.00000   0.00000  -0.00362
 158        2PY         0.00000   0.00000  -0.00000   0.00000  -0.01773
 159        2PZ        -0.00584   0.08125  -0.01030   0.12032   0.00000
 160        3S          0.00000  -0.00000   0.00000  -0.00000   0.04214
 161        3PX         0.00000  -0.00000  -0.00000  -0.00000  -0.00327
 162        3PY         0.00000   0.00000  -0.00000   0.00000  -0.02569
 163        3PZ        -0.00805   0.12510  -0.01551   0.19166   0.00000
 164        4S         -0.00000  -0.00001   0.00001   0.00000   0.06001
 165        4PX         0.00000   0.00001   0.00000   0.00001  -0.02620
 166        4PY        -0.00000  -0.00000   0.00001   0.00000  -0.08741
 167        4PZ        -0.00554   0.24160  -0.04836   0.35606   0.00000
 168        5S         -0.00001   0.00009   0.00022   0.00019  -2.00380
 169        5PX        -0.00003   0.00019   0.00031   0.00026  -1.31276
 170        5PY         0.00000  -0.00003  -0.00004  -0.00003  -0.53213
 171        5PZ         0.01188   0.18226  -0.06240   0.41684   0.00002
 172        6D 0       -0.00000  -0.00000   0.00000  -0.00000  -0.00646
 173        6D+1       -0.02247   0.00236   0.02721  -0.00500   0.00000
 174        6D-1       -0.00183  -0.00806   0.00037  -0.01076   0.00000
 175        6D+2       -0.00000  -0.00000   0.00000  -0.00000   0.00216
 176        6D-2        0.00000   0.00000   0.00000   0.00000   0.00184
 177 9   C  1S         -0.00000   0.00000   0.00000  -0.00000  -0.01370
 178        2S         -0.00000   0.00000   0.00000  -0.00000  -0.02304
 179        2PX         0.00000  -0.00000   0.00000  -0.00000   0.00247
 180        2PY        -0.00000   0.00000   0.00000   0.00000  -0.03030
 181        2PZ         0.02858  -0.01217   0.00687  -0.00274   0.00000
 182        3S          0.00000   0.00000  -0.00000   0.00000   0.06036
 183        3PX         0.00000  -0.00000   0.00000  -0.00000   0.00407
 184        3PY         0.00000   0.00000   0.00000   0.00000  -0.04586
 185        3PZ         0.03820  -0.01887   0.00969  -0.00422   0.00000
 186        4S          0.00001  -0.00003  -0.00010  -0.00003   0.42157
 187        4PX        -0.00001   0.00000  -0.00002  -0.00000   0.02414
 188        4PY        -0.00000   0.00000   0.00002   0.00001  -0.02404
 189        4PZ         0.07453  -0.09662   0.06376  -0.00285   0.00000
 190        5S          0.00002  -0.00012  -0.00035  -0.00030   0.92247
 191        5PX        -0.00003   0.00006   0.00004   0.00003  -0.40659
 192        5PY         0.00000  -0.00001  -0.00005  -0.00005  -0.45695
 193        5PZ         0.12768  -0.39254   0.21703  -0.03525   0.00001
 194        6D 0        0.00000   0.00000   0.00000  -0.00000  -0.00859
 195        6D+1        0.00391  -0.00769  -0.02229   0.01417  -0.00000
 196        6D-1       -0.01919  -0.02849   0.00611  -0.00310  -0.00000
 197        6D+2       -0.00000  -0.00000   0.00000   0.00000   0.00245
 198        6D-2        0.00000   0.00000  -0.00000   0.00000  -0.00064
 199 10  C  1S         -0.00000  -0.00000   0.00000   0.00000  -0.01029
 200        2S         -0.00000  -0.00000   0.00000   0.00000  -0.01753
 201        2PX        -0.00000  -0.00000   0.00000  -0.00000   0.00183
 202        2PY        -0.00000   0.00000   0.00000  -0.00000   0.02316
 203        2PZ         0.16889   0.02347   0.03554   0.01625   0.00000
 204        3S          0.00000  -0.00000  -0.00000  -0.00000   0.05822
 205        3PX        -0.00000  -0.00000   0.00000  -0.00000   0.00289
 206        3PY         0.00000  -0.00000  -0.00000  -0.00000   0.03246
 207        3PZ         0.27466   0.03549   0.05841   0.02558   0.00000
 208        4S         -0.00000   0.00002   0.00003   0.00001   0.06923
 209        4PX        -0.00000  -0.00000   0.00000   0.00000  -0.00957
 210        4PY         0.00000  -0.00001  -0.00001  -0.00000   0.20165
 211        4PZ         0.34018   0.09244   0.09819   0.05720   0.00000
 212        5S          0.00002  -0.00009  -0.00028  -0.00022   1.55734
 213        5PX         0.00001   0.00003  -0.00009  -0.00003  -0.48211
 214        5PY         0.00000  -0.00000  -0.00003  -0.00000   1.90693
 215        5PZ         0.09600   0.33317   0.01614   0.12481   0.00000
 216        6D 0        0.00000  -0.00000  -0.00000  -0.00000  -0.00735
 217        6D+1       -0.00140   0.00795   0.02941   0.00585   0.00000
 218        6D-1        0.00072   0.01303  -0.00074   0.00398   0.00000
 219        6D+2       -0.00000   0.00000   0.00000  -0.00000   0.00098
 220        6D-2        0.00000   0.00000  -0.00000  -0.00000   0.00037
 221 11  C  1S         -0.00000  -0.00000   0.00000  -0.00000  -0.00524
 222        2S         -0.00000  -0.00000   0.00000  -0.00000  -0.00903
 223        2PX        -0.00000  -0.00000   0.00000  -0.00000   0.00316
 224        2PY        -0.00000  -0.00000   0.00000  -0.00000   0.00890
 225        2PZ        -0.07396  -0.11635  -0.06148   0.06915  -0.00000
 226        3S          0.00000   0.00000  -0.00000   0.00000   0.03654
 227        3PX        -0.00000  -0.00000   0.00000  -0.00000   0.00490
 228        3PY        -0.00000  -0.00000   0.00000  -0.00000   0.01217
 229        3PZ        -0.11918  -0.18031  -0.09615   0.11270  -0.00000
 230        4S          0.00001   0.00002   0.00001   0.00000  -0.03633
 231        4PX        -0.00001  -0.00002  -0.00003  -0.00001   0.12902
 232        4PY        -0.00001  -0.00001  -0.00002  -0.00000   0.01883
 233        4PZ        -0.15269  -0.30848  -0.20576   0.17928  -0.00000
 234        5S         -0.00002   0.00016   0.00047   0.00032  -3.11660
 235        5PX         0.00001  -0.00007  -0.00008  -0.00009   0.54256
 236        5PY        -0.00004   0.00008   0.00061   0.00042  -1.96983
 237        5PZ        -0.09071  -0.08085  -0.37739   0.26079  -0.00001
 238        6D 0        0.00000   0.00000   0.00000  -0.00000  -0.00722
 239        6D+1       -0.00407   0.01800  -0.00639  -0.01174  -0.00000
 240        6D-1       -0.00554  -0.00845   0.01949   0.01136   0.00000
 241        6D+2        0.00000   0.00000   0.00000  -0.00000  -0.00543
 242        6D-2       -0.00000  -0.00000   0.00000   0.00000   0.00147
 243 12  C  1S          0.00000   0.00000   0.00000   0.00000  -0.00593
 244        2S          0.00000   0.00000   0.00000   0.00000  -0.01009
 245        2PX         0.00000   0.00000   0.00000   0.00000   0.00009
 246        2PY         0.00000   0.00000   0.00000   0.00000  -0.01030
 247        2PZ        -0.02297   0.01306   0.09293   0.03239   0.00000
 248        3S         -0.00000  -0.00000  -0.00000  -0.00000   0.03495
 249        3PX         0.00000  -0.00000  -0.00000  -0.00000   0.00289
 250        3PY         0.00000   0.00000   0.00000   0.00000  -0.01423
 251        3PZ        -0.03602   0.02597   0.14527   0.05703   0.00000
 252        4S          0.00000   0.00000   0.00000  -0.00000   0.10570
 253        4PX         0.00000   0.00001   0.00003   0.00001  -0.15456
 254        4PY         0.00000   0.00000  -0.00000   0.00000  -0.07567
 255        4PZ        -0.04560   0.01233   0.29331   0.07059   0.00000
 256        5S          0.00004  -0.00021  -0.00079  -0.00056   5.08622
 257        5PX         0.00000   0.00003  -0.00016  -0.00009  -0.80281
 258        5PY        -0.00003   0.00006   0.00039   0.00024  -3.03164
 259        5PZ        -0.01030  -0.16459   0.43516   0.01551   0.00001
 260        6D 0       -0.00000  -0.00000   0.00000   0.00000  -0.00751
 261        6D+1       -0.02396   0.01181  -0.01578  -0.01436  -0.00000
 262        6D-1        0.01432   0.02927   0.00744  -0.01729   0.00000
 263        6D+2        0.00000  -0.00000  -0.00000   0.00000  -0.00399
 264        6D-2        0.00000   0.00000  -0.00000   0.00000  -0.00308
 265 13  C  1S          0.00000   0.00000  -0.00000   0.00000  -0.00674
 266        2S          0.00000   0.00000  -0.00000   0.00000  -0.01158
 267        2PX        -0.00000  -0.00000   0.00000  -0.00000  -0.00135
 268        2PY         0.00000   0.00000  -0.00000   0.00000   0.00988
 269        2PZ        -0.10070  -0.03948   0.10624  -0.08422   0.00000
 270        3S         -0.00000  -0.00001   0.00000  -0.00000   0.04534
 271        3PX        -0.00001  -0.00000   0.00000  -0.00000  -0.00125
 272        3PY         0.00000   0.00000  -0.00000   0.00000   0.01534
 273        3PZ        -0.16226  -0.06092   0.16653  -0.13696   0.00000
 274        4S         -0.00001  -0.00001   0.00001  -0.00001   0.01841
 275        4PX        -0.00001  -0.00000   0.00003   0.00001  -0.09871
 276        4PY         0.00001  -0.00000  -0.00001   0.00000  -0.01176
 277        4PZ        -0.21255  -0.10284   0.30990  -0.24780   0.00000
 278        5S         -0.00005   0.00009   0.00053   0.00034  -4.17929
 279        5PX        -0.00001   0.00001   0.00023   0.00015  -1.30340
 280        5PY        -0.00003   0.00022   0.00040   0.00034  -2.34744
 281        5PZ        -0.12642   0.15564   0.29286  -0.26023   0.00000
[...]
 186        4S          0.43170
 187        4PX         0.16370
 188        4PY         0.27304
 189        4PZ         0.39768
 190        5S          0.34591
 191        5PX        -0.25442
 192        5PY         0.03588
 193        5PZ        -0.02820
 194        6D 0        0.00825
 195        6D+1        0.00849
 196        6D-1        0.01210
 197        6D+2        0.01194
 198        6D-2        0.01366
 199 10  C  1S          1.10550
 200        2S          0.88521
 201        2PX         0.24241
 202        2PY         0.24082
 203        2PZ         0.11549
 204        3S          0.79938
 205        3PX         0.55123
 206        3PY         0.54910
 207        3PZ         0.31227
 208        4S          0.41343
 209        4PX         0.15844
 210        4PY         0.34388
 211        4PZ         0.25652
 212        5S          0.02903
 213        5PX        -0.36698
 214        5PY         0.19738
 215        5PZ         0.04228
 216        6D 0        0.00299
 217        6D+1        0.01273
 218        6D-1        0.00362
 219        6D+2        0.02117
 220        6D-2        0.01508
 221 11  C  1S          1.10531
 222        2S          0.88559
 223        2PX         0.22473
 224        2PY         0.23740
 225        2PZ         0.15576
 226        3S          0.76415
 227        3PX         0.52683
 228        3PY         0.53077
 229        3PZ         0.40748
 230        4S          0.42024
 231        4PX         0.27646
 232        4PY         0.21090
 233        4PZ         0.33749
 234        5S          0.10485
 235        5PX        -0.30267
 236        5PY         0.61271
 237        5PZ         0.01788
 238        6D 0        0.00398
 239        6D+1        0.00864
 240        6D-1        0.01157
 241        6D+2        0.01994
 242        6D-2        0.02102
 243 12  C  1S          1.10520
 244        2S          0.88558
 245        2PX         0.22795
 246        2PY         0.23829
 247        2PZ         0.17562
 248        3S          0.75236
 249        3PX         0.52239
 250        3PY         0.53479
 251        3PZ         0.46291
 252        4S          0.35864
 253        4PX         0.14040
 254        4PY         0.19062
 255        4PZ         0.39384
 256        5S         -0.47036
 257        5PX        -0.47435
 258        5PY         0.27628
 259        5PZ        -0.06245
 260        6D 0        0.00443
 261        6D+1        0.00756
 262        6D-1        0.01009
 263        6D+2        0.02299
 264        6D-2        0.02297
 265 13  C  1S          1.10533
 266        2S          0.88544
 267        2PX         0.23992
 268        2PY         0.23117
 269        2PZ         0.14936
 270        3S          0.77142
 271        3PX         0.53808
 272        3PY         0.53124
 273        3PZ         0.39459
 274        4S          0.39262
 275        4PX         0.26106
 276        4PY         0.22762
 277        4PZ         0.31135
 278        5S          0.15968
 279        5PX        -0.25377
 280        5PY         0.61364
 281        5PZ         0.01035
 282        6D 0        0.00382
 283        6D+1        0.01105
 284        6D-1        0.00977
 285        6D+2        0.02318
 286        6D-2        0.02045
 287 14  C  1S          1.10521
 288        2S          0.88564
 289        2PX         0.23414
 290        2PY         0.22856
 291        2PZ         0.17366
 292        3S          0.75266
 293        3PX         0.52959
 294        3PY         0.52795
 295        3PZ         0.45771
 296        4S          0.38386
 297        4PX         0.16253
 298        4PY         0.19697
 299        4PZ         0.39629
 300        5S         -0.59474
 301        5PX        -0.46333
 302        5PY         0.30679
 303        5PZ        -0.05896
 304        6D 0        0.00446
 305        6D+1        0.00730
 306        6D-1        0.00795
 307        6D+2        0.02283
 308        6D-2        0.02194
 309 15  H  1S          0.27372
 310        2S          0.46431
 311        3S          0.03648
 312        4S         -0.03302
 313        5PX         0.00329
 314        5PY         0.01454
 315        5PZ         0.00478
 316 16  H  1S          0.27391
 317        2S          0.46376
 318        3S          0.01695
 319        4S         -0.02654
 320        5PX         0.01263
 321        5PY         0.00639
 322        5PZ         0.00407
 323 17  H  1S          0.27298
 324        2S          0.46342
 325        3S          0.02277
 326        4S         -0.02679
 327        5PX         0.01140
 328        5PY         0.00687
 329        5PZ         0.00455
 330 18  H  1S          0.27316
 331        2S          0.46529
 332        3S          0.03974
 333        4S         -0.01992
 334        5PX         0.00342
 335        5PY         0.01484
 336        5PZ         0.00465
 337 19  H  1S          0.27257
 338        2S          0.45429
 339        3S          0.01799
 340        4S          0.04281
 341        5PX         0.00339
 342        5PY         0.01636
 343        5PZ         0.00292
 344 20  H  1S          0.27369
 345        2S          0.46477
 346        3S          0.03066
 347        4S         -0.02010
 348        5PX         0.00349
 349        5PY         0.01538
 350        5PZ         0.00417
 351 21  H  1S          0.27327
 352        2S          0.46261
 353        3S          0.01694
 354        4S         -0.03013
 355        5PX         0.01259
 356        5PY         0.00613
 357        5PZ         0.00442
 358 22  H  1S          0.27296
 359        2S          0.46067
 360        3S          0.00789
 361        4S         -0.02992
 362        5PX         0.01249
 363        5PY         0.00655
 364        5PZ         0.00352
 365 23  H  1S          0.27297
 366        2S          0.46327
 367        3S          0.02950
 368        4S         -0.03047
 369        5PX         0.00342
 370        5PY         0.01515
 371        5PZ         0.00451
 372 24  H  1S          0.26283
 373        2S          0.42802
 374        3S          0.01157
 375        4S          0.02743
 376        5PX         0.00345
 377        5PY         0.00769
 378        5PZ         0.00920
 379 25  H  1S          0.26282
 380        2S          0.42803
 381        3S          0.01158
 382        4S          0.02743
 383        5PX         0.00345
 384        5PY         0.00769
 385        5PZ         0.00920
          Condensed to atoms (all electrons):
               1          2          3          4          5          6
     1  C    9.151416  -0.201077  -0.264777   2.289555  -0.117017  -0.109088
     2  C   -0.201077   7.274125   0.065848  -1.208166   0.047297  -0.012840
     3  C   -0.264777   0.065848   6.627260   0.903556  -0.158816   0.016274
     4  C    2.289555  -1.208166   0.903556  10.077977  -0.406318  -0.104355
     5  C   -0.117017   0.047297  -0.158816  -0.406318  12.286108   0.718428
     6  C   -0.109088  -0.012840   0.016274  -0.104355   0.718428   6.659076
     7  C    0.006350  -0.003342  -0.012724  -0.043097  -1.075397   0.478196
     8  C    0.400566  -0.034259  -0.078692  -0.013873   1.718897  -0.639923
     9  C   -1.102732  -0.768337   0.315293  -0.483562   0.300748   0.285622
    10  C   -1.413006   0.426121  -0.517699  -2.237297  -2.831963  -0.212078
    11  C    0.365872  -1.138927   1.283509  -0.127490  -1.643368  -0.288700
    12  C   -2.863666   2.058646  -1.640668  -1.562749  -0.689563  -0.032720
    13  C    0.330296  -0.399634  -0.012994  -1.274973  -0.671951   0.731386
    14  C   -0.971296   0.027742  -0.390794  -0.127133  -1.865251  -1.376924
    15  H    0.371985  -0.113393   0.006365   0.028725   0.003289   0.000970
    16  H   -0.016538   0.373762  -0.013106   0.008628  -0.001161  -0.000293
    17  H   -0.040070   0.001286   0.362779  -0.063928   0.000318   0.000390
    18  H    0.054312   0.002723  -0.083584   0.442885   0.005999  -0.005348
    19  H   -0.046951  -0.009806   0.054427  -0.046634  -0.100098   0.048514
    20  H    0.006781   0.002288  -0.005253   0.004959   0.484685  -0.083400
    21  H   -0.001391  -0.000358   0.000406   0.000101  -0.068509   0.383705
    22  H    0.001320   0.000409  -0.000348  -0.001637   0.018421  -0.023977
    23  H    0.004130  -0.002973   0.001220   0.006343   0.025915  -0.004296
    24  H    0.025174   0.011691  -0.001794  -0.012433  -0.011040  -0.001399
    25  H    0.025154   0.011686  -0.001799  -0.012428  -0.011043  -0.001400
               7          8          9         10         11         12
     1  C    0.006350   0.400566  -1.102732  -1.413006   0.365872  -2.863666
     2  C   -0.003342  -0.034259  -0.768337   0.426121  -1.138927   2.058646
     3  C   -0.012724  -0.078692   0.315293  -0.517699   1.283509  -1.640668
     4  C   -0.043097  -0.013873  -0.483562  -2.237297  -0.127490  -1.562749
     5  C   -1.075397   1.718897   0.300748  -2.831963  -1.643368  -0.689563
     6  C    0.478196  -0.639923   0.285622  -0.212078  -0.288700  -0.032720
     7  C    7.270128   0.523451  -0.969553   0.134046  -0.190868  -0.320538
     8  C    0.523451   8.219710  -1.027422  -1.151316   0.251902  -1.239073
     9  C   -0.969553  -1.027422   9.669749   0.199682   1.350431  -1.434089
    10  C    0.134046  -1.151316   0.199682   9.004038  -0.654504   2.515624
    11  C   -0.190868   0.251902   1.350431  -0.654504  13.825129  -3.057975
    12  C   -0.320538  -1.239073  -1.434089   2.515624  -3.057975  15.589624
    13  C   -0.635796   0.409341   1.393749  -0.136642   1.022169  -4.847516
    14  C    0.956190  -1.829477  -2.282848   2.354800  -4.430561   3.052896
    15  H   -0.001864   0.007245   0.093627  -0.012000  -0.028657  -0.047261
    16  H    0.000278   0.000244   0.002482  -0.007184   0.020763  -0.025999
    17  H   -0.000398  -0.001240  -0.006543   0.020188  -0.031018   0.104408
    18  H    0.002036   0.006372  -0.026758   0.019954  -0.001303  -0.071288
    19  H   -0.007050  -0.040514   0.070731   0.418085   0.087524  -0.018391
    20  H    0.003074   0.046600  -0.019117   0.000837  -0.012632  -0.032828
    21  H   -0.026648  -0.016354  -0.003804   0.018095  -0.006258   0.005381
    22  H    0.381522  -0.019370   0.001959  -0.010104   0.004026  -0.011337
    23  H   -0.106900   0.367767   0.088258  -0.007063  -0.006160   0.008495
    24  H    0.016455   0.039860   0.355241   0.005186  -0.005937  -0.056851
    25  H    0.016449   0.039832   0.355270   0.005190  -0.005946  -0.056829
              13         14         15         16         17         18
     1  C    0.330296  -0.971296   0.371985  -0.016538  -0.040070   0.054312
     2  C   -0.399634   0.027742  -0.113393   0.373762   0.001286   0.002723
     3  C   -0.012994  -0.390794   0.006365  -0.013106   0.362779  -0.083584
     4  C   -1.274973  -0.127133   0.028725   0.008628  -0.063928   0.442885
     5  C   -0.671951  -1.865251   0.003289  -0.001161   0.000318   0.005999
     6  C    0.731386  -1.376924   0.000970  -0.000293   0.000390  -0.005348
     7  C   -0.635796   0.956190  -0.001864   0.000278  -0.000398   0.002036
     8  C    0.409341  -1.829477   0.007245   0.000244  -0.001240   0.006372
     9  C    1.393749  -2.282848   0.093627   0.002482  -0.006543  -0.026758
    10  C   -0.136642   2.354800  -0.012000  -0.007184   0.020188   0.019954
    11  C    1.022169  -4.430561  -0.028657   0.020763  -0.031018  -0.001303
    12  C   -4.847516   3.052896  -0.047261  -0.025999   0.104408  -0.071288
    13  C   14.822470  -4.190731   0.013589   0.001344  -0.006028  -0.012307
    14  C   -4.190731  16.600644   0.001557  -0.006148   0.004433   0.000625
    15  H    0.013589   0.001557   0.448866  -0.009245   0.001265  -0.000088
    16  H    0.001344  -0.006148  -0.009245   0.426533  -0.005719   0.001840
    17  H   -0.006028   0.004433   0.001265  -0.005719   0.424158  -0.009770
    18  H   -0.012307   0.000625  -0.000088   0.001840  -0.009770   0.460642
    19  H    0.077755  -0.112632   0.000231  -0.000509   0.001074  -0.007237
    20  H   -0.011506  -0.046544  -0.000104   0.000011  -0.000115   0.001256
    21  H   -0.017261   0.074269   0.000009  -0.000006   0.000010  -0.000174
    22  H    0.026529  -0.031604  -0.000127   0.000007  -0.000007   0.000022
    23  H   -0.035043  -0.004063   0.000532  -0.000123   0.000019  -0.000127
    24  H    0.030562  -0.059093  -0.000706   0.000647  -0.000149   0.000249
    25  H    0.030562  -0.059056  -0.000705   0.000648  -0.000149   0.000249
              19         20         21         22         23         24
     1  C   -0.046951   0.006781  -0.001391   0.001320   0.004130   0.025174
     2  C   -0.009806   0.002288  -0.000358   0.000409  -0.002973   0.011691
     3  C    0.054427  -0.005253   0.000406  -0.000348   0.001220  -0.001794
     4  C   -0.046634   0.004959   0.000101  -0.001637   0.006343  -0.012433
     5  C   -0.100098   0.484685  -0.068509   0.018421   0.025915  -0.011040
     6  C    0.048514  -0.083400   0.383705  -0.023977  -0.004296  -0.001399
     7  C   -0.007050   0.003074  -0.026648   0.381522  -0.106900   0.016455
     8  C   -0.040514   0.046600  -0.016354  -0.019370   0.367767   0.039860
     9  C    0.070731  -0.019117  -0.003804   0.001959   0.088258   0.355241
    10  C    0.418085   0.000837   0.018095  -0.010104  -0.007063   0.005186
    11  C    0.087524  -0.012632  -0.006258   0.004026  -0.006160  -0.005937
    12  C   -0.018391  -0.032828   0.005381  -0.011337   0.008495  -0.056851
    13  C    0.077755  -0.011506  -0.017261   0.026529  -0.035043   0.030562
    14  C   -0.112632  -0.046544   0.074269  -0.031604  -0.004063  -0.059093
    15  H    0.000231  -0.000104   0.000009  -0.000127   0.000532  -0.000706
    16  H   -0.000509   0.000011  -0.000006   0.000007  -0.000123   0.000647
    17  H    0.001074  -0.000115   0.000010  -0.000007   0.000019  -0.000149
    18  H   -0.007237   0.001256  -0.000174   0.000022  -0.000127   0.000249
    19  H    0.444964  -0.005943   0.001811  -0.000566   0.000441   0.000558
    20  H   -0.005943   0.446750  -0.010318   0.002032   0.000294   0.000126
    21  H    0.001811  -0.010318   0.418523  -0.006756   0.001603  -0.000129
    22  H   -0.000566   0.002032  -0.006756   0.410940  -0.008403   0.000611
    23  H    0.000441   0.000294   0.001603  -0.008403   0.430540  -0.001028
    24  H    0.000558   0.000126  -0.000129   0.000611  -0.001028   0.491878
    25  H    0.000558   0.000126  -0.000129   0.000611  -0.001026  -0.077490
              25
     1  C    0.025154
     2  C    0.011686
     3  C   -0.001799
     4  C   -0.012428
     5  C   -0.011043
     6  C   -0.001400
     7  C    0.016449
     8  C    0.039832
     9  C    0.355270
    10  C    0.005190
    11  C   -0.005946
    12  C   -0.056829
    13  C    0.030562
    14  C   -0.059056
    15  H   -0.000705
    16  H    0.000648
    17  H   -0.000149
    18  H    0.000249
    19  H    0.000558
    20  H    0.000126
    21  H   -0.000129
    22  H    0.000611
    23  H   -0.001026
    24  H   -0.077490
    25  H    0.491863
 Mulliken charges:
               1
     1  C    0.114699
     2  C   -0.410512
     3  C   -0.453887
     4  C   -0.036657
     5  C    0.041393
     6  C   -0.425818
     7  C   -0.394000
     8  C    0.059727
     9  C   -0.358074
    10  C    0.069013
    11  C   -0.581021
    12  C    0.674267
    13  C   -0.637368
    14  C    0.710999
    15  H    0.235895
    16  H    0.248845
    17  H    0.244807
    18  H    0.218819
    19  H    0.189660
    20  H    0.227941
    21  H    0.254184
    22  H    0.265829
    23  H    0.241650
    24  H    0.249808
    25  H    0.249801
 Sum of Mulliken charges =   1.00000
 Mulliken charges with hydrogens summed into heavy atoms:
               1
     1  C    0.350594
     2  C   -0.161667
     3  C   -0.209080
     4  C    0.182162
     5  C    0.269333
     6  C   -0.171634
     7  C   -0.128171
     8  C    0.301378
     9  C    0.141536
    10  C    0.258672
    11  C   -0.581021
    12  C    0.674267
    13  C   -0.637368
    14  C    0.710999
 Electronic spatial extent (au):  <R**2>=           2869.4218
 Charge=              1.0000 electrons
 Dipole moment (field-independent basis, Debye):
    X=             -1.7852    Y=              0.1247    Z=              0.0000  Tot=              1.7896
 Quadrupole moment (field-independent basis, Debye-Ang):
   XX=            -30.5348   YY=            -56.2345   ZZ=            -84.2410
   XY=             -0.1398   XZ=             -0.0002   YZ=             -0.0000
 Traceless Quadrupole moment (field-independent basis, Debye-Ang):
   XX=             26.4686   YY=              0.7689   ZZ=            -27.2376
   XY=             -0.1398   XZ=             -0.0002   YZ=             -0.0000
 Octapole moment (field-independent basis, Debye-Ang**2):
  XXX=            -19.8213  YYY=              5.2581  ZZZ=              0.0000  XYY=             -4.1918
  XXY=             -5.6552  XXZ=             -0.0000  XZZ=             -2.6069  YZZ=             -3.1814
  YYZ=              0.0001  XYZ=              0.0005
 Hexadecapole moment (field-independent basis, Debye-Ang**3):
 XXXX=          -2124.1506 YYYY=           -612.3361 ZZZZ=            -99.6498 XXXY=              4.1144
 XXXZ=              0.0008 YYYX=             -1.6101 YYYZ=             -0.0002 ZZZX=              0.0002
 ZZZY=             -0.0001 XXYY=           -508.9891 XXZZ=           -594.1605 YYZZ=           -146.5434
 XXYZ=              0.0001 YYXZ=             -0.0009 ZZXY=             -0.8359
 N-N= 7.794036178315D+02 E-N=-2.795085060153D+03  KE= 5.374175823491D+02
 Orbital energies and kinetic energies (alpha):
                                 1                 2
  43         O                -0.538193          1.559644
  44         O                -0.523356          1.039706
  45         O                -0.480319          1.145484
  46         O                -0.461009          1.147636
  47         O                -0.430000          1.149298
  48         V                -0.261749          1.268884
  49         V                -0.147632          1.118834
  50         V                -0.140114          1.299889
  51         V                -0.127824          1.272535
  52         V                -0.112003          0.204571
 Total kinetic energy from orbitals= 5.374175823491D+02
 Unable to Open any file for archive entry.
 1\1\GINC-GADI-CPU-CLX-1686\SP\RM062X TD-FC\6-311++G(d,p)\C14H11(1+)\TS
 1578\14-Jul-2022\0\\#n M062X/6-311++G(d,p) TD SP pop=reg formcheck\\SP
 _20\\1,1\C,0,2.5356258227,1.3732103406,0.\C,0,3.7495578662,0.698448453
 ,0.\C,0,3.7138377103,-0.6732569019,0.\C,0,2.4247983874,-1.3857660361,0
 .\C,0,-2.5130216126,-1.4198243045,0.\C,0,-3.6715726303,-0.7415786089,0
 .\C,0,-3.6707724744,0.6668522281,0.\C,0,-2.4623800287,1.3723896594,0.\
 C,0,0.0170291342,1.468116192,0.\C,0,-0.0642183012,-1.4247351703,0.\C,0
 ,1.2432822897,0.6616837136,0.\C,0,1.224351547,-0.7191514239,0.\C,0,-1.
 2861628806,0.7123607755,0.\C,0,-1.2565632827,-0.7279737464,0.\H,0,2.50
 65095363,2.4591558515,0.\H,0,4.6850965039,1.237702261,0.\H,0,4.6241685
 761,-1.2626917645,0.\H,0,2.4518419491,-2.4718422281,0.\H,0,-0.05478046
 78,-2.5079803406,0.\H,0,-2.4953380509,-2.503438453,0.\H,0,-4.615961764
 5,-1.2708985761,0.\H,0,-4.609799007,1.2085680796,0.\H,0,-2.4835304637,
 2.4573093188,0.\H,0,0.0945835043,2.1564748297,-0.8643855109\H,0,0.0947
 886746,2.1564748297,0.8643855109\\Version=ES64L-G16RevC.01\State=1-A\H
 F=-539.7411744\RMSD=3.894e-09\PG=C01 [X(C14H11)]\\@
 The archive entry for this job was punched.


  THE LARGE PRINT GIVETH,
  AND THE SMALL PRINT TAKETH AWAY.

                     -- TOM WAITS
 FChkPn:  Coordinates translated and rotated.
 FChkPn:  Coordinates match /B/ after translation and rotation.
 Job cpu time:       0 days  1 hours 15 minutes  0.4 seconds.
 Elapsed time:       0 days  0 hours 10 minutes 26.6 seconds.
 File lengths (MBytes):  RWF=    532 Int=      0 D2E=      0 Chk=     24 Scr=      1
 Normal termination of Gaussian 16 at Thu Jul 14 15:57:41 2022.
