 Entering Gaussian System, Link 0=g16
 Initial command:
 /apps/gaussian/g16c01/g16/l1.exe "/jobfs/51123272.gadi-pbs/Gau-2112884.inp" -scrdir="/jobfs/51123272.gadi-pbs/"
 Entering Link 1 = /apps/gaussian/g16c01/g16/l1.exe PID=   2112885.
  
 Copyright (c) 1988-2019, Gaussian, Inc.  All Rights Reserved.
  
 This is part of the Gaussian(R) 16 program.  It is based on
 the Gaussian(R) 09 system (copyright 2009, Gaussian, Inc.),
 the Gaussian(R) 03 system (copyright 2003, Gaussian, Inc.),
 the Gaussian(R) 98 system (copyright 1998, Gaussian, Inc.),
 the Gaussian(R) 94 system (copyright 1995, Gaussian, Inc.),
 the Gaussian 92(TM) system (copyright 1992, Gaussian, Inc.),
 the Gaussian 90(TM) system (copyright 1990, Gaussian, Inc.),
 the Gaussian 88(TM) system (copyright 1988, Gaussian, Inc.),
 the Gaussian 86(TM) system (copyright 1986, Carnegie Mellon
 University), and the Gaussian 82(TM) system (copyright 1983,
 Carnegie Mellon University). Gaussian is a federally registered
 trademark of Gaussian, Inc.
  
 This software contains proprietary and confidential information,
 including trade secrets, belonging to Gaussian, Inc.
  
 This software is provided under written license and may be
 used, copied, transmitted, or stored only in accord with that
 written license.
  
 The following legend is applicable only to US Government
 contracts under FAR:
  
                    RESTRICTED RIGHTS LEGEND
  
 Use, reproduction and disclosure by the US Government is
 subject to restrictions as set forth in subparagraphs (a)
 and (c) of the Commercial Computer Software - Restricted
 Rights clause in FAR 52.227-19.
  
 Gaussian, Inc.
 340 Quinnipiac St., Bldg. 40, Wallingford CT 06492
  
  
 ---------------------------------------------------------------
 Warning -- This program may not be used in any manner that
 competes with the business of Gaussian, Inc. or will provide
 assistance to any competitor of Gaussian, Inc.  The licensee
 of this program is prohibited from giving any competitor of
 Gaussian, Inc. access to this program.  By using this program,
 the user acknowledges that Gaussian, Inc. is engaged in the
 business of creating and licensing software in the field of
 computational chemistry and represents and warrants to the
 licensee that it is not a competitor of Gaussian, Inc. and that
 it will not use this program in any manner prohibited above.
 ---------------------------------------------------------------
  

 Cite this work as:
 Gaussian 16, Revision C.01,
 M. J. Frisch, G. W. Trucks, H. B. Schlegel, G. E. Scuseria, 
 M. A. Robb, J. R. Cheeseman, G. Scalmani, V. Barone, 
 G. A. Petersson, H. Nakatsuji, X. Li, M. Caricato, A. V. Marenich, 
 J. Bloino, B. G. Janesko, R. Gomperts, B. Mennucci, H. P. Hratchian, 
 J. V. Ortiz, A. F. Izmaylov, J. L. Sonnenberg, D. Williams-Young, 
 F. Ding, F. Lipparini, F. Egidi, J. Goings, B. Peng, A. Petrone, 
 T. Henderson, D. Ranasinghe, V. G. Zakrzewski, J. Gao, N. Rega, 
 G. Zheng, W. Liang, M. Hada, M. Ehara, K. Toyota, R. Fukuda, 
 J. Hasegawa, M. Ishida, T. Nakajima, Y. Honda, O. Kitao, H. Nakai, 
 T. Vreven, K. Throssell, J. A. Montgomery, Jr., J. E. Peralta, 
 F. Ogliaro, M. J. Bearpark, J. J. Heyd, E. N. Brothers, K. N. Kudin, 
 V. N. Staroverov, T. A. Keith, R. Kobayashi, J. Normand, 
 K. Raghavachari, A. P. Rendell, J. C. Burant, S. S. Iyengar, 
 J. Tomasi, M. Cossi, J. M. Millam, M. Klene, C. Adamo, R. Cammi, 
 J. W. Ochterski, R. L. Martin, K. Morokuma, O. Farkas, 
 J. B. Foresman, and D. J. Fox, Gaussian, Inc., Wallingford CT, 2019.
 
 ******************************************
 Gaussian 16:  ES64L-G16RevC.01  3-Jul-2019
                14-Jul-2022 
 ******************************************
 %NProcShared=8
 Will use up to    8 processors via shared memory.
 %mem = 32GB
 %Chk=check_sp_3
 ----------------------------------------------
 #n M062X/6-311++G(d,p) TD SP pop=reg formcheck
 ----------------------------------------------
 1/38=1,172=1/1;
 2/12=2,17=6,18=5,40=1/2;
 3/5=4,6=6,7=1111,11=9,25=1,30=1,74=-55/1,2,3,8;
 4//1;
 5/5=2,38=5/2;
 8/6=1,10=2/1;
 9/42=1,70=2/14;
 6//1;
 99/5=1,9=1/99;
 ----
 SP_3
 ----
 Symbolic Z-matrix:
 Charge =  1 Multiplicity = 1
 C                     2.50406   1.37286   0. 
 C                     3.7159    0.68467   0. 
 C                     3.6957   -0.70203   0. 
 C                     2.46229  -1.40007   0. 
 C                    -2.47553  -1.40518   0. 
 C                    -3.68936  -0.71228   0. 
 C                    -3.70408   0.67993   0. 
 C                    -2.49307   1.37274   0. 
 C                     0.00255   1.4669    0. 
 C                    -0.00963  -1.42456   0. 
 C                     1.26142   0.68348   0. 
 C                     1.23813  -0.72281   0. 
 C                    -1.26785   0.69108   0. 
 C                    -1.24296  -0.72414   0. 
 H                     2.49674   2.45828   0. 
 H                     4.65283   1.22515   0. 
 H                     4.62051  -1.26601   0. 
 H                     2.47033  -2.48492   0. 
 H                    -0.00822  -2.50763   0. 
 H                    -2.47685  -2.48966   0. 
 H                    -4.61928  -1.26724   0. 
 H                    -4.64154   1.22078   0. 
 H                    -2.4933    2.45801   0. 
 H                     0.01419   2.15665  -0.86386 
 H                     0.01422   2.15665   0.86386 
 
                          Input orientation:                          
 ---------------------------------------------------------------------
 Center     Atomic      Atomic             Coordinates (Angstroms)
 Number     Number       Type             X           Y           Z
 ---------------------------------------------------------------------
      1          6           0        2.504060    1.372862    0.000000
      2          6           0        3.715900    0.684671    0.000000
      3          6           0        3.695701   -0.702032    0.000000
      4          6           0        2.462293   -1.400066    0.000000
      5          6           0       -2.475527   -1.405175    0.000000
      6          6           0       -3.689361   -0.712280    0.000000
      7          6           0       -3.704082    0.679932    0.000000
      8          6           0       -2.493074    1.372738    0.000000
      9          6           0        0.002554    1.466895    0.000000
     10          6           0       -0.009633   -1.424561    0.000000
     11          6           0        1.261419    0.683483    0.000000
     12          6           0        1.238129   -0.722814    0.000000
     13          6           0       -1.267851    0.691085    0.000000
     14          6           0       -1.242960   -0.724137    0.000000
     15          1           0        2.496743    2.458284    0.000000
     16          1           0        4.652833    1.225146    0.000000
     17          1           0        4.620506   -1.266005    0.000000
     18          1           0        2.470328   -2.484922    0.000000
     19          1           0       -0.008217   -2.507632    0.000000
     20          1           0       -2.476852   -2.489661    0.000000
     21          1           0       -4.619275   -1.267236    0.000000
     22          1           0       -4.641539    1.220776    0.000000
     23          1           0       -2.493297    2.458007    0.000000
     24          1           0        0.014188    2.156649   -0.863862
     25          1           0        0.014218    2.156649    0.863862
 ---------------------------------------------------------------------
                    Distance matrix (angstroms):
                    1          2          3          4          5
     1  C    0.000000
     2  C    1.393614   0.000000
     3  C    2.392737   1.386850   0.000000
     4  C    2.773242   2.432624   1.417232   0.000000
     5  C    5.702085   6.534617   6.211156   4.937823   0.000000
     6  C    6.535004   7.535871   7.385069   6.189984   1.397675
     7  C    6.246694   7.419983   7.527722   6.507732   2.420128
     8  C    4.997134   6.246982   6.527296   5.678389   2.777969
     9  C    2.503273   3.794840   4.282940   3.777537   3.793373
    10  C    3.760881   4.281174   3.775122   2.472047   2.465970
    11  C    1.421056   2.454481   2.800960   2.404844   4.281035
    12  C    2.448354   2.849625   2.457660   1.399018   3.775825
    13  C    3.833033   4.983755   5.155349   4.276318   2.419253
    14  C    4.293899   5.155098   4.938711   3.766402   1.408202
    15  H    1.085447   2.152218   3.380103   3.858504   6.296808
    16  H    2.153844   1.081646   2.151771   3.419094   7.598165
    17  H    3.382745   2.150221   1.083204   2.162373   7.097398
    18  H    3.857931   3.405550   2.163385   1.084885   5.062344
    19  H    4.622744   4.905083   4.120582   2.707420   2.702411
    20  H    6.303061   6.958920   6.426198   5.057902   1.084487
    21  H    7.596843   8.560671   8.334163   7.082814   2.148182
    22  H    7.147218   8.374616   8.556094   7.571872   3.404002
    23  H    5.113816   6.457464   6.949067   6.280334   3.863223
    24  H    2.749554   4.076230   4.740449   4.403374   4.430748
    25  H    2.749526   4.076202   4.740425   4.403357   4.430765
                    6          7          8          9         10
     6  C    0.000000
     7  C    1.392290   0.000000
     8  C    2.403832   1.395178   0.000000
     9  C    4.287079   3.789256   2.497403   0.000000
    10  C    3.748032   4.251805   3.740636   2.891482   0.000000
    11  C    5.143771   4.965502   3.817236   1.482726   2.461589
    12  C    4.927501   5.137425   4.279394   2.514253   1.431558
    13  C    2.798775   2.436256   1.402077   1.488561   2.461518
    14  C    2.446429   2.833466   2.441243   2.520304   1.418341
    15  H    6.951285   6.450796   5.106533   2.683995   4.621515
    16  H    8.564218   8.374682   7.147431   4.656559   5.362792
    17  H    8.328295   8.549002   7.587225   5.366025   4.632853
    18  H    6.409682   6.938273   6.286247   4.659052   2.697141
    19  H    4.095620   4.880571   4.607796   3.974542   1.083072
    20  H    2.151572   3.398884   3.862434   4.669240   2.687306
    21  H    1.082921   2.151521   3.389720   5.369989   4.612326
    22  H    2.154843   1.082284   2.153833   4.650610   5.334075
    23  H    3.388405   2.151175   1.085268   2.685437   4.609004
    24  H    4.763747   4.092979   2.765345   1.105511   3.684005
    25  H    4.763771   4.093007   2.765373   1.105511   3.684005
                   11         12         13         14         15
    11  C    0.000000
    12  C    1.406490   0.000000
    13  C    2.529282   2.877333   0.000000
    14  C    2.872858   2.481090   1.415441   0.000000
    15  H    2.162393   3.421037   4.158746   4.910518   0.000000
    16  H    3.434398   3.931254   5.944723   6.209677   2.483818
    17  H    3.883809   3.425717   6.205075   5.888452   4.287272
    18  H    3.391202   2.150195   4.905201   4.109607   4.943276
    19  H    3.434412   2.176914   3.437799   2.169204   5.561937
    20  H    4.903419   4.113737   3.402768   2.153965   7.015612
    21  H    6.195795   5.882651   3.881631   3.419716   8.032261
    22  H    5.927360   6.192579   3.415017   3.915740   7.244757
    23  H    4.152930   4.903178   2.150286   3.418974   4.990040
    24  H    2.114725   3.245858   2.130202   3.259695   2.645813
    25  H    2.114707   3.245847   2.130221   3.259706   2.645784
                   16         17         18         19         20
    16  H    0.000000
    17  H    2.491361   0.000000
    18  H    4.304409   2.471644   0.000000
    19  H    5.971517   4.792360   2.478649   0.000000
    20  H    8.039416   7.202071   4.947182   2.468701   0.000000
    21  H    9.601248   9.239782   7.193416   4.774980   2.466637
    22  H    9.294373   9.590076   8.019404   5.947158   4.295720
    23  H    7.251698   8.029599   7.005006   5.552764   4.947695
    24  H    4.809469   5.803361   5.321942   4.743656   5.342260
    25  H    4.809439   5.803336   5.321928   4.743656   5.342274
                   21         22         23         24         25
    21  H    0.000000
    22  H    2.488112   0.000000
    23  H    4.289198   2.479049   0.000000
    24  H    5.825653   4.826790   2.669185   0.000000
    25  H    5.825677   4.826820   2.669214   1.727725   0.000000
 Stoichiometry    C14H11(1+)
 Framework group  C1[X(C14H11)]
 Deg. of freedom    69
 Full point group                 C1      NOp   1
 Largest Abelian subgroup         C1      NOp   1
 Largest concise Abelian subgroup C1      NOp   1
                         Standard orientation:                         
 ---------------------------------------------------------------------
 Center     Atomic      Atomic             Coordinates (Angstroms)
 Number     Number       Type             X           Y           Z
 ---------------------------------------------------------------------
      1          6           0        2.506271   -1.359834    0.000000
      2          6           0        3.716912   -0.669536    0.000000
      3          6           0        3.694300    0.717130    0.000000
      4          6           0        2.459680    1.413018    0.000000
      5          6           0       -2.478141    1.409536    0.000000
      6          6           0       -3.690768    0.714531    0.000000
      7          6           0       -3.703067   -0.677705    0.000000
      8          6           0       -2.490855   -1.368404    0.000000
      9          6           0        0.004933   -1.458219    0.000000
     10          6           0       -0.012284    1.433212    0.000000
     11          6           0        1.262433   -0.672618    0.000000
     12          6           0        1.236696    0.733636    0.000000
     13          6           0       -1.266821   -0.684619    0.000000
     14          6           0       -1.244392    0.730643    0.000000
     15          1           0        2.500843   -2.445267    0.000000
     16          1           0        4.654784   -1.208380    0.000000
     17          1           0        4.618123    1.282711    0.000000
     18          1           0        2.465828    2.497885    0.000000
     19          1           0       -0.012753    2.516283    0.000000
     20          1           0       -2.481353    2.494019    0.000000
     21          1           0       -4.621646    1.267868    0.000000
     22          1           0       -4.639582   -1.220179    0.000000
     23          1           0       -2.489190   -2.453671    0.000000
     24          1           0        0.017766   -2.147951    0.863862
     25          1           0        0.017797   -2.147951   -0.863862
 ---------------------------------------------------------------------
 Rotational constants (GHZ):           2.1251679           0.4425563           0.3670806
 Standard basis: 6-311++G(d,p) (5D, 7F)
 There are   399 symmetry adapted cartesian basis functions of A   symmetry.
 There are   385 symmetry adapted basis functions of A   symmetry.
   385 basis functions,   603 primitive gaussians,   399 cartesian basis functions
    47 alpha electrons       47 beta electrons
       nuclear repulsion energy       779.3183964892 Hartrees.
 NAtoms=   25 NActive=   25 NUniq=   25 SFac= 1.00D+00 NAtFMM=   60 NAOKFM=F Big=F
 Integral buffers will be    131072 words long.
 Regular integral format.
 Two-electron integral symmetry is turned on.
 One-electron integrals computed using PRISM.
 NBasis=   385 RedAO= T EigKep=  1.15D-06  NBF=   385
 NBsUse=   379 1.00D-06 EigRej=  8.66D-07 NBFU=   379
 ExpMin= 3.60D-02 ExpMax= 4.56D+03 ExpMxC= 6.82D+02 IAcc=3 IRadAn=         5 AccDes= 0.00D+00
 Harris functional with IExCor= 1009 and IRadAn=       5 diagonalized for initial guess.
 HarFok:  IExCor= 1009 AccDes= 0.00D+00 IRadAn=         5 IDoV= 1 UseB2=F ITyADJ=14
 ICtDFT=  3500011 ScaDFX=  1.000000  1.000000  1.000000  1.000000
 FoFCou: FMM=F IPFlag=           0 FMFlag=      100000 FMFlg1=           0
         NFxFlg=           0 DoJE=T BraDBF=F KetDBF=T FulRan=T
         wScrn=  0.000000 ICntrl=       500 IOpCl=  0 I1Cent=   200000004 NGrid=           0
         NMat0=    1 NMatS0=      1 NMatT0=    0 NMatD0=    1 NMtDS0=    0 NMtDT0=    0
 Petite list used in FoFCou.
 Requested convergence on RMS density matrix=1.00D-08 within 128 cycles.
 Requested convergence on MAX density matrix=1.00D-06.
 Requested convergence on             energy=1.00D-06.
 No special actions if energy rises.
 SCF Done:  E(RM062X) =  -539.758614851     A.U. after   15 cycles
            NFock= 15  Conv=0.57D-08     -V/T= 2.0045
 DoSCS=F DFT=T ScalE2(SS,OS)=  1.000000  1.000000
 ExpMin= 3.60D-02 ExpMax= 4.56D+03 ExpMxC= 6.82D+02 IAcc=3 IRadAn=         5 AccDes= 0.00D+00
 HarFok:  IExCor=  205 AccDes= 0.00D+00 IRadAn=         5 IDoV=-2 UseB2=F ITyADJ=14
 ICtDFT= 12500011 ScaDFX=  1.000000  1.000000  1.000000  1.000000
 Range of M.O.s used for correlation:    15   379
 NBasis=   385 NAE=    47 NBE=    47 NFC=    14 NFV=     0
 NROrb=    365 NOA=    33 NOB=    33 NVA=   332 NVB=   332

 **** Warning!!: The largest alpha MO coefficient is  0.13773076D+03

 Orbital symmetries:
       Occupied  (A) (A) (A) (A) (A) (A) (A) (A) (A) (A) (A) (A)
                 (A) (A) (A) (A) (A) (A) (A) (A) (A) (A) (A) (A)
                 (A) (A) (A) (A) (A) (A) (A) (A) (A) (A) (A) (A)
                 (A) (A) (A) (A) (A) (A) (A) (A) (A) (A) (A)
       Virtual   (A) (A) (A) (A) (A) (A) (A) (A) (A) (A) (A) (A)
                 (A) (A) (A) (A) (A) (A) (A) (A) (A) (A) (A) (A)
                 (A) (A) (A) (A) (A) (A) (A) (A) (A) (A) (A) (A)
                 (A) (A) (A) (A) (A) (A) (A) (A) (A) (A) (A) (A)
                 (A) (A) (A) (A) (A) (A) (A) (A) (A) (A) (A) (A)
                 (A) (A) (A) (A) (A) (A) (A) (A) (A) (A) (A) (A)
                 (A) (A) (A) (A) (A) (A) (A) (A) (A) (A) (A) (A)
                 (A) (A) (A) (A) (A) (A) (A) (A) (A) (A) (A) (A)
                 (A) (A) (A) (A) (A) (A) (A) (A) (A) (A) (A) (A)
                 (A) (A) (A) (A) (A) (A) (A) (A) (A) (A) (A) (A)
                 (A) (A) (A) (A) (A) (A) (A) (A) (A) (A) (A) (A)
                 (A) (A) (A) (A) (A) (A) (A) (A) (A) (A) (A) (A)
                 (A) (A) (A) (A) (A) (A) (A) (A) (A) (A) (A) (A)
                 (A) (A) (A) (A) (A) (A) (A) (A) (A) (A) (A) (A)
                 (A) (A) (A) (A) (A) (A) (A) (A) (A) (A) (A) (A)
                 (A) (A) (A) (A) (A) (A) (A) (A) (A) (A) (A) (A)
                 (A) (A) (A) (A) (A) (A) (A) (A) (A) (A) (A) (A)
                 (A) (A) (A) (A) (A) (A) (A) (A) (A) (A) (A) (A)
                 (A) (A) (A) (A) (A) (A) (A) (A) (A) (A) (A) (A)
                 (A) (A) (A) (A) (A) (A) (A) (A) (A) (A) (A) (A)
                 (A) (A) (A) (A) (A) (A) (A) (A) (A) (A) (A) (A)
                 (A) (A) (A) (A) (A) (A) (A) (A) (A) (A) (A) (A)
                 (A) (A) (A) (A) (A) (A) (A) (A) (A) (A) (A) (A)
                 (A) (A) (A) (A) (A) (A) (A) (A) (A) (A) (A) (A)
                 (A) (A) (A) (A) (A) (A) (A) (A) (A) (A) (A) (A)
                 (A) (A) (A) (A) (A) (A) (A) (A) (A) (A) (A) (A)
                 (A) (A) (A) (A) (A) (A) (A) (A) (A) (A) (A) (A)
                 (A) (A) (A) (A) (A) (A) (A) (A)
    12 initial guesses have been made.
 Convergence on wavefunction:    0.001000000000000
 Iteration     1 Dimension    12 NMult     0 NNew     12
 CISAX will form    12 AO SS matrices at one time.
 New state      2 was old state      3
 New state      3 was old state      2
 Iteration     2 Dimension    18 NMult    12 NNew      6
 Iteration     3 Dimension    24 NMult    18 NNew      6
 Iteration     4 Dimension    30 NMult    24 NNew      6
 Iteration     5 Dimension    36 NMult    30 NNew      6
 Iteration     6 Dimension    40 NMult    36 NNew      4
 ***********************************************************************
 Excited states from <AA,BB:AA,BB> singles matrix:
 ***********************************************************************
 
 Ground to excited state transition densities written to RWF  633
 Ground to excited state transition electric dipole moments (Au):
       state          X           Y           Z        Dip. S.      Osc.
         1         0.0142     -0.6301     -0.0000      0.3972      0.0272
         2         0.1932      0.1231     -0.0000      0.0525      0.0042
         3         2.5583     -0.0066      0.0000      6.5447      0.5561
 Ground to excited state transition velocity dipole moments (Au):
       state          X           Y           Z        Dip. S.      Osc.
         1        -0.0001      0.0724      0.0000      0.0052      0.0340
         2        -0.0158     -0.0160     -0.0000      0.0005      0.0028
         3        -0.3286      0.0009     -0.0000      0.1080      0.5648
 Ground to excited state transition magnetic dipole moments (Au):
       state          X           Y           Z
         1         0.0000      0.0000      0.0788
         2        -0.0000     -0.0000      0.9587
         3        -0.0000      0.0000      1.0828
 Ground to excited state transition velocity quadrupole moments (Au):
       state          XX          YY          ZZ          XY          XZ          YZ
         1         0.2903      0.0348     -0.0096      0.0341      0.0000      0.0000
         2        -0.0619     -0.0089      0.0020      0.2943     -0.0000      0.0000
         3         0.0303     -0.0016     -0.0002      0.1144     -0.0000     -0.0000
 <0|del|b> * <b|rxdel|0> + <0|del|b> * <b|delr+rdel|0>
 Rotatory Strengths (R) in cgs (10**-40 erg-esu-cm/Gauss)
       state          XX          YY          ZZ    R(velocity)    E-M Angle
         1        -0.0004      0.0000      0.0008      0.0001       90.00
         2        -0.0007     -0.0004      0.0000     -0.0004       90.00
         3        -0.0025     -0.0002      0.0002     -0.0009       90.00
 1/2[<0|r|b>*<b|rxdel|0> + (<0|rxdel|b>*<b|r|0>)*]
 Rotatory Strengths (R) in cgs (10**-40 erg-esu-cm/Gauss)
       state          XX          YY          ZZ     R(length)
         1        -0.0000      0.0004      0.0000      0.0001
         2         0.0000      0.0000      0.0001      0.0000
         3         0.0020      0.0000     -0.0005      0.0005
  1/2[<0|del|b>*<b|r|0> + (<0|r|b>*<b|del|0>)*] (Au)
       state          X           Y           Z        Dip. S.   Osc.(frdel)
         1        -0.0000     -0.0456     -0.0000      0.0456      0.0304
         2        -0.0031     -0.0020      0.0000      0.0050      0.0034
         3        -0.8407     -0.0000     -0.0000      0.8407      0.5605

 Excitation energies and oscillator strengths:
 
 Excited State   1:      Singlet-A      2.7977 eV  443.17 nm  f=0.0272  <S**2>=0.000
      47 -> 48         0.70409
 This state for optimization and/or second-order correction.
 Total Energy, E(TD-HF/TD-DFT) =  -539.655802401    
 Copying the excited state density for this state as the 1-particle RhoCI density.
 
 Excited State   2:      Singlet-A      3.2539 eV  381.03 nm  f=0.0042  <S**2>=0.000
      45 -> 48         0.62849
      46 -> 48         0.31223
 
 Excited State   3:      Singlet-A      3.4684 eV  357.47 nm  f=0.5561  <S**2>=0.000
      45 -> 48        -0.31420
      46 -> 48         0.62418
 SavETr:  write IOETrn=   770 NScale= 10 NData=  16 NLR=1 NState=    3 LETran=      64.

 **********************************************************************

            Population analysis using the SCF Density.

 **********************************************************************

 Orbital symmetries:
       Occupied  (A) (A) (A) (A) (A) (A) (A) (A) (A) (A) (A) (A)
                 (A) (A) (A) (A) (A) (A) (A) (A) (A) (A) (A) (A)
                 (A) (A) (A) (A) (A) (A) (A) (A) (A) (A) (A) (A)
                 (A) (A) (A) (A) (A) (A) (A) (A) (A) (A) (A)
       Virtual   (A) (A) (A) (A) (A) (A) (A) (A) (A) (A) (A) (A)
                 (A) (A) (A) (A) (A) (A) (A) (A) (A) (A) (A) (A)
                 (A) (A) (A) (A) (A) (A) (A) (A) (A) (A) (A) (A)
                 (A) (A) (A) (A) (A) (A) (A) (A) (A) (A) (A) (A)
                 (A) (A) (A) (A) (A) (A) (A) (A) (A) (A) (A) (A)
                 (A) (A) (A) (A) (A) (A) (A) (A) (A) (A) (A) (A)
                 (A) (A) (A) (A) (A) (A) (A) (A) (A) (A) (A) (A)
                 (A) (A) (A) (A) (A) (A) (A) (A) (A) (A) (A) (A)
                 (A) (A) (A) (A) (A) (A) (A) (A) (A) (A) (A) (A)
                 (A) (A) (A) (A) (A) (A) (A) (A) (A) (A) (A) (A)
                 (A) (A) (A) (A) (A) (A) (A) (A) (A) (A) (A) (A)
                 (A) (A) (A) (A) (A) (A) (A) (A) (A) (A) (A) (A)
                 (A) (A) (A) (A) (A) (A) (A) (A) (A) (A) (A) (A)
                 (A) (A) (A) (A) (A) (A) (A) (A) (A) (A) (A) (A)
                 (A) (A) (A) (A) (A) (A) (A) (A) (A) (A) (A) (A)
                 (A) (A) (A) (A) (A) (A) (A) (A) (A) (A) (A) (A)
                 (A) (A) (A) (A) (A) (A) (A) (A) (A) (A) (A) (A)
                 (A) (A) (A) (A) (A) (A) (A) (A) (A) (A) (A) (A)
                 (A) (A) (A) (A) (A) (A) (A) (A) (A) (A) (A) (A)
                 (A) (A) (A) (A) (A) (A) (A) (A) (A) (A) (A) (A)
                 (A) (A) (A) (A) (A) (A) (A) (A) (A) (A) (A) (A)
                 (A) (A) (A) (A) (A) (A) (A) (A) (A) (A) (A) (A)
                 (A) (A) (A) (A) (A) (A) (A) (A) (A) (A) (A) (A)
                 (A) (A) (A) (A) (A) (A) (A) (A) (A) (A) (A) (A)
                 (A) (A) (A) (A) (A) (A) (A) (A) (A) (A) (A) (A)
                 (A) (A) (A) (A) (A) (A) (A) (A) (A) (A) (A) (A)
                 (A) (A) (A) (A) (A) (A) (A) (A) (A) (A) (A) (A)
                 (A) (A) (A) (A) (A) (A) (A) (A)
 The electronic state is 1-A.
 Alpha  occ. eigenvalues --  -10.77771 -10.73480 -10.73214 -10.72664 -10.72442
 Alpha  occ. eigenvalues --  -10.71593 -10.71372 -10.71351 -10.71071 -10.70844
 Alpha  occ. eigenvalues --  -10.70140 -10.70024 -10.69808 -10.69670  -1.16227
 Alpha  occ. eigenvalues --   -1.12261  -1.06766  -1.05575  -1.01178  -1.00067
 Alpha  occ. eigenvalues --   -0.95666  -0.90939  -0.86288  -0.85784  -0.83733
 Alpha  occ. eigenvalues --   -0.78329  -0.75863  -0.74286  -0.69489  -0.69191
 Alpha  occ. eigenvalues --   -0.68409  -0.68090  -0.68002  -0.64700  -0.64214
 Alpha  occ. eigenvalues --   -0.62935  -0.61772  -0.59961  -0.59493  -0.59062
 Alpha  occ. eigenvalues --   -0.56866  -0.55227  -0.54747  -0.52330  -0.46602
 Alpha  occ. eigenvalues --   -0.46000  -0.44405
 Alpha virt. eigenvalues --   -0.26106  -0.14709  -0.14145  -0.12842  -0.11168
 Alpha virt. eigenvalues --   -0.10084  -0.09231  -0.08014  -0.07983  -0.07480
 Alpha virt. eigenvalues --   -0.07197  -0.07160  -0.05657  -0.05592  -0.05357
 Alpha virt. eigenvalues --   -0.03817  -0.03627  -0.03300  -0.03159  -0.02169
 Alpha virt. eigenvalues --   -0.01358  -0.00928   0.00178   0.00584   0.00631
 Alpha virt. eigenvalues --    0.01058   0.01506   0.01921   0.02171   0.02291
 Alpha virt. eigenvalues --    0.02433   0.02649   0.02663   0.03297   0.03361
 Alpha virt. eigenvalues --    0.04231   0.04480   0.04684   0.04990   0.05333
 Alpha virt. eigenvalues --    0.06037   0.06247   0.06580   0.07023   0.07243
 Alpha virt. eigenvalues --    0.07866   0.08072   0.08330   0.08492   0.08894
 Alpha virt. eigenvalues --    0.09499   0.09519   0.09954   0.10732   0.10912
 Alpha virt. eigenvalues --    0.11098   0.12120   0.12195   0.12853   0.12940
 Alpha virt. eigenvalues --    0.13343   0.13512   0.13977   0.14262   0.16077
 Alpha virt. eigenvalues --    0.16233   0.16265   0.17314   0.17556   0.17720
 Alpha virt. eigenvalues --    0.18040   0.18958   0.19178   0.19543   0.19670
 Alpha virt. eigenvalues --    0.21443   0.21525   0.22584   0.22996   0.23472
 Alpha virt. eigenvalues --    0.23716   0.24554   0.25262   0.26821   0.27469
 Alpha virt. eigenvalues --    0.28707   0.29232   0.29747   0.31256   0.35483
 Alpha virt. eigenvalues --    0.36097   0.38116   0.39215   0.41106   0.41438
 Alpha virt. eigenvalues --    0.41826   0.42255   0.43016   0.43548   0.44323
 Alpha virt. eigenvalues --    0.44684   0.44825   0.45877   0.46043   0.47962
 Alpha virt. eigenvalues --    0.48556   0.48795   0.49067   0.50441   0.51012
 Alpha virt. eigenvalues --    0.51321   0.51591   0.52120   0.52678   0.53900
 Alpha virt. eigenvalues --    0.54076   0.54541   0.55663   0.55723   0.57480
 Alpha virt. eigenvalues --    0.58194   0.58705   0.61360   0.62081   0.62199
 Alpha virt. eigenvalues --    0.63057   0.63439   0.64730   0.65019   0.67070
 Alpha virt. eigenvalues --    0.70253   0.70540   0.70754   0.72294   0.72712
 Alpha virt. eigenvalues --    0.75688   0.75869   0.76199   0.76860   0.77094
 Alpha virt. eigenvalues --    0.77709   0.77809   0.78128   0.79910   0.80267
 Alpha virt. eigenvalues --    0.81128   0.81591   0.82040   0.82844   0.85050
 Alpha virt. eigenvalues --    0.87001   0.88000   0.88538   0.89023   0.90353
 Alpha virt. eigenvalues --    0.90913   0.91221   0.93115   0.94433   0.96345
 Alpha virt. eigenvalues --    0.96532   1.00301   1.01110   1.01555   1.02558
 Alpha virt. eigenvalues --    1.03036   1.03604   1.04568   1.05294   1.08561
 Alpha virt. eigenvalues --    1.19431   1.23129   1.23865   1.25121   1.27888
 Alpha virt. eigenvalues --    1.29654   1.31779   1.34155   1.35630   1.35825
 Alpha virt. eigenvalues --    1.39171   1.39884   1.40716   1.42917   1.43126
 Alpha virt. eigenvalues --    1.43292   1.44626   1.45230   1.46165   1.46484
 Alpha virt. eigenvalues --    1.47438   1.47649   1.51419   1.53382   1.55258
 Alpha virt. eigenvalues --    1.55529   1.56071   1.56337   1.57552   1.61061
 Alpha virt. eigenvalues --    1.63141   1.63390   1.63742   1.65941   1.67910
 Alpha virt. eigenvalues --    1.68141   1.68490   1.69517   1.74091   1.75590
 Alpha virt. eigenvalues --    1.76799   1.77868   1.79751   1.79783   1.80420
 Alpha virt. eigenvalues --    1.82783   1.82868   1.83383   1.83638   1.83857
 Alpha virt. eigenvalues --    1.84006   1.85613   1.85841   1.88071   1.91086
 Alpha virt. eigenvalues --    1.91799   1.93769   1.94990   1.97305   1.97776
 Alpha virt. eigenvalues --    1.99526   2.01956   2.03893   2.06887   2.11424
 Alpha virt. eigenvalues --    2.11582   2.13738   2.14726   2.18554   2.20670
 Alpha virt. eigenvalues --    2.22248   2.28122   2.29509   2.33972   2.34371
 Alpha virt. eigenvalues --    2.35634   2.38290   2.39254   2.41797   2.44341
 Alpha virt. eigenvalues --    2.45675   2.45709   2.48803   2.52355   2.53031
 Alpha virt. eigenvalues --    2.54083   2.56675   2.57693   2.58349   2.59498
 Alpha virt. eigenvalues --    2.59814   2.61287   2.61905   2.63478   2.63581
 Alpha virt. eigenvalues --    2.64723   2.64987   2.65250   2.65428   2.67491
 Alpha virt. eigenvalues --    2.67773   2.70493   2.70816   2.73174   2.74660
 Alpha virt. eigenvalues --    2.76137   2.77798   2.79559   2.81917   2.82880
 Alpha virt. eigenvalues --    2.83926   2.86059   2.91766   2.96774   2.99185
 Alpha virt. eigenvalues --    2.99737   3.04304   3.09692   3.10548   3.12284
 Alpha virt. eigenvalues --    3.20089   3.22680   3.25953   3.27570   3.30010
 Alpha virt. eigenvalues --    3.31998   3.32732   3.42724   3.45172   3.45692
 Alpha virt. eigenvalues --    3.47440   3.48900   3.55790   3.65893   3.66062
 Alpha virt. eigenvalues --    3.66831   3.93625   3.94077   3.94743   3.95791
 Alpha virt. eigenvalues --    4.03437   4.06350   4.07093   4.12035   4.35123
 Alpha virt. eigenvalues --    4.60509   4.69117   4.70951  23.45141  23.60065
 Alpha virt. eigenvalues --   23.81318  23.84239  23.86695  23.88272  23.89869
 Alpha virt. eigenvalues --   23.91765  23.96116  23.97552  23.98995  24.00031
 Alpha virt. eigenvalues --   24.09177  24.09419
     Molecular Orbital Coefficients:
                          43        44        45        46        47
                           O         O         O         O         O
     Eigenvalues --    -0.54747  -0.52330  -0.46602  -0.46000  -0.44405
   1 1   C  1S         -0.00272   0.00000   0.00000   0.00000  -0.00000
   2        2S         -0.00448   0.00000   0.00000   0.00000  -0.00000
   3        2PX        -0.09213   0.00000   0.00000   0.00000  -0.00000
   4        2PY         0.00728   0.00000  -0.00000  -0.00000   0.00000
   5        2PZ        -0.00000  -0.07480   0.08518  -0.03551   0.10796
   6        3S          0.01348  -0.00000   0.00000  -0.00000   0.00000
   7        3PX        -0.13122   0.00000   0.00000   0.00000  -0.00000
   8        3PY         0.01018   0.00000  -0.00000  -0.00000   0.00000
   9        3PZ        -0.00000  -0.12025   0.13865  -0.05770   0.17709
  10        4S         -0.01850  -0.00000  -0.00000  -0.00000  -0.00000
  11        4PX        -0.07909  -0.00000   0.00000   0.00000  -0.00000
  12        4PY        -0.00048  -0.00000  -0.00000  -0.00000  -0.00000
  13        4PZ        -0.00000  -0.09923   0.12169  -0.05310   0.15903
  14        5S          0.10036   0.00000  -0.00001  -0.00001  -0.00000
  15        5PX         0.14093  -0.00000   0.00001   0.00001   0.00000
  16        5PY         0.01510  -0.00000   0.00000   0.00000   0.00000
  17        5PZ        -0.00000  -0.00018   0.03703   0.00040   0.02971
  18        6D 0        0.00033  -0.00000  -0.00000  -0.00000  -0.00000
  19        6D+1        0.00000  -0.00852  -0.00360  -0.01585  -0.00739
  20        6D-1       -0.00000  -0.00766   0.00502  -0.00285   0.00690
  21        6D+2        0.00143   0.00000   0.00000   0.00000  -0.00000
  22        6D-2       -0.01094   0.00000   0.00000   0.00000  -0.00000
  23 2   C  1S          0.00253  -0.00000  -0.00000  -0.00000   0.00000
  24        2S          0.00421  -0.00000  -0.00000  -0.00000   0.00000
  25        2PX         0.07805  -0.00000  -0.00000  -0.00000   0.00000
  26        2PY         0.00040  -0.00000   0.00000   0.00000   0.00000
  27        2PZ         0.00000  -0.10221   0.02697  -0.10255   0.00976
  28        3S         -0.01433   0.00000   0.00000   0.00000  -0.00000
  29        3PX         0.11259  -0.00000  -0.00000  -0.00000   0.00000
  30        3PY         0.00033  -0.00000   0.00000   0.00000   0.00000
  31        3PZ         0.00000  -0.16833   0.04496  -0.16852   0.01613
  32        4S          0.01592   0.00000   0.00000   0.00000   0.00000
  33        4PX         0.08158  -0.00000  -0.00000  -0.00000  -0.00000
  34        4PY        -0.01018  -0.00000   0.00000   0.00000   0.00000
  35        4PZ         0.00000  -0.12678   0.03633  -0.14330   0.01485
  36        5S         -0.13311  -0.00000  -0.00000  -0.00000   0.00000
  37        5PX         0.05484   0.00000   0.00000   0.00000   0.00000
  38        5PY         0.07967  -0.00000   0.00001   0.00001   0.00000
  39        5PZ         0.00000  -0.00156  -0.01722  -0.00843   0.00277
  40        6D 0        0.00010  -0.00000   0.00000   0.00000  -0.00000
  41        6D+1        0.00000   0.00937  -0.00839   0.00475  -0.01068
  42        6D-1        0.00000  -0.00558  -0.01080  -0.00701  -0.01752
  43        6D+2        0.00532  -0.00000  -0.00000  -0.00000   0.00000
  44        6D-2       -0.01744   0.00000   0.00000   0.00000  -0.00000
  45 3   C  1S         -0.00024   0.00000   0.00000   0.00000   0.00000
  46        2S         -0.00041   0.00000   0.00000   0.00000   0.00000
  47        2PX        -0.07094   0.00000   0.00000   0.00000  -0.00000
  48        2PY         0.00884   0.00000  -0.00000  -0.00000  -0.00000
  49        2PZ         0.00000  -0.07701  -0.05429  -0.07494  -0.09932
  50        3S          0.00338  -0.00000   0.00000   0.00000  -0.00000
  51        3PX        -0.10215   0.00000   0.00000   0.00000  -0.00000
  52        3PY         0.01233   0.00000  -0.00000  -0.00000  -0.00000
  53        3PZ         0.00000  -0.12526  -0.08962  -0.12181  -0.16326
  54        4S         -0.02678  -0.00000  -0.00000  -0.00000  -0.00000
  55        4PX        -0.07183   0.00000   0.00000   0.00000   0.00000
  56        4PY        -0.00348   0.00000   0.00000   0.00000   0.00000
  57        4PZ         0.00000  -0.09802  -0.07739  -0.10728  -0.14493
  58        5S         -0.00073   0.00000  -0.00001  -0.00001  -0.00000
  59        5PX        -0.03489  -0.00000  -0.00000  -0.00000  -0.00000
  60        5PY         0.06449  -0.00000   0.00000   0.00000   0.00000
  61        5PZ        -0.00000  -0.00816   0.01343  -0.01579  -0.01616
  62        6D 0       -0.00017   0.00000   0.00000   0.00000  -0.00000
  63        6D+1       -0.00000   0.00317   0.00876  -0.00116   0.01066
  64        6D-1        0.00000   0.01132  -0.00717   0.01296  -0.00599
  65        6D+2       -0.00107   0.00000  -0.00000  -0.00000  -0.00000
  66        6D-2       -0.01586   0.00000   0.00000   0.00000  -0.00000
  67 4   C  1S         -0.00096  -0.00000   0.00000   0.00000   0.00000
  68        2S         -0.00160  -0.00000   0.00000   0.00000   0.00000
  69        2PX         0.07690  -0.00000  -0.00000   0.00000   0.00000
  70        2PY        -0.00855  -0.00000   0.00000   0.00000   0.00000
  71        2PZ         0.00000  -0.01220  -0.08893   0.02458  -0.10629
  72        3S          0.00430   0.00000  -0.00000  -0.00000  -0.00000
  73        3PX         0.10909  -0.00000  -0.00000  -0.00000   0.00000
  74        3PY        -0.01215  -0.00000   0.00000   0.00000   0.00000
  75        3PZ         0.00000  -0.01873  -0.14597   0.03966  -0.17317
  76        4S          0.03681   0.00000   0.00000   0.00000   0.00000
  77        4PX         0.06995  -0.00000  -0.00000  -0.00000   0.00000
  78        4PY        -0.02167  -0.00000  -0.00000  -0.00000  -0.00000
  79        4PZ         0.00000  -0.02325  -0.12475   0.02811  -0.16920
  80        5S          0.21764   0.00000   0.00000   0.00000   0.00000
  81        5PX        -0.11393  -0.00000  -0.00000  -0.00000  -0.00000
  82        5PY        -0.04507  -0.00000  -0.00000  -0.00000  -0.00000
  83        5PZ         0.00000   0.01421  -0.03597   0.02463  -0.02149
  84        6D 0       -0.00017  -0.00000   0.00000   0.00000  -0.00000
  85        6D+1       -0.00000  -0.01301  -0.00081  -0.01756  -0.00950
  86        6D-1       -0.00000   0.00320   0.00528  -0.00089   0.00583
  87        6D+2        0.00159   0.00000  -0.00000  -0.00000  -0.00000
  88        6D-2       -0.00981   0.00000   0.00000   0.00000   0.00000
  89 5   C  1S         -0.00201   0.00000   0.00000   0.00000  -0.00000
  90        2S         -0.00334   0.00000   0.00000   0.00000  -0.00000
  91        2PX         0.08178  -0.00000  -0.00000  -0.00000   0.00000
  92        2PY        -0.02673   0.00000   0.00000   0.00000  -0.00000
  93        2PZ         0.00000  -0.01007   0.11592  -0.00929  -0.07775
  94        3S          0.01146  -0.00000  -0.00000  -0.00000   0.00000
  95        3PX         0.11620  -0.00000  -0.00000  -0.00000   0.00000
  96        3PY        -0.03865   0.00000   0.00000   0.00000  -0.00000
  97        3PZ         0.00000  -0.01512   0.19001  -0.01493  -0.12632
  98        4S         -0.03958  -0.00000   0.00000   0.00000   0.00000
  99        4PX         0.05885  -0.00000  -0.00000   0.00000   0.00000
 100        4PY        -0.02172   0.00000  -0.00000  -0.00000  -0.00000
 101        4PZ         0.00000  -0.02021   0.16663  -0.00597  -0.12571
 102        5S         -0.21852  -0.00000   0.00001   0.00000  -0.00000
 103        5PX        -0.09177  -0.00000   0.00000   0.00000  -0.00000
 104        5PY         0.05058   0.00000  -0.00000  -0.00000   0.00000
 105        5PZ         0.00000   0.01574   0.03977  -0.02265  -0.01244
 106        6D 0        0.00043   0.00000   0.00000  -0.00000   0.00000
 107        6D+1        0.00000   0.01365  -0.00366  -0.01842   0.00646
 108        6D-1       -0.00000   0.00306  -0.00700  -0.00014   0.00432
 109        6D+2        0.00808  -0.00000  -0.00000  -0.00000   0.00000
 110        6D-2       -0.00953   0.00000  -0.00000  -0.00000   0.00000
 111 6   C  1S          0.00093  -0.00000   0.00000   0.00000  -0.00000
 112        2S          0.00156  -0.00000   0.00000   0.00000  -0.00000
 113        2PX        -0.06777   0.00000   0.00000   0.00000  -0.00000
 114        2PY         0.02541  -0.00000  -0.00000  -0.00000   0.00000
 115        2PZ         0.00000  -0.07578   0.08108   0.08442  -0.06783
 116        3S         -0.00675   0.00000  -0.00000  -0.00000   0.00000
 117        3PX        -0.09762   0.00000   0.00000  -0.00000  -0.00000
 118        3PY         0.03668  -0.00000  -0.00000  -0.00000   0.00000
 119        3PZ         0.00000  -0.12333   0.13357   0.13762  -0.11150
 120        4S          0.02257   0.00000  -0.00000  -0.00000   0.00000
 121        4PX        -0.07609   0.00000  -0.00000  -0.00000  -0.00000
 122        4PY         0.03196  -0.00000   0.00000   0.00000   0.00000
 123        4PZ         0.00000  -0.09719   0.11478   0.12174  -0.09851
 124        5S          0.03626  -0.00000  -0.00001  -0.00001  -0.00000
 125        5PX        -0.02234  -0.00000   0.00000   0.00000  -0.00000
 126        5PY        -0.05482   0.00000   0.00000   0.00000   0.00000
 127        5PZ        -0.00000  -0.00916  -0.00903   0.01817  -0.01678
 128        6D 0        0.00038  -0.00000   0.00000   0.00000   0.00000
 129        6D+1        0.00000  -0.00304   0.01172   0.00036  -0.00785
 130        6D-1        0.00000   0.01125   0.00881  -0.01166  -0.00542
 131        6D+2        0.00756  -0.00000  -0.00000  -0.00000   0.00000
 132        6D-2       -0.01715   0.00000   0.00000   0.00000  -0.00000
 133 7   C  1S         -0.00203   0.00000   0.00000   0.00000  -0.00000
 134        2S         -0.00336   0.00000   0.00000   0.00000  -0.00000
 135        2PX         0.07516  -0.00000  -0.00000  -0.00000   0.00000
 136        2PY        -0.03592   0.00000   0.00000   0.00000  -0.00000
 137        2PZ         0.00000  -0.10174  -0.02980   0.09764   0.01578
 138        3S          0.01147  -0.00000  -0.00000  -0.00000   0.00000
 139        3PX         0.10778  -0.00000  -0.00000  -0.00000   0.00000
 140        3PY        -0.05083   0.00000   0.00000   0.00000  -0.00000
 141        3PZ         0.00000  -0.16768  -0.04956   0.16054   0.02577
 142        4S         -0.02410  -0.00000   0.00000   0.00000  -0.00000
 143        4PX         0.07027  -0.00000   0.00000   0.00000   0.00000
 144        4PY        -0.02398   0.00000   0.00000   0.00000   0.00000
 145        4PZ         0.00000  -0.12712  -0.04077   0.13712   0.02392
 146        5S          0.09626   0.00000  -0.00000  -0.00000  -0.00000
 147        5PX         0.04035   0.00000  -0.00000  -0.00000  -0.00000
 148        5PY        -0.07058   0.00000   0.00001   0.00001   0.00000
 149        5PZ         0.00000  -0.00068   0.01536   0.00713   0.00950
 150        6D 0        0.00008   0.00000   0.00000   0.00000   0.00000
 151        6D+1       -0.00000  -0.00920  -0.01124   0.00305   0.00826
 152        6D-1        0.00000  -0.00545   0.01536   0.00889  -0.01231
 153        6D+2        0.00091   0.00000   0.00000   0.00000  -0.00000
 154        6D-2       -0.01477   0.00000   0.00000  -0.00000  -0.00000
 155 8   C  1S          0.00112  -0.00000  -0.00000   0.00000   0.00000
 156        2S          0.00183  -0.00000  -0.00000   0.00000   0.00000
 157        2PX        -0.08261   0.00000   0.00000   0.00000  -0.00000
 158        2PY         0.02656  -0.00000  -0.00000   0.00000  -0.00000
 159        2PZ        -0.00000  -0.07398  -0.11358   0.01965   0.08119
 160        3S         -0.00447   0.00000   0.00000  -0.00000  -0.00000
 161        3PX        -0.11661   0.00000   0.00000   0.00000  -0.00000
 162        3PY         0.03861  -0.00000  -0.00000  -0.00000  -0.00000
 163        3PZ        -0.00000  -0.11905  -0.18539   0.03194   0.13354
 164        4S          0.01629   0.00000  -0.00000  -0.00000  -0.00000
 165        4PX        -0.08207  -0.00000  -0.00000  -0.00000  -0.00000
 166        4PY         0.04855   0.00000  -0.00000  -0.00000   0.00000
 167        4PZ        -0.00000  -0.09849  -0.16204   0.03074   0.11982
 168        5S         -0.11023  -0.00000  -0.00001  -0.00001  -0.00000
 169        5PX         0.11215  -0.00000  -0.00001  -0.00001  -0.00000
 170        5PY        -0.00637   0.00000   0.00000   0.00000   0.00000
 171        5PZ        -0.00000  -0.00104  -0.04339  -0.00334   0.01635
 172        6D 0       -0.00031   0.00000  -0.00000  -0.00000   0.00000
 173        6D+1       -0.00000   0.00867  -0.00555  -0.01636   0.00366
 174        6D-1       -0.00000  -0.00752  -0.00719   0.00169   0.00562
 175        6D+2        0.00889  -0.00000  -0.00000  -0.00000   0.00000
 176        6D-2       -0.01084   0.00000   0.00000  -0.00000  -0.00000
 177 9   C  1S         -0.00207   0.00000  -0.00000  -0.00000  -0.00000
 178        2S         -0.00344   0.00000  -0.00000  -0.00000  -0.00000
 179        2PX        -0.09903   0.00000   0.00000   0.00000  -0.00000
 180        2PY         0.01966   0.00000  -0.00000  -0.00000  -0.00000
 181        2PZ        -0.00000   0.00640   0.00994   0.00375  -0.06007
 182        3S          0.01100  -0.00000   0.00000   0.00000   0.00000
 183        3PX        -0.14878   0.00000   0.00000   0.00000  -0.00000
 184        3PY         0.02920   0.00000  -0.00000  -0.00000  -0.00000
 185        3PZ        -0.00000   0.00730   0.01510   0.00577  -0.09166
 186        4S          0.00030   0.00000   0.00001   0.00000   0.00000
 187        4PX        -0.10154  -0.00000   0.00000   0.00000   0.00000
 188        4PY         0.02885   0.00000  -0.00000  -0.00000  -0.00000
 189        4PZ        -0.00000   0.04322   0.01461   0.00567  -0.09226
 190        5S         -0.00249   0.00000   0.00001   0.00001   0.00000
 191        5PX         0.37381   0.00000  -0.00000  -0.00000   0.00000
 192        5PY         0.00358   0.00000   0.00000   0.00000   0.00000
 193        5PZ        -0.00000   0.06965  -0.01537  -0.00630   0.09216
 194        6D 0       -0.00200   0.00000   0.00000  -0.00000  -0.00000
 195        6D+1        0.00000  -0.00013   0.01356   0.01246   0.00291
 196        6D-1        0.00000  -0.00033  -0.00270  -0.00095   0.01800
 197        6D+2        0.00465  -0.00000  -0.00000  -0.00000   0.00000
 198        6D-2       -0.01044   0.00000   0.00000   0.00000  -0.00000
 199 10  C  1S         -0.00272   0.00000  -0.00000  -0.00000  -0.00000
 200        2S         -0.00451   0.00000  -0.00000  -0.00000  -0.00000
 201        2PX         0.07509  -0.00000  -0.00000  -0.00000   0.00000
 202        2PY        -0.01546   0.00000   0.00000   0.00000  -0.00000
 203        2PZ         0.00000   0.10338  -0.00235  -0.00270   0.01681
 204        3S          0.01388  -0.00000   0.00000   0.00000   0.00000
 205        3PX         0.10788  -0.00000  -0.00000  -0.00000   0.00000
 206        3PY        -0.02216   0.00000   0.00000   0.00000   0.00000
 207        3PZ         0.00000   0.16852  -0.00404  -0.00441   0.02853
 208        4S          0.01289  -0.00000  -0.00000  -0.00000  -0.00000
 209        4PX         0.08579   0.00000  -0.00000  -0.00000   0.00000
 210        4PY        -0.02665   0.00000   0.00000   0.00000   0.00000
 211        4PZ         0.00000   0.13986  -0.00284  -0.00321   0.02045
 212        5S          0.00079   0.00000   0.00001   0.00001   0.00000
 213        5PX        -0.28786  -0.00000   0.00000   0.00000  -0.00000
 214        5PY        -0.00186  -0.00000   0.00000   0.00000   0.00000
 215        5PZ         0.00000   0.01430   0.00889   0.00434  -0.05905
 216        6D 0        0.00041   0.00000   0.00000   0.00000   0.00000
 217        6D+1       -0.00000  -0.00079  -0.00920   0.02231   0.00018
 218        6D-1       -0.00000  -0.00926   0.00062   0.00037  -0.00418
 219        6D+2        0.00584   0.00000  -0.00000  -0.00000  -0.00000
 220        6D-2       -0.01005   0.00000   0.00000   0.00000  -0.00000
 221 11  C  1S         -0.00003  -0.00000  -0.00000  -0.00000   0.00000
 222        2S         -0.00008  -0.00000  -0.00000  -0.00000   0.00000
 223        2PX         0.08455  -0.00000  -0.00000  -0.00000   0.00000
 224        2PY        -0.01394  -0.00000   0.00000   0.00000   0.00000
 225        2PZ        -0.00000  -0.00478   0.06339   0.07078   0.09444
 226        3S          0.00089   0.00000   0.00000   0.00000  -0.00000
 227        3PX         0.12378  -0.00000  -0.00000   0.00000   0.00000
 228        3PY        -0.01945  -0.00000   0.00000   0.00000   0.00000
 229        3PZ        -0.00000  -0.00704   0.10282   0.11731   0.15413
 230        4S         -0.00429   0.00000  -0.00000  -0.00000  -0.00000
 231        4PX         0.11873  -0.00000   0.00000   0.00000   0.00000
 232        4PY        -0.02588  -0.00000   0.00000   0.00000   0.00000
 233        4PZ        -0.00000  -0.01995   0.10973   0.10073   0.15740
 234        5S          0.07497   0.00000  -0.00002  -0.00001  -0.00001
 235        5PX         0.18337   0.00000   0.00000   0.00000   0.00000
 236        5PY         0.24862   0.00000  -0.00002  -0.00002  -0.00000
 237        5PZ         0.00000  -0.01675  -0.02603   0.01325  -0.07233
 238        6D 0       -0.00040  -0.00000  -0.00000  -0.00000  -0.00000
 239        6D+1        0.00000  -0.00950   0.00731  -0.00482   0.01367
 240        6D-1        0.00000   0.01032  -0.00975   0.01251  -0.00035
 241        6D+2        0.00434  -0.00000  -0.00000  -0.00000  -0.00000
 242        6D-2       -0.01805   0.00000  -0.00000  -0.00000  -0.00000
 243 12  C  1S          0.00158   0.00000  -0.00000  -0.00000  -0.00000
 244        2S          0.00270  -0.00000  -0.00000  -0.00000  -0.00000
 245        2PX        -0.06971   0.00000   0.00000   0.00000  -0.00000
 246        2PY         0.01324   0.00000  -0.00000  -0.00000  -0.00000
 247        2PZ         0.00000   0.06143  -0.03856   0.10644   0.00853
 248        3S         -0.00788   0.00000   0.00000   0.00000   0.00000
 249        3PX        -0.10014   0.00000   0.00000   0.00000  -0.00000
 250        3PY         0.01916   0.00000  -0.00000  -0.00000  -0.00000
 251        3PZ         0.00000   0.10097  -0.06108   0.17528   0.01284
 252        4S         -0.01885  -0.00000   0.00000  -0.00000  -0.00000
 253        4PX        -0.09126   0.00000  -0.00000  -0.00000  -0.00000
 254        4PY        -0.00398  -0.00000   0.00000   0.00000  -0.00000
 255        4PZ         0.00000   0.09193  -0.07292   0.17006   0.01729
 256        5S         -0.24884  -0.00000   0.00003   0.00002   0.00001
 257        5PX        -0.31239  -0.00000   0.00000   0.00000  -0.00000
 258        5PY         0.17887   0.00000  -0.00001  -0.00001  -0.00000
 259        5PZ        -0.00000  -0.01451   0.02961  -0.02300   0.07405
 260        6D 0       -0.00005  -0.00000  -0.00000  -0.00000   0.00000
 261        6D+1       -0.00000  -0.01243  -0.00751   0.00104  -0.01252
 262        6D-1        0.00000   0.00479  -0.01228  -0.00488  -0.01617
 263        6D+2        0.00370   0.00000   0.00000   0.00000  -0.00000
 264        6D-2       -0.01740   0.00000   0.00000  -0.00000  -0.00000
 265 13  C  1S         -0.00143   0.00000   0.00000   0.00000  -0.00000
 266        2S         -0.00235   0.00000   0.00000   0.00000  -0.00000
 267        2PX         0.08364  -0.00000  -0.00000  -0.00000   0.00000
 268        2PY        -0.03949   0.00000   0.00000   0.00000  -0.00000
 269        2PZ        -0.00000  -0.00290  -0.08795  -0.07991   0.05989
 270        3S          0.00648  -0.00000  -0.00000   0.00000   0.00000
 271        3PX         0.12308  -0.00000  -0.00000  -0.00000   0.00000
 272        3PY        -0.05837   0.00000   0.00000   0.00000  -0.00000
 273        3PZ        -0.00000  -0.00366  -0.14283  -0.13244   0.09764
 274        4S          0.02196  -0.00000  -0.00000  -0.00000   0.00000
 275        4PX         0.11840  -0.00000  -0.00000  -0.00000   0.00000
 276        4PY        -0.03731   0.00000   0.00000   0.00000  -0.00000
 277        4PZ        -0.00000  -0.01736  -0.14790  -0.11629   0.09840
 278        5S         -0.09077  -0.00000  -0.00002  -0.00001  -0.00001
 279        5PX         0.16065   0.00000  -0.00001  -0.00001   0.00000
 280        5PY        -0.28842  -0.00000  -0.00002  -0.00002  -0.00001
 281        5PZ         0.00000  -0.01577   0.04873  -0.00309  -0.06494
 282        6D 0        0.00040   0.00000  -0.00000  -0.00000   0.00000
 283        6D+1       -0.00000   0.00965   0.01152  -0.00287  -0.01166
 284        6D-1        0.00000   0.01101   0.00948  -0.01210   0.00073
 285        6D+2        0.00522   0.00000  -0.00000  -0.00000   0.00000
 286        6D-2       -0.01896   0.00000   0.00000   0.00000  -0.00000
 287 14  C  1S          0.00003   0.00000  -0.00000  -0.00000   0.00000
 288        2S          0.00003   0.00000  -0.00000  -0.00000   0.00000
 289        2PX        -0.07297   0.00000   0.00000   0.00000  -0.00000
 290        2PY         0.03713  -0.00000  -0.00000  -0.00000   0.00000
 291        2PZ         0.00000   0.06803   0.03506  -0.10559   0.00469
 292        3S         -0.00014  -0.00000   0.00000   0.00000  -0.00000
 293        3PX        -0.10502   0.00000   0.00000   0.00000  -0.00000
 294        3PY         0.05377  -0.00000  -0.00000  -0.00000   0.00000
 295        3PZ         0.00000   0.11167   0.05582  -0.17381   0.00577
 296        4S          0.02354   0.00000   0.00000  -0.00000   0.00000
 297        4PX        -0.10776   0.00000   0.00000   0.00000   0.00000
 298        4PY         0.06292   0.00000  -0.00000   0.00000   0.00000
 299        4PZ         0.00000   0.10154   0.06599  -0.16995   0.01480
 300        5S          0.28282   0.00000   0.00003   0.00002   0.00001
 301        5PX        -0.29095  -0.00000   0.00000   0.00000  -0.00000
 302        5PY        -0.20771  -0.00000  -0.00001  -0.00001  -0.00001
 303        5PZ        -0.00000  -0.01595  -0.05043   0.01277   0.06611
 304        6D 0        0.00006   0.00000  -0.00000  -0.00000  -0.00000
 305        6D+1       -0.00000   0.01242  -0.01063  -0.00090   0.00968
 306        6D-1        0.00000   0.00498   0.01608   0.00642  -0.01060
 307        6D+2        0.00518  -0.00000  -0.00000  -0.00000   0.00000
 308        6D-2       -0.01713   0.00000   0.00000   0.00000  -0.00000
 309 15  H  1S         -0.00422  -0.00000   0.00000   0.00000   0.00000
 310        2S         -0.00700  -0.00000   0.00000  -0.00000   0.00000
 311        3S         -0.00337   0.00000  -0.00000  -0.00000   0.00000
 312        4S         -0.01337  -0.00000   0.00000   0.00000   0.00000
 313        5PX        -0.00456   0.00000  -0.00000  -0.00000  -0.00000
 314        5PY         0.00015  -0.00000  -0.00000  -0.00000  -0.00000
 315        5PZ        -0.00000  -0.00479   0.00611  -0.00246   0.00746
 316 16  H  1S          0.06335  -0.00000  -0.00000  -0.00000   0.00000
 317        2S          0.09214  -0.00000  -0.00000   0.00000   0.00000
 318        3S          0.03565   0.00000   0.00000   0.00000   0.00000
 319        4S          0.00698  -0.00000   0.00000   0.00000   0.00000
 320        5PX        -0.00269   0.00000  -0.00000  -0.00000   0.00000
 321        5PY         0.00405  -0.00000  -0.00000  -0.00000   0.00000
 322        5PZ         0.00000  -0.00656   0.00192  -0.00701   0.00067
 323 17  H  1S         -0.05451   0.00000   0.00000   0.00000  -0.00000
 324        2S         -0.07850   0.00000  -0.00000  -0.00000  -0.00000
 325        3S         -0.03047  -0.00000  -0.00000   0.00000  -0.00000
 326        4S         -0.00573  -0.00000  -0.00000  -0.00000  -0.00000
 327        5PX         0.00202  -0.00000   0.00000   0.00000   0.00000
 328        5PY         0.00425  -0.00000  -0.00000  -0.00000   0.00000
 329        5PZ         0.00000  -0.00491  -0.00379  -0.00508  -0.00710
 330 18  H  1S         -0.00709  -0.00000   0.00000   0.00000   0.00000
 331        2S         -0.01026  -0.00000   0.00000   0.00000   0.00000
 332        3S         -0.00326  -0.00000   0.00000   0.00000   0.00000
 333        4S          0.01677  -0.00000   0.00000   0.00000   0.00000
 334        5PX         0.00439  -0.00000   0.00000   0.00000   0.00000
 335        5PY         0.00066   0.00000  -0.00000  -0.00000  -0.00000
 336        5PZ         0.00000  -0.00026  -0.00643   0.00181  -0.00742
 337 19  H  1S         -0.01444  -0.00000   0.00000   0.00000   0.00000
 338        2S         -0.02084   0.00000   0.00000   0.00000  -0.00000
 339        3S         -0.01008  -0.00000  -0.00000  -0.00000  -0.00000
 340        4S         -0.00154   0.00000  -0.00000  -0.00000  -0.00000
 341        5PX         0.00418  -0.00000  -0.00000  -0.00000   0.00000
 342        5PY         0.00037  -0.00000   0.00000   0.00000   0.00000
 343        5PZ         0.00000   0.00646  -0.00008  -0.00014   0.00058
 344 20  H  1S         -0.02584   0.00000   0.00000   0.00000  -0.00000
 345        2S         -0.03809   0.00000   0.00000   0.00000  -0.00000
 346        3S         -0.01968   0.00000   0.00000   0.00000  -0.00000
 347        4S         -0.01965   0.00000   0.00000   0.00000  -0.00000
 348        5PX         0.00415  -0.00000  -0.00000  -0.00000   0.00000
 349        5PY         0.00126  -0.00000  -0.00000  -0.00000   0.00000
 350        5PZ         0.00000  -0.00010   0.00824  -0.00078  -0.00532
 351 21  H  1S          0.06889  -0.00000  -0.00000  -0.00000   0.00000
 352        2S          0.09998  -0.00000  -0.00000  -0.00000   0.00000
 353        3S          0.03781   0.00000  -0.00000  -0.00000   0.00000
 354        4S          0.00565   0.00000  -0.00000  -0.00000   0.00000
 355        5PX         0.00385  -0.00000  -0.00000  -0.00000   0.00000
 356        5PY        -0.00319   0.00000   0.00000   0.00000  -0.00000
 357        5PZ         0.00000  -0.00483   0.00565   0.00576  -0.00486
 358 22  H  1S         -0.04400   0.00000   0.00000   0.00000  -0.00000
 359        2S         -0.06400   0.00000   0.00000   0.00000  -0.00000
 360        3S         -0.02653  -0.00000   0.00000   0.00000  -0.00000
 361        4S         -0.00825   0.00000   0.00000   0.00000  -0.00000
 362        5PX        -0.00069   0.00000   0.00000   0.00000   0.00000
 363        5PY        -0.00481   0.00000   0.00000   0.00000  -0.00000
 364        5PZ         0.00000  -0.00651  -0.00209   0.00667   0.00105
 365 23  H  1S         -0.02919   0.00000   0.00000   0.00000  -0.00000
 366        2S         -0.04075   0.00000   0.00000  -0.00000  -0.00000
 367        3S         -0.01618  -0.00000  -0.00000  -0.00000  -0.00000
 368        4S          0.01300   0.00000   0.00000   0.00000   0.00000
 369        5PX        -0.00451   0.00000   0.00000   0.00000  -0.00000
 370        5PY        -0.00197   0.00000  -0.00000  -0.00000   0.00000
 371        5PZ        -0.00000  -0.00474  -0.00799   0.00139   0.00550
 372 24  H  1S         -0.01132   0.00341   0.00916   0.00342  -0.05620
 373        2S         -0.01611  -0.00414   0.01432   0.00531  -0.08930
 374        3S         -0.00719  -0.02570   0.01157   0.00421  -0.07454
 375        4S          0.00053  -0.04571   0.00632   0.00221  -0.04044
 376        5PX        -0.00492  -0.00001   0.00235   0.00108   0.00061
 377        5PY         0.00022  -0.00088   0.00061   0.00022  -0.00330
 378        5PZ         0.00104  -0.00012  -0.00027  -0.00008   0.00163
 379 25  H  1S         -0.01132  -0.00341  -0.00916  -0.00342   0.05620
 380        2S         -0.01611   0.00414  -0.01432  -0.00531   0.08930
 381        3S         -0.00719   0.02570  -0.01157  -0.00422   0.07454
 382        4S          0.00053   0.04571  -0.00632  -0.00221   0.04044
 383        5PX        -0.00492   0.00002  -0.00235  -0.00108  -0.00061
 384        5PY         0.00022   0.00088  -0.00061  -0.00022   0.00330
 385        5PZ        -0.00104  -0.00012  -0.00027  -0.00008   0.00163
                          48        49        50        51        52
                           V         V         V         V         V
     Eigenvalues --    -0.26106  -0.14709  -0.14145  -0.12842  -0.11168
   1 1   C  1S         -0.00000  -0.00000   0.00000   0.00000  -0.00605
   2        2S         -0.00000  -0.00000   0.00000   0.00000  -0.01025
   3        2PX         0.00000  -0.00000  -0.00000  -0.00000   0.00348
   4        2PY        -0.00000  -0.00000   0.00000   0.00000  -0.01515
   5        2PZ        -0.00428   0.09780  -0.00666  -0.10627  -0.00000
   6        3S          0.00000   0.00000  -0.00000  -0.00000   0.03339
   7        3PX         0.00000  -0.00000   0.00000   0.00000   0.00338
   8        3PY        -0.00000  -0.00000   0.00000   0.00000  -0.02228
   9        3PZ        -0.00659   0.15029  -0.00973  -0.16812  -0.00000
  10        4S          0.00000   0.00000   0.00000   0.00000   0.02723
  11        4PX         0.00000   0.00000  -0.00000  -0.00000   0.02597
  12        4PY         0.00000   0.00000   0.00000   0.00000  -0.07952
  13        4PZ        -0.00611   0.28226  -0.01307  -0.29851  -0.00000
  14        5S         -0.00000  -0.00000   0.00004   0.00004  -1.70856
  15        5PX        -0.00000   0.00001  -0.00005  -0.00004   0.92378
  16        5PY        -0.00000   0.00000  -0.00000  -0.00000  -0.45509
  17        5PZ         0.01035   0.21066   0.02302  -0.34526  -0.00000
  18        6D 0        0.00000   0.00000   0.00000  -0.00000  -0.00552
  19        6D+1        0.01694   0.00687   0.02523  -0.00256   0.00000
  20        6D-1       -0.00187  -0.00861   0.00134   0.00862  -0.00000
  21        6D+2        0.00000   0.00000  -0.00000  -0.00000   0.00150
  22        6D-2        0.00000  -0.00000  -0.00000  -0.00000  -0.00122
  23 2   C  1S         -0.00000   0.00000   0.00000   0.00000  -0.00479
  24        2S         -0.00000   0.00000   0.00000   0.00000  -0.00795
  25        2PX        -0.00000   0.00000   0.00000  -0.00000   0.00701
  26        2PY        -0.00000   0.00000   0.00000  -0.00000  -0.00069
  27        2PZ         0.08132  -0.01907   0.10041   0.04424   0.00000
  28        3S          0.00000   0.00000  -0.00000  -0.00000   0.02291
  29        3PX        -0.00000   0.00000   0.00000  -0.00000   0.01173
  30        3PY        -0.00000   0.00000   0.00000  -0.00000  -0.00277
  31        3PZ         0.13320  -0.02916   0.15987   0.06967   0.00000
  32        4S         -0.00000  -0.00000  -0.00000   0.00000   0.11124
  33        4PX         0.00000   0.00000   0.00000   0.00000  -0.00125
  34        4PY         0.00000  -0.00000  -0.00000  -0.00000   0.01135
  35        4PZ         0.15480  -0.05660   0.26577   0.12234   0.00000
  36        5S         -0.00000  -0.00000   0.00001   0.00001   0.44792
  37        5PX         0.00000   0.00000  -0.00001  -0.00001   0.24824
  38        5PY        -0.00000   0.00000  -0.00003  -0.00002   0.39832
  39        5PZ         0.04876  -0.04297   0.21546   0.13005   0.00000
  40        6D 0        0.00000   0.00000  -0.00000   0.00000  -0.00365
  41        6D+1        0.00181  -0.01247   0.00122   0.01458   0.00000
  42        6D-1        0.00110  -0.02069  -0.01169   0.01954   0.00000
  43        6D+2       -0.00000  -0.00000   0.00000   0.00000  -0.00217
  44        6D-2        0.00000   0.00000  -0.00000  -0.00000   0.00394
  45 3   C  1S         -0.00000  -0.00000   0.00000   0.00000  -0.00409
  46        2S         -0.00000  -0.00000   0.00000   0.00000  -0.00677
  47        2PX        -0.00000  -0.00000  -0.00000   0.00000   0.00763
  48        2PY        -0.00000  -0.00000   0.00000   0.00000   0.00072
  49        2PZ         0.01133  -0.08473  -0.07742   0.06803  -0.00000
  50        3S          0.00000   0.00000  -0.00000  -0.00000   0.01945
  51        3PX        -0.00000  -0.00000  -0.00000  -0.00000   0.01342
  52        3PY        -0.00000  -0.00000   0.00000   0.00000   0.00201
  53        3PZ         0.01987  -0.13300  -0.12281   0.10658  -0.00000
  54        4S          0.00000   0.00000   0.00000   0.00000   0.07134
  55        4PX        -0.00000  -0.00000  -0.00000  -0.00000   0.01493
  56        4PY        -0.00000  -0.00000  -0.00000  -0.00000   0.02115
  57        4PZ         0.01346  -0.23135  -0.20845   0.18651  -0.00000
  58        5S          0.00000  -0.00000   0.00004   0.00003   0.21022
  59        5PX        -0.00000  -0.00000   0.00000   0.00000  -0.02275
  60        5PY        -0.00000   0.00000  -0.00002  -0.00001   0.41924
  61        5PZ         0.00244  -0.17589  -0.16095   0.18775  -0.00000
  62        6D 0        0.00000   0.00000   0.00000  -0.00000  -0.00394
  63        6D+1        0.00959  -0.01059   0.00444   0.01424   0.00000
  64        6D-1       -0.01426   0.00921  -0.01692  -0.01523  -0.00000
  65        6D+2        0.00000   0.00000   0.00000   0.00000  -0.00247
  66        6D-2        0.00000  -0.00000  -0.00000   0.00000  -0.00362
  67 4   C  1S         -0.00000  -0.00000  -0.00000   0.00000  -0.00644
  68        2S         -0.00000  -0.00000  -0.00000   0.00000  -0.01084
  69        2PX        -0.00000  -0.00000  -0.00000  -0.00000   0.00393
  70        2PY        -0.00000  -0.00000  -0.00000  -0.00000   0.01697
  71        2PZ        -0.07683   0.08864  -0.02937  -0.10777  -0.00000
  72        3S          0.00000   0.00000  -0.00000  -0.00000   0.03236
  73        3PX        -0.00000  -0.00000   0.00000   0.00000   0.00421
  74        3PY        -0.00000  -0.00000   0.00000  -0.00000   0.02301
  75        3PZ        -0.12450   0.13567  -0.04720  -0.17129  -0.00000
  76        4S         -0.00000  -0.00000  -0.00000  -0.00000   0.20416
  77        4PX        -0.00000  -0.00000   0.00000   0.00000  -0.04789
  78        4PY         0.00000   0.00000   0.00000   0.00000   0.03122
  79        4PZ        -0.14364   0.26598  -0.09113  -0.29752  -0.00000
  80        5S          0.00000  -0.00001  -0.00001  -0.00001   1.75234
  81        5PX        -0.00000   0.00000   0.00001   0.00001  -0.88023
  82        5PY         0.00000   0.00000   0.00000   0.00000   0.63962
  83        5PZ        -0.03411   0.24480  -0.13144  -0.33150  -0.00000
  84        6D 0        0.00000   0.00000   0.00000   0.00000  -0.00563
  85        6D+1        0.00150  -0.01270  -0.02459   0.00410  -0.00000
  86        6D-1        0.00370   0.00721  -0.00119  -0.00909  -0.00000
  87        6D+2        0.00000   0.00000   0.00000  -0.00000   0.00098
  88        6D-2       -0.00000  -0.00000  -0.00000   0.00000   0.00221
  89 5   C  1S          0.00000   0.00000  -0.00000   0.00000  -0.00692
  90        2S          0.00000   0.00000  -0.00000   0.00000  -0.01165
  91        2PX        -0.00000  -0.00000   0.00000   0.00000  -0.00385
  92        2PY         0.00000   0.00000  -0.00000  -0.00000   0.01798
  93        2PZ        -0.08059   0.08750   0.01550   0.10958   0.00000
  94        3S         -0.00000  -0.00000   0.00000  -0.00000   0.03497
  95        3PX        -0.00000  -0.00000   0.00000  -0.00000  -0.00411
  96        3PY         0.00000   0.00000   0.00000  -0.00000   0.02450
  97        3PZ        -0.13072   0.13418   0.02546   0.17414   0.00000
  98        4S          0.00000   0.00000  -0.00000  -0.00000   0.20697
  99        4PX        -0.00000  -0.00000  -0.00000  -0.00000   0.04848
 100        4PY        -0.00000  -0.00000   0.00000   0.00000   0.03795
 101        4PZ        -0.15204   0.26710   0.04873   0.30754   0.00000
 102        5S         -0.00000   0.00001  -0.00002  -0.00001   1.68913
 103        5PX        -0.00000  -0.00000  -0.00002  -0.00001   0.92851
 104        5PY        -0.00000  -0.00000   0.00000   0.00000   0.69017
 105        5PZ        -0.03748   0.25347   0.09571   0.35211   0.00000
 106        6D 0       -0.00000  -0.00000   0.00000   0.00000  -0.00581
 107        6D+1       -0.00112   0.00962  -0.02706   0.00408  -0.00000
 108        6D-1        0.00365   0.00720   0.00063   0.00977   0.00000
 109        6D+2       -0.00000  -0.00000   0.00000  -0.00000   0.00133
 110        6D-2       -0.00000  -0.00000   0.00000  -0.00000  -0.00226
 111 6   C  1S          0.00000   0.00000  -0.00000   0.00000  -0.00452
 112        2S          0.00000   0.00000  -0.00000   0.00000  -0.00749
 113        2PX         0.00000  -0.00000   0.00000  -0.00000  -0.00858
 114        2PY         0.00000   0.00000  -0.00000   0.00000   0.00111
 115        2PZ         0.00977  -0.07174   0.09052  -0.06822   0.00000
 116        3S         -0.00000  -0.00000  -0.00000  -0.00000   0.02169
 117        3PX        -0.00000  -0.00000   0.00000   0.00000  -0.01466
 118        3PY         0.00000   0.00000   0.00000   0.00000   0.00267
 119        3PZ         0.01764  -0.11267   0.14361  -0.10699   0.00000
 120        4S         -0.00000  -0.00000   0.00000   0.00000   0.08109
 121        4PX        -0.00000  -0.00000   0.00000   0.00000  -0.01736
 122        4PY         0.00000   0.00000  -0.00000  -0.00000   0.02204
 123        4PZ         0.01105  -0.20046   0.24488  -0.19181   0.00000
 124        5S         -0.00000   0.00001   0.00004   0.00003   0.27156
 125        5PX        -0.00000  -0.00000  -0.00000  -0.00000   0.01989
 126        5PY         0.00000  -0.00000  -0.00002  -0.00002   0.46554
 127        5PZ         0.00159  -0.15362   0.19294  -0.19625   0.00000
 128        6D 0       -0.00000  -0.00000   0.00000   0.00000  -0.00418
 129        6D+1       -0.01013   0.01066   0.00248   0.01454   0.00000
 130        6D-1       -0.01548   0.01096   0.01583   0.01617   0.00000
 131        6D+2       -0.00000  -0.00000   0.00000   0.00000  -0.00275
 132        6D-2        0.00000  -0.00000   0.00000  -0.00000   0.00397
 133 7   C  1S          0.00000   0.00000   0.00000   0.00000  -0.00527
 134        2S          0.00000   0.00000   0.00000   0.00000  -0.00874
 135        2PX        -0.00000   0.00000  -0.00000   0.00000  -0.00802
 136        2PY         0.00000   0.00000   0.00000  -0.00000  -0.00099
 137        2PZ         0.08845  -0.02959  -0.09950  -0.04673  -0.00000
 138        3S         -0.00000  -0.00000  -0.00000  -0.00000   0.02541
 139        3PX        -0.00000   0.00000  -0.00000   0.00000  -0.01317
 140        3PY         0.00000   0.00000   0.00000  -0.00000  -0.00331
 141        3PZ         0.14484  -0.04597  -0.15843  -0.07359  -0.00000
 142        4S          0.00000   0.00000  -0.00000   0.00000   0.11899
 143        4PX         0.00000   0.00000  -0.00000   0.00000  -0.00221
 144        4PY         0.00000  -0.00000  -0.00000  -0.00000   0.01088
 145        4PZ         0.16928  -0.08460  -0.26450  -0.13045  -0.00000
 146        5S          0.00000   0.00001   0.00001   0.00001   0.33251
 147        5PX         0.00000   0.00000   0.00001   0.00001  -0.31609
 148        5PY         0.00000  -0.00001  -0.00003  -0.00002   0.43641
 149        5PZ         0.05383  -0.06688  -0.21754  -0.13787  -0.00000
 150        6D 0       -0.00000  -0.00000  -0.00000   0.00000  -0.00392
 151        6D+1       -0.00194   0.01213  -0.00031   0.01516   0.00000
 152        6D-1        0.00084  -0.01847   0.01438  -0.02006  -0.00000
 153        6D+2        0.00000   0.00000  -0.00000   0.00000  -0.00226
 154        6D-2        0.00000   0.00000   0.00000   0.00000  -0.00429
 155 8   C  1S          0.00000   0.00000  -0.00000   0.00000  -0.00650
 156        2S          0.00000   0.00000  -0.00000   0.00000  -0.01101
 157        2PX         0.00000   0.00000   0.00000   0.00000  -0.00351
 158        2PY         0.00000   0.00000  -0.00000   0.00000  -0.01578
 159        2PZ        -0.00434   0.09404  -0.00261   0.11024   0.00000
 160        3S         -0.00000  -0.00000  -0.00000  -0.00000   0.03563
 161        3PX         0.00000  -0.00000  -0.00000  -0.00000  -0.00335
 162        3PY         0.00000   0.00000   0.00000   0.00000  -0.02315
 163        3PZ        -0.00645   0.14455  -0.00439   0.17470   0.00000
 164        4S         -0.00000  -0.00000   0.00000   0.00000   0.03519
 165        4PX         0.00000   0.00000   0.00000   0.00000  -0.02619
 166        4PY        -0.00000  -0.00000   0.00000   0.00000  -0.08155
 167        4PZ        -0.00542   0.27397  -0.01644   0.31347   0.00000
 168        5S         -0.00000   0.00001   0.00004   0.00004  -1.79376
 169        5PX        -0.00000   0.00002   0.00005   0.00004  -1.05483
 170        5PY         0.00000  -0.00000  -0.00001  -0.00000  -0.47160
 171        5PZ         0.01106   0.20383  -0.04441   0.36180   0.00000
 172        6D 0       -0.00000  -0.00000   0.00000  -0.00000  -0.00579
 173        6D+1       -0.01835  -0.00400   0.02640  -0.00268   0.00000
 174        6D-1       -0.00187  -0.00854  -0.00051  -0.00917   0.00000
 175        6D+2       -0.00000  -0.00000  -0.00000  -0.00000   0.00163
 176        6D-2        0.00000  -0.00000   0.00000   0.00000   0.00137
 177 9   C  1S         -0.00000   0.00000   0.00000   0.00000  -0.01413
 178        2S         -0.00000   0.00000   0.00000   0.00000  -0.02376
 179        2PX         0.00000  -0.00000   0.00000  -0.00000   0.00037
 180        2PY        -0.00000   0.00000   0.00000   0.00000  -0.03083
 181        2PZ         0.02877  -0.01358   0.00124  -0.00036   0.00000
 182        3S          0.00000   0.00000  -0.00000   0.00000   0.06206
 183        3PX         0.00000  -0.00000   0.00000  -0.00000   0.00061
 184        3PY         0.00000   0.00000   0.00000   0.00000  -0.04672
 185        3PZ         0.03836  -0.02069   0.00177  -0.00055   0.00000
 186        4S          0.00000  -0.00000  -0.00002  -0.00001   0.43717
 187        4PX        -0.00000   0.00000  -0.00000  -0.00000   0.00366
 188        4PY        -0.00000   0.00000   0.00000   0.00000  -0.02394
 189        4PZ         0.07640  -0.11169   0.01141   0.00008   0.00000
 190        5S          0.00000  -0.00000  -0.00005  -0.00005   0.82175
 191        5PX        -0.00000   0.00001   0.00000   0.00000  -0.07192
 192        5PY         0.00000  -0.00000  -0.00001  -0.00001  -0.47049
 193        5PZ         0.13137  -0.44721   0.03968  -0.00386   0.00000
 194        6D 0        0.00000   0.00000   0.00000  -0.00000  -0.00878
 195        6D+1        0.00060  -0.00154  -0.02500   0.01260  -0.00000
 196        6D-1       -0.01959  -0.02907   0.00131  -0.00044  -0.00000
 197        6D+2       -0.00000  -0.00000   0.00000   0.00000   0.00242
 198        6D-2        0.00000   0.00000  -0.00000   0.00000  -0.00010
 199 10  C  1S         -0.00000  -0.00000   0.00000   0.00000  -0.01076
 200        2S         -0.00000  -0.00000   0.00000   0.00000  -0.01834
 201        2PX        -0.00000  -0.00000   0.00000  -0.00000   0.00028
 202        2PY        -0.00000   0.00000   0.00000  -0.00000   0.02388
 203        2PZ         0.17318   0.01329   0.00542   0.00284   0.00000
 204        3S          0.00000  -0.00000  -0.00000  -0.00000   0.06121
 205        3PX        -0.00000  -0.00000   0.00000  -0.00000   0.00044
 206        3PY         0.00000  -0.00000  -0.00000  -0.00000   0.03347
 207        3PZ         0.28177   0.01875   0.00896   0.00448   0.00000
 208        4S         -0.00000   0.00000   0.00001   0.00000   0.06866
 209        4PX        -0.00000  -0.00000   0.00000   0.00000  -0.00145
 210        4PY         0.00000  -0.00000  -0.00000  -0.00000   0.20861
 211        4PZ         0.35039   0.06492   0.01450   0.00977   0.00000
 212        5S          0.00000  -0.00000  -0.00004  -0.00004   1.55382
 213        5PX         0.00000   0.00001  -0.00000  -0.00000  -0.06656
 214        5PY         0.00000  -0.00000  -0.00000  -0.00000   1.96699
 215        5PZ         0.09898   0.32868  -0.00223   0.01976   0.00000
 216        6D 0        0.00000  -0.00000  -0.00000  -0.00000  -0.00749
 217        6D+1       -0.00022   0.00160   0.03044   0.00780   0.00000
 218        6D-1        0.00089   0.01308  -0.00030   0.00062   0.00000
 219        6D+2       -0.00000   0.00000   0.00000  -0.00000   0.00107
 220        6D-2        0.00000   0.00000  -0.00000  -0.00000   0.00006
 221 11  C  1S         -0.00000  -0.00000   0.00000   0.00000  -0.00596
 222        2S         -0.00000  -0.00000   0.00000   0.00000  -0.01026
 223        2PX        -0.00000  -0.00000  -0.00000  -0.00000   0.00248
 224        2PY        -0.00000  -0.00000   0.00000  -0.00000   0.00958
 225        2PZ        -0.08558  -0.08844  -0.09290   0.07070  -0.00000
 226        3S          0.00000   0.00000  -0.00000  -0.00000   0.04097
 227        3PX        -0.00000  -0.00000  -0.00000  -0.00000   0.00355
 228        3PY        -0.00000  -0.00000   0.00000  -0.00000   0.01371
 229        3PZ        -0.13788  -0.13716  -0.14556   0.11534  -0.00000
 230        4S          0.00000   0.00000   0.00000   0.00000  -0.01519
 231        4PX        -0.00000  -0.00000  -0.00000  -0.00000   0.12136
 232        4PY        -0.00000  -0.00000  -0.00000   0.00000   0.00551
 233        4PZ        -0.17937  -0.23229  -0.28307   0.19031  -0.00000
 234        5S          0.00000   0.00001   0.00007   0.00005  -3.81537
 235        5PX         0.00000  -0.00001  -0.00002  -0.00002   0.87914
 236        5PY        -0.00000  -0.00001   0.00008   0.00007  -2.29062
 237        5PZ        -0.10841   0.03222  -0.38244   0.22973  -0.00000
 238        6D 0        0.00000   0.00000   0.00000  -0.00000  -0.00778
 239        6D+1       -0.00420   0.01772  -0.00058  -0.01425  -0.00000
 240        6D-1       -0.00477  -0.01258   0.01838   0.01590   0.00000
 241        6D+2        0.00000   0.00000   0.00000  -0.00000  -0.00550
 242        6D-2        0.00000  -0.00000   0.00000   0.00000   0.00149
 243 12  C  1S          0.00000   0.00000   0.00000   0.00000  -0.00658
 244        2S          0.00000   0.00000   0.00000   0.00000  -0.01122
 245        2PX         0.00000   0.00000   0.00000   0.00000   0.00079
 246        2PY         0.00000   0.00000   0.00000   0.00000  -0.01042
 247        2PZ        -0.01856  -0.00714   0.10669   0.04817   0.00000
 248        3S         -0.00000  -0.00000  -0.00000  -0.00000   0.03885
 249        3PX         0.00000   0.00000  -0.00000  -0.00000   0.00378
 250        3PY         0.00000   0.00000   0.00000   0.00000  -0.01439
 251        3PZ        -0.02988  -0.00503   0.16841   0.08149   0.00000
 252        4S          0.00000  -0.00000  -0.00000  -0.00000   0.13797
 253        4PX         0.00000   0.00000   0.00000   0.00000  -0.14396
 254        4PY         0.00000   0.00000  -0.00000   0.00000  -0.08429
 255        4PZ        -0.03785  -0.05474   0.32368   0.12277   0.00000
 256        5S         -0.00000  -0.00000  -0.00011  -0.00009   5.22432
 257        5PX        -0.00000   0.00001  -0.00000  -0.00000  -0.57501
 258        5PY        -0.00000  -0.00000   0.00006   0.00004  -3.73573
 259        5PZ         0.00002  -0.27395   0.42272   0.13057   0.00000
 260        6D 0       -0.00000  -0.00000   0.00000   0.00000  -0.00837
 261        6D+1       -0.02625   0.01393  -0.00592  -0.01458  -0.00000
 262        6D-1        0.01612   0.02428   0.01368  -0.01926   0.00000
 263        6D+2        0.00000  -0.00000  -0.00000   0.00000  -0.00459
 264        6D-2        0.00000   0.00000   0.00000   0.00000  -0.00251
 265 13  C  1S          0.00000   0.00000  -0.00000   0.00000  -0.00619
 266        2S          0.00000   0.00000  -0.00000   0.00000  -0.01065
 267        2PX        -0.00000  -0.00000   0.00000   0.00000  -0.00221
 268        2PY         0.00000   0.00000  -0.00000  -0.00000   0.00974
 269        2PZ        -0.08968  -0.07384   0.10196  -0.07269   0.00000
 270        3S         -0.00000  -0.00000  -0.00000  -0.00000   0.04234
 271        3PX        -0.00000  -0.00000   0.00000   0.00000  -0.00300
 272        3PY         0.00000   0.00000  -0.00000  -0.00000   0.01420
 273        3PZ        -0.14449  -0.11445   0.15978  -0.11855   0.00000
 274        4S         -0.00000  -0.00000   0.00000  -0.00000  -0.00675
 275        4PX        -0.00000  -0.00000   0.00000   0.00000  -0.11671
 276        4PY         0.00000   0.00000  -0.00000   0.00000   0.00088
 277        4PZ        -0.18859  -0.19243   0.30495  -0.19998   0.00000
 278        5S         -0.00000  -0.00000   0.00008   0.00005  -3.96920
 279        5PX         0.00000  -0.00001   0.00002   0.00002  -1.01203
[...]
 194        6D 0        0.00833
 195        6D+1        0.00843
 196        6D-1        0.01219
 197        6D+2        0.01207
 198        6D-2        0.01353
 199 10  C  1S          1.10550
 200        2S          0.88523
 201        2PX         0.24232
 202        2PY         0.24069
 203        2PZ         0.11392
 204        3S          0.80069
 205        3PX         0.55227
 206        3PY         0.55020
 207        3PZ         0.30902
 208        4S          0.41189
 209        4PX         0.15656
 210        4PY         0.34612
 211        4PZ         0.25601
 212        5S          0.03489
 213        5PX        -0.38633
 214        5PY         0.19919
 215        5PZ         0.04216
 216        6D 0        0.00298
 217        6D+1        0.01277
 218        6D-1        0.00356
 219        6D+2        0.02115
 220        6D-2        0.01516
 221 11  C  1S          1.10532
 222        2S          0.88557
 223        2PX         0.23101
 224        2PY         0.23408
 225        2PZ         0.15269
 226        3S          0.76750
 227        3PX         0.53259
 228        3PY         0.53133
 229        3PZ         0.40184
 230        4S          0.40874
 231        4PX         0.26928
 232        4PY         0.21840
 233        4PZ         0.32685
 234        5S          0.13510
 235        5PX        -0.28421
 236        5PY         0.62965
 237        5PZ         0.01442
 238        6D 0        0.00392
 239        6D+1        0.00963
 240        6D-1        0.01070
 241        6D+2        0.02117
 242        6D-2        0.02072
 243 12  C  1S          1.10520
 244        2S          0.88564
 245        2PX         0.23042
 246        2PY         0.23373
 247        2PZ         0.17429
 248        3S          0.75259
 249        3PX         0.52595
 250        3PY         0.53246
 251        3PZ         0.46009
 252        4S          0.37220
 253        4PX         0.14781
 254        4PY         0.19342
 255        4PZ         0.39616
 256        5S         -0.53896
 257        5PX        -0.46875
 258        5PY         0.30546
 259        5PZ        -0.06102
 260        6D 0        0.00446
 261        6D+1        0.00735
 262        6D-1        0.00910
 263        6D+2        0.02272
 264        6D-2        0.02258
 265 13  C  1S          1.10532
 266        2S          0.88555
 267        2PX         0.23329
 268        2PY         0.23314
 269        2PZ         0.15170
 270        3S          0.76864
 271        3PX         0.53429
 272        3PY         0.53141
 273        3PZ         0.39985
 274        4S          0.40456
 275        4PX         0.26692
 276        4PY         0.22086
 277        4PZ         0.32288
 278        5S          0.14427
 279        5PX        -0.27726
 280        5PY         0.62705
 281        5PZ         0.01331
 282        6D 0        0.00390
 283        6D+1        0.00999
 284        6D-1        0.01042
 285        6D+2        0.02166
 286        6D-2        0.02064
 287 14  C  1S          1.10521
 288        2S          0.88565
 289        2PX         0.23136
 290        2PY         0.23227
 291        2PZ         0.17398
 292        3S          0.75264
 293        3PX         0.52704
 294        3PY         0.53143
 295        3PZ         0.45929
 296        4S          0.37602
 297        4PX         0.15118
 298        4PY         0.19438
 299        4PZ         0.39651
 300        5S         -0.55686
 301        5PX        -0.46728
 302        5PY         0.30770
 303        5PZ        -0.06050
 304        6D 0        0.00447
 305        6D+1        0.00731
 306        6D-1        0.00877
 307        6D+2        0.02270
 308        6D-2        0.02243
 309 15  H  1S          0.27353
 310        2S          0.46383
 311        3S          0.03352
 312        4S         -0.03160
 313        5PX         0.00334
 314        5PY         0.01480
 315        5PZ         0.00467
 316 16  H  1S          0.27355
 317        2S          0.46258
 318        3S          0.01330
 319        4S         -0.02808
 320        5PX         0.01256
 321        5PY         0.00645
 322        5PZ         0.00386
 323 17  H  1S          0.27326
 324        2S          0.46301
 325        3S          0.02011
 326        4S         -0.02830
 327        5PX         0.01191
 328        5PY         0.00654
 329        5PZ         0.00450
 330 18  H  1S          0.27354
 331        2S          0.46497
 332        3S          0.03572
 333        4S         -0.01944
 334        5PX         0.00344
 335        5PY         0.01507
 336        5PZ         0.00445
 337 19  H  1S          0.27265
 338        2S          0.45381
 339        3S          0.01700
 340        4S          0.04241
 341        5PX         0.00338
 342        5PY         0.01638
 343        5PZ         0.00289
 344 20  H  1S          0.27362
 345        2S          0.46488
 346        3S          0.03432
 347        4S         -0.01953
 348        5PX         0.00345
 349        5PY         0.01515
 350        5PZ         0.00438
 351 21  H  1S          0.27330
 352        2S          0.46288
 353        3S          0.01922
 354        4S         -0.02881
 355        5PX         0.01209
 356        5PY         0.00643
 357        5PZ         0.00448
 358 22  H  1S          0.27340
 359        2S          0.46211
 360        3S          0.01192
 361        4S         -0.02860
 362        5PX         0.01254
 363        5PY         0.00647
 364        5PZ         0.00377
 365 23  H  1S          0.27341
 366        2S          0.46366
 367        3S          0.03245
 368        4S         -0.03125
 369        5PX         0.00336
 370        5PY         0.01489
 371        5PZ         0.00463
 372 24  H  1S          0.26362
 373        2S          0.42804
 374        3S          0.01129
 375        4S          0.02739
 376        5PX         0.00341
 377        5PY         0.00770
 378        5PZ         0.00922
 379 25  H  1S          0.26362
 380        2S          0.42804
 381        3S          0.01129
 382        4S          0.02739
 383        5PX         0.00341
 384        5PY         0.00770
 385        5PZ         0.00922
          Condensed to atoms (all electrons):
               1          2          3          4          5          6
     1  C    8.616257   0.238432  -0.497642   2.018723  -0.044002  -0.096025
     2  C    0.238432   7.127086   0.310812  -1.096326  -0.007670  -0.013831
     3  C   -0.497642   0.310812   6.566702   0.793508  -0.126232   0.016362
     4  C    2.018723  -1.096326   0.793508  10.801993  -0.369487  -0.118637
     5  C   -0.044002  -0.007670  -0.126232  -0.369487  11.129993   0.765779
     6  C   -0.096025  -0.013831   0.016362  -0.118637   0.765779   6.575645
     7  C   -0.012482   0.000804  -0.013823  -0.020247  -1.077981   0.367962
     8  C    0.398894  -0.018280  -0.091343  -0.030210   1.931523  -0.549197
     9  C   -1.120038  -0.791219   0.296073  -0.247601  -0.130772   0.291991
    10  C   -1.288100   0.276009  -0.374440  -2.499354  -2.591158  -0.329305
    11  C    0.309300  -0.931911   1.042225  -0.253893  -1.500162  -0.189395
    12  C   -2.198082   1.453191  -1.423494  -1.596029  -0.376275  -0.172584
    13  C    0.226364  -0.260463  -0.148486  -1.440658  -0.331406   0.955454
    14  C   -1.046276  -0.160072  -0.225259  -0.292915  -1.634680  -1.382213
    15  H    0.368240  -0.107365   0.000101   0.027808   0.005376   0.001056
    16  H   -0.018553   0.377898  -0.016850   0.012487  -0.001475  -0.000317
    17  H   -0.026922  -0.014860   0.372702  -0.066480   0.000339   0.000392
    18  H    0.050333   0.003294  -0.084240   0.453221   0.005945  -0.005072
    19  H   -0.046261  -0.007856   0.051034  -0.063746  -0.071565   0.050196
    20  H    0.007036   0.002046  -0.005047   0.005887   0.459120  -0.084480
    21  H   -0.001310  -0.000385   0.000394   0.000279  -0.067044   0.375867
    22  H    0.000827   0.000370  -0.000325  -0.001533   0.013993  -0.018564
    23  H    0.005312  -0.002690   0.001093   0.005780   0.027384  -0.001415
    24  H    0.031880   0.013979  -0.001608  -0.012028  -0.011871  -0.001553
    25  H    0.031880   0.013979  -0.001608  -0.012027  -0.011872  -0.001553
               7          8          9         10         11         12
     1  C   -0.012482   0.398894  -1.120038  -1.288100   0.309300  -2.198082
     2  C    0.000804  -0.018280  -0.791219   0.276009  -0.931911   1.453191
     3  C   -0.013823  -0.091343   0.296073  -0.374440   1.042225  -1.423494
     4  C   -0.020247  -0.030210  -0.247601  -2.499354  -0.253893  -1.596029
     5  C   -1.077981   1.931523  -0.130772  -2.591158  -1.500162  -0.376275
     6  C    0.367962  -0.549197   0.291991  -0.329305  -0.189395  -0.172584
     7  C    7.136247   0.336442  -0.822547   0.234108  -0.231907  -0.210362
     8  C    0.336442   8.492185  -1.108758  -1.248847   0.222726  -1.093540
     9  C   -0.822547  -1.108758   9.532609   0.243770   1.546766  -1.846732
    10  C    0.234108  -1.248847   0.243770   9.069275  -0.447729   2.402309
    11  C   -0.231907   0.222726   1.546766  -0.447729  14.282517  -3.632788
    12  C   -0.210362  -1.093540  -1.846732   2.402309  -3.632788  15.897819
    13  C   -0.855914   0.314517   1.558373  -0.363459   1.075813  -4.771667
    14  C    1.293801  -2.049663  -1.975832   2.373882  -4.709725   3.093672
    15  H   -0.002546   0.005762   0.091236  -0.010076  -0.030019  -0.028307
    16  H    0.000351   0.000665   0.003485  -0.008876   0.025590  -0.031920
    17  H   -0.000392  -0.001288  -0.005836   0.020337  -0.027965   0.093755
    18  H    0.002026   0.006952  -0.024786   0.014292  -0.006659  -0.055751
    19  H   -0.007507  -0.045141   0.073705   0.420241   0.077402  -0.058017
    20  H    0.003235   0.049207  -0.023700   0.011558  -0.011669  -0.016296
    21  H   -0.018925  -0.023378  -0.005357   0.019801  -0.006214   0.005150
    22  H    0.379005  -0.018951   0.003438  -0.009256   0.003179  -0.009321
    23  H   -0.106572   0.367752   0.090530  -0.009353   0.000455   0.006988
    24  H    0.014733   0.034181   0.355732   0.005160   0.010191  -0.059405
    25  H    0.014733   0.034180   0.355733   0.005160   0.010190  -0.059406
              13         14         15         16         17         18
     1  C    0.226364  -1.046276   0.368240  -0.018553  -0.026922   0.050333
     2  C   -0.260463  -0.160072  -0.107365   0.377898  -0.014860   0.003294
     3  C   -0.148486  -0.225259   0.000101  -0.016850   0.372702  -0.084240
     4  C   -1.440658  -0.292915   0.027808   0.012487  -0.066480   0.453221
     5  C   -0.331406  -1.634680   0.005376  -0.001475   0.000339   0.005945
     6  C    0.955454  -1.382213   0.001056  -0.000317   0.000392  -0.005072
     7  C   -0.855914   1.293801  -0.002546   0.000351  -0.000392   0.002026
     8  C    0.314517  -2.049663   0.005762   0.000665  -0.001288   0.006952
     9  C    1.558373  -1.975832   0.091236   0.003485  -0.005836  -0.024786
    10  C   -0.363459   2.373882  -0.010076  -0.008876   0.020337   0.014292
    11  C    1.075813  -4.709725  -0.030019   0.025590  -0.027965  -0.006659
    12  C   -4.771667   3.093672  -0.028307  -0.031920   0.093755  -0.055751
    13  C   14.399211  -3.782230   0.003213   0.002827  -0.006217  -0.011576
    14  C   -3.782230  16.021027   0.006090  -0.008581   0.005097  -0.011445
    15  H    0.003213   0.006090   0.440134  -0.009060   0.001440   0.000146
    16  H    0.002827  -0.008581  -0.009060   0.420450  -0.006446   0.001896
    17  H   -0.006217   0.005097   0.001440  -0.006446   0.422600  -0.010169
    18  H   -0.011576  -0.011445   0.000146   0.001896  -0.010169   0.454223
    19  H    0.075339  -0.072216   0.000283  -0.000525   0.001347  -0.006275
    20  H   -0.008253  -0.051630  -0.000107   0.000014  -0.000137   0.001252
    21  H   -0.025407   0.088707   0.000013  -0.000007   0.000010  -0.000146
    22  H    0.026405  -0.032708  -0.000125   0.000007  -0.000007   0.000016
    23  H   -0.031074  -0.021958   0.000564  -0.000125   0.000014  -0.000111
    24  H    0.015844  -0.059592  -0.000887   0.000635  -0.000142   0.000190
    25  H    0.015845  -0.059591  -0.000887   0.000635  -0.000142   0.000190
              19         20         21         22         23         24
     1  C   -0.046261   0.007036  -0.001310   0.000827   0.005312   0.031880
     2  C   -0.007856   0.002046  -0.000385   0.000370  -0.002690   0.013979
     3  C    0.051034  -0.005047   0.000394  -0.000325   0.001093  -0.001608
     4  C   -0.063746   0.005887   0.000279  -0.001533   0.005780  -0.012028
     5  C   -0.071565   0.459120  -0.067044   0.013993   0.027384  -0.011871
     6  C    0.050196  -0.084480   0.375867  -0.018564  -0.001415  -0.001553
     7  C   -0.007507   0.003235  -0.018925   0.379005  -0.106572   0.014733
     8  C   -0.045141   0.049207  -0.023378  -0.018951   0.367752   0.034181
     9  C    0.073705  -0.023700  -0.005357   0.003438   0.090530   0.355732
    10  C    0.420241   0.011558   0.019801  -0.009256  -0.009353   0.005160
    11  C    0.077402  -0.011669  -0.006214   0.003179   0.000455   0.010191
    12  C   -0.058017  -0.016296   0.005150  -0.009321   0.006988  -0.059405
    13  C    0.075339  -0.008253  -0.025407   0.026405  -0.031074   0.015844
    14  C   -0.072216  -0.051630   0.088707  -0.032708  -0.021958  -0.059592
    15  H    0.000283  -0.000107   0.000013  -0.000125   0.000564  -0.000887
    16  H   -0.000525   0.000014  -0.000007   0.000007  -0.000125   0.000635
    17  H    0.001347  -0.000137   0.000010  -0.000007   0.000014  -0.000142
    18  H   -0.006275   0.001252  -0.000146   0.000016  -0.000111   0.000190
    19  H    0.441796  -0.006085   0.001459  -0.000535   0.000319   0.000566
    20  H   -0.006085   0.452078  -0.010222   0.001925   0.000203   0.000171
    21  H    0.001459  -0.010222   0.421693  -0.006592   0.001488  -0.000139
    22  H   -0.000535   0.001925  -0.006592   0.418050  -0.008933   0.000630
    23  H    0.000319   0.000203   0.001488  -0.008933   0.437374  -0.000936
    24  H    0.000566   0.000171  -0.000139   0.000630  -0.000936   0.493551
    25  H    0.000566   0.000171  -0.000138   0.000630  -0.000936  -0.078603
              25
     1  C    0.031880
     2  C    0.013979
     3  C   -0.001608
     4  C   -0.012027
     5  C   -0.011872
     6  C   -0.001553
     7  C    0.014733
     8  C    0.034180
     9  C    0.355733
    10  C    0.005160
    11  C    0.010190
    12  C   -0.059406
    13  C    0.015845
    14  C   -0.059591
    15  H   -0.000887
    16  H    0.000635
    17  H   -0.000142
    18  H    0.000190
    19  H    0.000566
    20  H    0.000171
    21  H   -0.000138
    22  H    0.000630
    23  H   -0.000936
    24  H   -0.078603
    25  H    0.493551
 Mulliken charges:
               1
     1  C    0.092217
     2  C   -0.404973
     3  C   -0.440611
     4  C    0.001484
     5  C    0.014200
     6  C   -0.436562
     7  C   -0.402241
     8  C    0.083608
     9  C   -0.340261
    10  C    0.084049
    11  C   -0.626319
    12  C    0.687093
    13  C   -0.632394
    14  C    0.694310
    15  H    0.237917
    16  H    0.255794
    17  H    0.248968
    18  H    0.222256
    19  H    0.191476
    20  H    0.223723
    21  H    0.250404
    22  H    0.258378
    23  H    0.238847
    24  H    0.249319
    25  H    0.249319
 Sum of Mulliken charges =   1.00000
 Mulliken charges with hydrogens summed into heavy atoms:
               1
     1  C    0.330133
     2  C   -0.149180
     3  C   -0.191643
     4  C    0.223740
     5  C    0.237923
     6  C   -0.186158
     7  C   -0.143863
     8  C    0.322455
     9  C    0.158377
    10  C    0.275525
    11  C   -0.626319
    12  C    0.687093
    13  C   -0.632394
    14  C    0.694310
 Electronic spatial extent (au):  <R**2>=           2868.7342
 Charge=              1.0000 electrons
 Dipole moment (field-independent basis, Debye):
    X=             -0.2718    Y=              0.1972    Z=              0.0000  Tot=              0.3358
 Quadrupole moment (field-independent basis, Debye-Ang):
   XX=            -30.8807   YY=            -56.1782   ZZ=            -84.2776
   XY=             -0.0224   XZ=             -0.0000   YZ=             -0.0000
 Traceless Quadrupole moment (field-independent basis, Debye-Ang):
   XX=             26.2315   YY=              0.9340   ZZ=            -27.1655
   XY=             -0.0224   XZ=             -0.0000   YZ=             -0.0000
 Octapole moment (field-independent basis, Debye-Ang**2):
  XXX=             -3.0241  YYY=              5.3867  ZZZ=              0.0000  XYY=             -0.6365
  XXY=             -5.1978  XXZ=             -0.0000  XZZ=             -0.3947  YZZ=             -3.1368
  YYZ=              0.0000  XYZ=              0.0001
 Hexadecapole moment (field-independent basis, Debye-Ang**3):
 XXXX=          -2127.9048 YYYY=           -611.6692 ZZZZ=            -99.7082 XXXY=              0.6221
 XXXZ=              0.0001 YYYX=             -0.2513 YYYZ=             -0.0000 ZZZX=              0.0000
 ZZZY=             -0.0000 XXYY=           -509.3294 XXZZ=           -594.4496 YYZZ=           -146.4924
 XXYZ=              0.0000 YYXZ=             -0.0001 ZZXY=             -0.1265
 N-N= 7.793183964892D+02 E-N=-2.794862234510D+03  KE= 5.373396671424D+02
 Orbital energies and kinetic energies (alpha):
                                 1                 2
  43         O                -0.547467          1.605662
  44         O                -0.523297          1.037914
  45         O                -0.466017          1.119412
  46         O                -0.459998          1.153886
  47         O                -0.444054          1.165261
  48         V                -0.261063          1.266945
  49         V                -0.147095          1.096697
  50         V                -0.141454          1.319827
  51         V                -0.128416          1.281920
  52         V                -0.111677          0.204280
 Total kinetic energy from orbitals= 5.373396671424D+02
 Unable to Open any file for archive entry.
 1\1\GINC-GADI-CPU-CLX-0393\SP\RM062X TD-FC\6-311++G(d,p)\C14H11(1+)\TS
 1578\14-Jul-2022\0\\#n M062X/6-311++G(d,p) TD SP pop=reg formcheck\\SP
 _3\\1,1\C,0,2.5040603734,1.3728615511,0.\C,0,3.7158996799,0.684671268,
 0.\C,0,3.6957006565,-0.7020320353,0.\C,0,2.4622932581,-1.4000664054,0.
 \C,0,-2.4755267419,-1.4051751457,0.\C,0,-3.6893608945,-0.7122802913,0.
 \C,0,-3.7040818712,0.6799318342,0.\C,0,-2.4930735043,1.3727384489,0.\C
 ,0,0.0025543701,1.4668954288,0.\C,0,-0.0096327452,-1.4245607755,0.\C,0
 ,1.2614193435,0.683483057,0.\C,0,1.238128732,-0.7228137136,0.\C,0,-1.2
 678514321,0.6910846163,0.\C,0,-1.2429604924,-0.724137062,0.\H,0,2.4967
 434304,2.4582838777,0.\H,0,4.6528334756,1.2251458391,0.\H,0,4.62050628
 64,-1.2660052647,0.\H,0,2.4703277924,-2.4849218342,0.\H,0,-0.008217070
 2,-2.5076315511,0.\H,0,-2.4768522076,-2.489661268,0.\H,0,-4.6192752647
 ,-1.2672362864,0.\H,0,-4.641538851,1.2207757119,0.\H,0,-2.4932965696,2
 .4580068978,0.\H,0,0.0141875256,2.1566492245,-0.8638623266\H,0,0.01421
 83012,2.1566492245,0.8638623266\\Version=ES64L-G16RevC.01\State=1-A\HF
 =-539.7586149\RMSD=5.690e-09\PG=C01 [X(C14H11)]\\@
 The archive entry for this job was punched.


 MATERIAL COPIED FROM ONE SCHOLARLY BOOK WITHOUT CREDIT COMPRISES PLAGIARISM.
 MATERIAL COPIED FROM TWO SCHOLARLY BOOKS COMPRISES AN ESSAY.
 MATERIAL COPIED FROM THREE SCHOLARLY BOOKS COMPRISES A DISSERTATION.
 MATERIAL COPIED FROM FOUR SCHOLARLY BOOKS COMPRISES A FIFTH SCHOLARLY BOOK.

                               -- C&EN, 25 FEB 1980
 FChkPn:  Coordinates translated and rotated.
 FChkPn:  Coordinates match /B/ after translation and rotation.
 Job cpu time:       0 days  1 hours  8 minutes 12.0 seconds.
 Elapsed time:       0 days  0 hours  8 minutes 37.4 seconds.
 File lengths (MBytes):  RWF=    532 Int=      0 D2E=      0 Chk=     24 Scr=      1
 Normal termination of Gaussian 16 at Thu Jul 14 13:05:13 2022.
