 Entering Gaussian System, Link 0=g16
 Initial command:
 /apps/gaussian/g16c01/g16/l1.exe "/jobfs/51125639.gadi-pbs/Gau-131472.inp" -scrdir="/jobfs/51125639.gadi-pbs/"
 Entering Link 1 = /apps/gaussian/g16c01/g16/l1.exe PID=    131473.
  
 Copyright (c) 1988-2019, Gaussian, Inc.  All Rights Reserved.
  
 This is part of the Gaussian(R) 16 program.  It is based on
 the Gaussian(R) 09 system (copyright 2009, Gaussian, Inc.),
 the Gaussian(R) 03 system (copyright 2003, Gaussian, Inc.),
 the Gaussian(R) 98 system (copyright 1998, Gaussian, Inc.),
 the Gaussian(R) 94 system (copyright 1995, Gaussian, Inc.),
 the Gaussian 92(TM) system (copyright 1992, Gaussian, Inc.),
 the Gaussian 90(TM) system (copyright 1990, Gaussian, Inc.),
 the Gaussian 88(TM) system (copyright 1988, Gaussian, Inc.),
 the Gaussian 86(TM) system (copyright 1986, Carnegie Mellon
 University), and the Gaussian 82(TM) system (copyright 1983,
 Carnegie Mellon University). Gaussian is a federally registered
 trademark of Gaussian, Inc.
  
 This software contains proprietary and confidential information,
 including trade secrets, belonging to Gaussian, Inc.
  
 This software is provided under written license and may be
 used, copied, transmitted, or stored only in accord with that
 written license.
  
 The following legend is applicable only to US Government
 contracts under FAR:
  
                    RESTRICTED RIGHTS LEGEND
  
 Use, reproduction and disclosure by the US Government is
 subject to restrictions as set forth in subparagraphs (a)
 and (c) of the Commercial Computer Software - Restricted
 Rights clause in FAR 52.227-19.
  
 Gaussian, Inc.
 340 Quinnipiac St., Bldg. 40, Wallingford CT 06492
  
  
 ---------------------------------------------------------------
 Warning -- This program may not be used in any manner that
 competes with the business of Gaussian, Inc. or will provide
 assistance to any competitor of Gaussian, Inc.  The licensee
 of this program is prohibited from giving any competitor of
 Gaussian, Inc. access to this program.  By using this program,
 the user acknowledges that Gaussian, Inc. is engaged in the
 business of creating and licensing software in the field of
 computational chemistry and represents and warrants to the
 licensee that it is not a competitor of Gaussian, Inc. and that
 it will not use this program in any manner prohibited above.
 ---------------------------------------------------------------
  

 Cite this work as:
 Gaussian 16, Revision C.01,
 M. J. Frisch, G. W. Trucks, H. B. Schlegel, G. E. Scuseria, 
 M. A. Robb, J. R. Cheeseman, G. Scalmani, V. Barone, 
 G. A. Petersson, H. Nakatsuji, X. Li, M. Caricato, A. V. Marenich, 
 J. Bloino, B. G. Janesko, R. Gomperts, B. Mennucci, H. P. Hratchian, 
 J. V. Ortiz, A. F. Izmaylov, J. L. Sonnenberg, D. Williams-Young, 
 F. Ding, F. Lipparini, F. Egidi, J. Goings, B. Peng, A. Petrone, 
 T. Henderson, D. Ranasinghe, V. G. Zakrzewski, J. Gao, N. Rega, 
 G. Zheng, W. Liang, M. Hada, M. Ehara, K. Toyota, R. Fukuda, 
 J. Hasegawa, M. Ishida, T. Nakajima, Y. Honda, O. Kitao, H. Nakai, 
 T. Vreven, K. Throssell, J. A. Montgomery, Jr., J. E. Peralta, 
 F. Ogliaro, M. J. Bearpark, J. J. Heyd, E. N. Brothers, K. N. Kudin, 
 V. N. Staroverov, T. A. Keith, R. Kobayashi, J. Normand, 
 K. Raghavachari, A. P. Rendell, J. C. Burant, S. S. Iyengar, 
 J. Tomasi, M. Cossi, J. M. Millam, M. Klene, C. Adamo, R. Cammi, 
 J. W. Ochterski, R. L. Martin, K. Morokuma, O. Farkas, 
 J. B. Foresman, and D. J. Fox, Gaussian, Inc., Wallingford CT, 2019.
 
 ******************************************
 Gaussian 16:  ES64L-G16RevC.01  3-Jul-2019
                14-Jul-2022 
 ******************************************
 %NProcShared=8
 Will use up to    8 processors via shared memory.
 %mem = 32GB
 %Chk=check_sp_10
 ----------------------------------------------
 #n M062X/6-311++G(d,p) TD SP pop=reg formcheck
 ----------------------------------------------
 1/38=1,172=1/1;
 2/12=2,17=6,18=5,40=1/2;
 3/5=4,6=6,7=1111,11=9,25=1,30=1,74=-55/1,2,3,8;
 4//1;
 5/5=2,38=5/2;
 8/6=1,10=2/1;
 9/42=1,70=2/14;
 6//1;
 99/5=1,9=1/99;
 -----
 SP_10
 -----
 Symbolic Z-matrix:
 Charge =  1 Multiplicity = 1
 C                     2.51706   1.37301   0. 
 C                     3.72976   0.69034   0. 
 C                     3.70317  -0.69018   0. 
 C                     2.44685  -1.39418   0. 
 C                    -2.49097  -1.41121   0. 
 C                    -3.68204  -0.72434   0. 
 C                    -3.69037   0.67455   0. 
 C                    -2.48044   1.37259   0. 
 C                     0.00851   1.4674    0. 
 C                    -0.03211  -1.42463   0. 
 C                     1.25395   0.67451   0. 
 C                     1.23246  -0.72131   0. 
 C                    -1.27539   0.69985   0. 
 C                    -1.24856  -0.72572   0. 
 H                     2.50076   2.45864   0. 
 H                     4.66612   1.23032   0. 
 H                     4.62201  -1.26464   0. 
 H                     2.46272  -2.47954   0. 
 H                    -0.02739  -2.50778   0. 
 H                    -2.48446  -2.49533   0. 
 H                    -4.61791  -1.26874   0. 
 H                    -4.62847   1.21575   0. 
 H                    -2.48928   2.45772   0. 
 H                     0.04729   2.15658  -0.86408 
 H                     0.04739   2.15658   0.86408 
 
                          Input orientation:                          
 ---------------------------------------------------------------------
 Center     Atomic      Atomic             Coordinates (Angstroms)
 Number     Number       Type             X           Y           Z
 ---------------------------------------------------------------------
      1          6           0        2.517058    1.373005    0.000000
      2          6           0        3.729759    0.690344    0.000000
      3          6           0        3.703169   -0.690183    0.000000
      4          6           0        2.446854   -1.394178    0.000000
      5          6           0       -2.490966   -1.411207    0.000000
      6          6           0       -3.682036   -0.724344    0.000000
      7          6           0       -3.690366    0.674546    0.000000
      8          6           0       -2.480435    1.372595    0.000000
      9          6           0        0.008515    1.467398    0.000000
     10          6           0       -0.032109   -1.424633    0.000000
     11          6           0        1.253951    0.674507    0.000000
     12          6           0        1.232456   -0.721306    0.000000
     13          6           0       -1.275391    0.699845    0.000000
     14          6           0       -1.248562   -0.725717    0.000000
     15          1           0        2.500765    2.458643    0.000000
     16          1           0        4.666118    1.230316    0.000000
     17          1           0        4.622014   -1.264641    0.000000
     18          1           0        2.462716   -2.479536    0.000000
     19          1           0       -0.027390   -2.507775    0.000000
     20          1           0       -2.484464   -2.495334    0.000000
     21          1           0       -4.617911   -1.268744    0.000000
     22          1           0       -4.628470    1.215749    0.000000
     23          1           0       -2.489275    2.457720    0.000000
     24          1           0        0.047292    2.156577   -0.864078
     25          1           0        0.047394    2.156577    0.864078
 ---------------------------------------------------------------------
                    Distance matrix (angstroms):
                    1          2          3          4          5
     1  C    0.000000
     2  C    1.391643   0.000000
     3  C    2.379833   1.380784   0.000000
     4  C    2.768074   2.447668   1.440116   0.000000
     5  C    5.729934   6.566120   6.235959   4.937849   0.000000
     6  C    6.544283   7.545598   7.385284   6.165385   1.374929
     7  C    6.246596   7.420142   7.518434   6.476503   2.406019
     8  C    4.997493   6.247558   6.518590   5.650948   2.783822
     9  C    2.510319   3.801509   4.278508   3.759537   3.812318
    10  C    3.784842   4.315643   3.806799   2.479150   2.458893
    11  C    1.443377   2.475858   2.803756   2.387986   4.286561
    12  C    2.456897   2.868672   2.470909   1.388352   3.786797
    13  C    3.851729   5.005159   5.168969   4.270837   2.436014
    14  C    4.310977   5.175800   4.951858   3.755388   1.418966
    15  H    1.085760   2.153441   3.370591   3.853198   6.316100
    16  H    2.153792   1.080897   2.148392   3.437019   7.628991
    17  H    3.374614   2.148973   1.083641   2.179014   7.114490
    18  H    3.852925   3.413728   2.177270   1.085474   5.067572
    19  H    4.640547   4.933978   4.149784   2.713298   2.696603
    20  H    6.322916   6.983202   6.445570   5.052766   1.084147
    21  H    7.608326   8.574475   8.341169   7.065879   2.131711
    22  H    7.147258   8.374726   8.546858   7.541348   3.386712
    23  H    5.122497   6.465292   6.946629   6.261189   3.868927
    24  H    2.731366   4.056727   4.713397   4.371772   4.463011
    25  H    2.731273   4.056634   4.713318   4.371716   4.463069
                    6          7          8          9         10
     6  C    0.000000
     7  C    1.398915   0.000000
     8  C    2.416816   1.396856   0.000000
     9  C    4.292307   3.782900   2.490754   0.000000
    10  C    3.716500   4.217748   3.717362   2.892316   0.000000
    11  C    5.130376   4.944317   3.799074   1.476411   2.461775
    12  C    4.914493   5.116892   4.262626   2.507679   1.446995
    13  C    2.796472   2.415107   1.380117   1.495845   2.461536
    14  C    2.433475   2.814808   2.433192   2.527844   1.402940
    15  H    6.954023   6.443066   5.098220   2.682140   4.636300
    16  H    8.573936   8.374946   7.147969   4.663634   5.396489
    17  H    8.321609   8.535579   7.576265   5.361755   4.656873
    18  H    6.390515   6.914380   6.266870   4.647730   2.708685
    19  H    4.066579   4.852274   4.590719   3.975335   1.083153
    20  H    2.137893   3.391510   3.867931   4.681687   2.675901
    21  H    1.082697   2.153304   3.397863   5.374969   4.588451
    22  H    2.158633   1.083023   2.153753   4.643808   5.300768
    23  H    3.398266   2.149960   1.085161   2.686948   4.594597
    24  H    4.791057   4.112558   2.784001   1.105939   3.684834
    25  H    4.791137   4.112651   2.784094   1.105943   3.684836
                   11         12         13         14         15
    11  C    0.000000
    12  C    1.395978   0.000000
    13  C    2.529470   2.882528   0.000000
    14  C    2.867612   2.481021   1.425815   0.000000
    15  H    2.176623   3.423548   4.165660   4.919105   0.000000
    16  H    3.457139   3.949540   5.965143   6.229727   2.489486
    17  H    3.886405   3.432830   6.215996   5.895261   4.285154
    18  H    3.377736   2.145906   4.907333   4.104810   4.938326
    19  H    3.430562   2.186020   3.441851   2.160322   5.572870
    20  H    4.901392   4.118576   3.416289   2.158472   7.028115
    21  H    6.185062   5.875924   3.879147   3.412828   8.035481
    22  H    5.907268   6.172732   3.392534   3.897829   7.236765
    23  H    4.146274   4.894638   2.136267   3.416671   4.990040
    24  H    2.097425   3.230086   2.148997   3.276200   2.618665
    25  H    2.097366   3.230048   2.149060   3.276241   2.618568
                   16         17         18         19         20
    16  H    0.000000
    17  H    2.495347   0.000000
    18  H    4.314856   2.477608   0.000000
    19  H    6.000196   4.812727   2.490266   0.000000
    20  H    8.062958   7.212256   4.947205   2.457105   0.000000
    21  H    9.614494   9.239926   7.183404   4.754795   2.460918
    22  H    9.294599   9.577253   7.996252   5.919000   4.285895
    23  H    7.259902   8.026606   6.992761   5.542293   4.953056
    24  H    4.789379   5.777495   5.298533   4.744301   5.366256
    25  H    4.789280   5.777414   5.298486   4.744303   5.366304
                   21         22         23         24         25
    21  H    0.000000
    22  H    2.484516   0.000000
    23  H    4.291576   2.473589   0.000000
    24  H    5.851801   4.847116   2.696570   0.000000
    25  H    5.851883   4.847215   2.696666   1.728156   0.000000
 Stoichiometry    C14H11(1+)
 Framework group  C1[X(C14H11)]
 Deg. of freedom    69
 Full point group                 C1      NOp   1
 Largest Abelian subgroup         C1      NOp   1
 Largest concise Abelian subgroup C1      NOp   1
                         Standard orientation:                         
 ---------------------------------------------------------------------
 Center     Atomic      Atomic             Coordinates (Angstroms)
 Number     Number       Type             X           Y           Z
 ---------------------------------------------------------------------
      1          6           0        2.524399   -1.349721    0.000000
      2          6           0        3.733121   -0.660040    0.000000
      3          6           0        3.698526    0.720310    0.000000
      4          6           0        2.438151    1.417009    0.000000
      5          6           0       -2.499685    1.405406    0.000000
      6          6           0       -3.686753    0.711648    0.000000
      7          6           0       -3.686971   -0.687267    0.000000
      8          6           0       -2.473013   -1.378288    0.000000
      9          6           0        0.016445   -1.458658    0.000000
     10          6           0       -0.040947    1.433089    0.000000
     11          6           0        1.257263   -0.658558    0.000000
     12          6           0        1.227674    0.737106    0.000000
     13          6           0       -1.271890   -0.698563    0.000000
     14          6           0       -1.253327    0.727131    0.000000
     15          1           0        2.514401   -2.435435    0.000000
     16          1           0        4.672595   -1.194573    0.000000
     17          1           0        4.614025    1.300086    0.000000
     18          1           0        2.447719    2.502440    0.000000
     19          1           0       -0.042509    2.516240    0.000000
     20          1           0       -2.499469    2.489553    0.000000
     21          1           0       -4.625768    1.250613    0.000000
     22          1           0       -4.621921   -1.233900    0.000000
     23          1           0       -2.475561   -2.463446    0.000000
     24          1           0        0.059217   -2.147601    0.864078
     25          1           0        0.059320   -2.147600   -0.864078
 ---------------------------------------------------------------------
 Rotational constants (GHZ):           2.1249763           0.4425068           0.3670411
 Standard basis: 6-311++G(d,p) (5D, 7F)
 There are   399 symmetry adapted cartesian basis functions of A   symmetry.
 There are   385 symmetry adapted basis functions of A   symmetry.
   385 basis functions,   603 primitive gaussians,   399 cartesian basis functions
    47 alpha electrons       47 beta electrons
       nuclear repulsion energy       779.3249914393 Hartrees.
 NAtoms=   25 NActive=   25 NUniq=   25 SFac= 1.00D+00 NAtFMM=   60 NAOKFM=F Big=F
 Integral buffers will be    131072 words long.
 Regular integral format.
 Two-electron integral symmetry is turned on.
 One-electron integrals computed using PRISM.
 NBasis=   385 RedAO= T EigKep=  1.15D-06  NBF=   385
 NBsUse=   379 1.00D-06 EigRej=  8.65D-07 NBFU=   379
 ExpMin= 3.60D-02 ExpMax= 4.56D+03 ExpMxC= 6.82D+02 IAcc=3 IRadAn=         5 AccDes= 0.00D+00
 Harris functional with IExCor= 1009 and IRadAn=       5 diagonalized for initial guess.
 HarFok:  IExCor= 1009 AccDes= 0.00D+00 IRadAn=         5 IDoV= 1 UseB2=F ITyADJ=14
 ICtDFT=  3500011 ScaDFX=  1.000000  1.000000  1.000000  1.000000
 FoFCou: FMM=F IPFlag=           0 FMFlag=      100000 FMFlg1=           0
         NFxFlg=           0 DoJE=T BraDBF=F KetDBF=T FulRan=T
         wScrn=  0.000000 ICntrl=       500 IOpCl=  0 I1Cent=   200000004 NGrid=           0
         NMat0=    1 NMatS0=      1 NMatT0=    0 NMatD0=    1 NMtDS0=    0 NMtDT0=    0
 Petite list used in FoFCou.
 Requested convergence on RMS density matrix=1.00D-08 within 128 cycles.
 Requested convergence on MAX density matrix=1.00D-06.
 Requested convergence on             energy=1.00D-06.
 No special actions if energy rises.
 SCF Done:  E(RM062X) =  -539.754584863     A.U. after   15 cycles
            NFock= 15  Conv=0.90D-08     -V/T= 2.0045
 DoSCS=F DFT=T ScalE2(SS,OS)=  1.000000  1.000000
 ExpMin= 3.60D-02 ExpMax= 4.56D+03 ExpMxC= 6.82D+02 IAcc=3 IRadAn=         5 AccDes= 0.00D+00
 HarFok:  IExCor=  205 AccDes= 0.00D+00 IRadAn=         5 IDoV=-2 UseB2=F ITyADJ=14
 ICtDFT= 12500011 ScaDFX=  1.000000  1.000000  1.000000  1.000000
 Range of M.O.s used for correlation:    15   379
 NBasis=   385 NAE=    47 NBE=    47 NFC=    14 NFV=     0
 NROrb=    365 NOA=    33 NOB=    33 NVA=   332 NVB=   332

 **** Warning!!: The largest alpha MO coefficient is  0.13665933D+03

 Orbital symmetries:
       Occupied  (A) (A) (A) (A) (A) (A) (A) (A) (A) (A) (A) (A)
                 (A) (A) (A) (A) (A) (A) (A) (A) (A) (A) (A) (A)
                 (A) (A) (A) (A) (A) (A) (A) (A) (A) (A) (A) (A)
                 (A) (A) (A) (A) (A) (A) (A) (A) (A) (A) (A)
       Virtual   (A) (A) (A) (A) (A) (A) (A) (A) (A) (A) (A) (A)
                 (A) (A) (A) (A) (A) (A) (A) (A) (A) (A) (A) (A)
                 (A) (A) (A) (A) (A) (A) (A) (A) (A) (A) (A) (A)
                 (A) (A) (A) (A) (A) (A) (A) (A) (A) (A) (A) (A)
                 (A) (A) (A) (A) (A) (A) (A) (A) (A) (A) (A) (A)
                 (A) (A) (A) (A) (A) (A) (A) (A) (A) (A) (A) (A)
                 (A) (A) (A) (A) (A) (A) (A) (A) (A) (A) (A) (A)
                 (A) (A) (A) (A) (A) (A) (A) (A) (A) (A) (A) (A)
                 (A) (A) (A) (A) (A) (A) (A) (A) (A) (A) (A) (A)
                 (A) (A) (A) (A) (A) (A) (A) (A) (A) (A) (A) (A)
                 (A) (A) (A) (A) (A) (A) (A) (A) (A) (A) (A) (A)
                 (A) (A) (A) (A) (A) (A) (A) (A) (A) (A) (A) (A)
                 (A) (A) (A) (A) (A) (A) (A) (A) (A) (A) (A) (A)
                 (A) (A) (A) (A) (A) (A) (A) (A) (A) (A) (A) (A)
                 (A) (A) (A) (A) (A) (A) (A) (A) (A) (A) (A) (A)
                 (A) (A) (A) (A) (A) (A) (A) (A) (A) (A) (A) (A)
                 (A) (A) (A) (A) (A) (A) (A) (A) (A) (A) (A) (A)
                 (A) (A) (A) (A) (A) (A) (A) (A) (A) (A) (A) (A)
                 (A) (A) (A) (A) (A) (A) (A) (A) (A) (A) (A) (A)
                 (A) (A) (A) (A) (A) (A) (A) (A) (A) (A) (A) (A)
                 (A) (A) (A) (A) (A) (A) (A) (A) (A) (A) (A) (A)
                 (A) (A) (A) (A) (A) (A) (A) (A) (A) (A) (A) (A)
                 (A) (A) (A) (A) (A) (A) (A) (A) (A) (A) (A) (A)
                 (A) (A) (A) (A) (A) (A) (A) (A) (A) (A) (A) (A)
                 (A) (A) (A) (A) (A) (A) (A) (A) (A) (A) (A) (A)
                 (A) (A) (A) (A) (A) (A) (A) (A) (A) (A) (A) (A)
                 (A) (A) (A) (A) (A) (A) (A) (A) (A) (A) (A) (A)
                 (A) (A) (A) (A) (A) (A) (A) (A)
    12 initial guesses have been made.
 Convergence on wavefunction:    0.001000000000000
 Iteration     1 Dimension    12 NMult     0 NNew     12
 CISAX will form    12 AO SS matrices at one time.
 New state      2 was old state      3
 New state      3 was old state      2
 Iteration     2 Dimension    18 NMult    12 NNew      6
 Iteration     3 Dimension    24 NMult    18 NNew      6
 Iteration     4 Dimension    30 NMult    24 NNew      6
 Iteration     5 Dimension    36 NMult    30 NNew      6
 Iteration     6 Dimension    42 NMult    36 NNew      6
 ***********************************************************************
 Excited states from <AA,BB:AA,BB> singles matrix:
 ***********************************************************************
 
 Ground to excited state transition densities written to RWF  633
 Ground to excited state transition electric dipole moments (Au):
       state          X           Y           Z        Dip. S.      Osc.
         1         0.0513     -0.5615     -0.0000      0.3179      0.0210
         2         0.5032      0.3125      0.0000      0.3508      0.0288
         3         2.5021     -0.0545      0.0000      6.2636      0.5334
 Ground to excited state transition velocity dipole moments (Au):
       state          X           Y           Z        Dip. S.      Osc.
         1        -0.0018      0.0625      0.0000      0.0039      0.0264
         2        -0.0558     -0.0416      0.0000      0.0048      0.0263
         3        -0.3229      0.0074     -0.0000      0.1043      0.5445
 Ground to excited state transition magnetic dipole moments (Au):
       state          X           Y           Z
         1         0.0000      0.0000      0.1631
         2        -0.0000     -0.0000      1.1069
         3        -0.0000      0.0000      0.9279
 Ground to excited state transition velocity quadrupole moments (Au):
       state          XX          YY          ZZ          XY          XZ          YZ
         1         0.2496      0.0283     -0.0084      0.0783      0.0000     -0.0000
         2        -0.1476     -0.0243      0.0052      0.3045     -0.0000      0.0000
         3         0.1163     -0.0023     -0.0013      0.0743     -0.0000      0.0000
 <0|del|b> * <b|rxdel|0> + <0|del|b> * <b|delr+rdel|0>
 Rotatory Strengths (R) in cgs (10**-40 erg-esu-cm/Gauss)
       state          XX          YY          ZZ    R(velocity)    E-M Angle
         1        -0.0000      0.0002      0.0010      0.0004       90.00
         2         0.0001      0.0001      0.0011      0.0004       90.00
         3        -0.0045     -0.0060      0.0023     -0.0027       90.00
 1/2[<0|r|b>*<b|rxdel|0> + (<0|rxdel|b>*<b|r|0>)*]
 Rotatory Strengths (R) in cgs (10**-40 erg-esu-cm/Gauss)
       state          XX          YY          ZZ     R(length)
         1        -0.0001      0.0003      0.0001      0.0001
         2         0.0007      0.0006     -0.0004      0.0003
         3         0.0001      0.0001     -0.0020     -0.0006
  1/2[<0|del|b>*<b|r|0> + (<0|r|b>*<b|del|0>)*] (Au)
       state          X           Y           Z        Dip. S.   Osc.(frdel)
         1        -0.0001     -0.0351     -0.0000      0.0352      0.0235
         2        -0.0281     -0.0130      0.0000      0.0411      0.0274
         3        -0.8080     -0.0004     -0.0000      0.8084      0.5389

 Excitation energies and oscillator strengths:
 
 Excited State   1:      Singlet-A      2.6945 eV  460.14 nm  f=0.0210  <S**2>=0.000
      47 -> 48         0.70351
 This state for optimization and/or second-order correction.
 Total Energy, E(TD-HF/TD-DFT) =  -539.655564198    
 Copying the excited state density for this state as the 1-particle RhoCI density.
 
 Excited State   2:      Singlet-A      3.3504 eV  370.05 nm  f=0.0288  <S**2>=0.000
      45 -> 48         0.63199
      46 -> 48         0.30338
 
 Excited State   3:      Singlet-A      3.4761 eV  356.67 nm  f=0.5334  <S**2>=0.000
      45 -> 48        -0.30632
      46 -> 48         0.62796
 SavETr:  write IOETrn=   770 NScale= 10 NData=  16 NLR=1 NState=    3 LETran=      64.

 **********************************************************************

            Population analysis using the SCF Density.

 **********************************************************************

 Orbital symmetries:
       Occupied  (A) (A) (A) (A) (A) (A) (A) (A) (A) (A) (A) (A)
                 (A) (A) (A) (A) (A) (A) (A) (A) (A) (A) (A) (A)
                 (A) (A) (A) (A) (A) (A) (A) (A) (A) (A) (A) (A)
                 (A) (A) (A) (A) (A) (A) (A) (A) (A) (A) (A)
       Virtual   (A) (A) (A) (A) (A) (A) (A) (A) (A) (A) (A) (A)
                 (A) (A) (A) (A) (A) (A) (A) (A) (A) (A) (A) (A)
                 (A) (A) (A) (A) (A) (A) (A) (A) (A) (A) (A) (A)
                 (A) (A) (A) (A) (A) (A) (A) (A) (A) (A) (A) (A)
                 (A) (A) (A) (A) (A) (A) (A) (A) (A) (A) (A) (A)
                 (A) (A) (A) (A) (A) (A) (A) (A) (A) (A) (A) (A)
                 (A) (A) (A) (A) (A) (A) (A) (A) (A) (A) (A) (A)
                 (A) (A) (A) (A) (A) (A) (A) (A) (A) (A) (A) (A)
                 (A) (A) (A) (A) (A) (A) (A) (A) (A) (A) (A) (A)
                 (A) (A) (A) (A) (A) (A) (A) (A) (A) (A) (A) (A)
                 (A) (A) (A) (A) (A) (A) (A) (A) (A) (A) (A) (A)
                 (A) (A) (A) (A) (A) (A) (A) (A) (A) (A) (A) (A)
                 (A) (A) (A) (A) (A) (A) (A) (A) (A) (A) (A) (A)
                 (A) (A) (A) (A) (A) (A) (A) (A) (A) (A) (A) (A)
                 (A) (A) (A) (A) (A) (A) (A) (A) (A) (A) (A) (A)
                 (A) (A) (A) (A) (A) (A) (A) (A) (A) (A) (A) (A)
                 (A) (A) (A) (A) (A) (A) (A) (A) (A) (A) (A) (A)
                 (A) (A) (A) (A) (A) (A) (A) (A) (A) (A) (A) (A)
                 (A) (A) (A) (A) (A) (A) (A) (A) (A) (A) (A) (A)
                 (A) (A) (A) (A) (A) (A) (A) (A) (A) (A) (A) (A)
                 (A) (A) (A) (A) (A) (A) (A) (A) (A) (A) (A) (A)
                 (A) (A) (A) (A) (A) (A) (A) (A) (A) (A) (A) (A)
                 (A) (A) (A) (A) (A) (A) (A) (A) (A) (A) (A) (A)
                 (A) (A) (A) (A) (A) (A) (A) (A) (A) (A) (A) (A)
                 (A) (A) (A) (A) (A) (A) (A) (A) (A) (A) (A) (A)
                 (A) (A) (A) (A) (A) (A) (A) (A) (A) (A) (A) (A)
                 (A) (A) (A) (A) (A) (A) (A) (A) (A) (A) (A) (A)
                 (A) (A) (A) (A) (A) (A) (A) (A)
 The electronic state is 1-A.
 Alpha  occ. eigenvalues --  -10.77712 -10.73782 -10.72899 -10.72894 -10.72156
 Alpha  occ. eigenvalues --  -10.72011 -10.71850 -10.71078 -10.71050 -10.70274
 Alpha  occ. eigenvalues --  -10.70258 -10.69963 -10.69888 -10.69508  -1.16285
 Alpha  occ. eigenvalues --   -1.12265  -1.06758  -1.05648  -1.01163  -1.00200
 Alpha  occ. eigenvalues --   -0.95545  -0.90928  -0.86304  -0.85764  -0.83721
 Alpha  occ. eigenvalues --   -0.78282  -0.75938  -0.74244  -0.69684  -0.69168
 Alpha  occ. eigenvalues --   -0.68305  -0.67997  -0.67996  -0.65031  -0.64171
 Alpha  occ. eigenvalues --   -0.62706  -0.61648  -0.60234  -0.59240  -0.59161
 Alpha  occ. eigenvalues --   -0.56835  -0.55380  -0.54442  -0.52331  -0.47043
 Alpha  occ. eigenvalues --   -0.46045  -0.43947
 Alpha virt. eigenvalues --   -0.26123  -0.14724  -0.14112  -0.12829  -0.11175
 Alpha virt. eigenvalues --   -0.10088  -0.09249  -0.07980  -0.07969  -0.07486
 Alpha virt. eigenvalues --   -0.07202  -0.07154  -0.05660  -0.05586  -0.05368
 Alpha virt. eigenvalues --   -0.03832  -0.03638  -0.03293  -0.03159  -0.02164
 Alpha virt. eigenvalues --   -0.01345  -0.00945   0.00175   0.00574   0.00629
 Alpha virt. eigenvalues --    0.01063   0.01500   0.01913   0.02131   0.02297
 Alpha virt. eigenvalues --    0.02436   0.02653   0.02698   0.03222   0.03430
 Alpha virt. eigenvalues --    0.04218   0.04477   0.04703   0.04997   0.05346
 Alpha virt. eigenvalues --    0.06033   0.06244   0.06570   0.07030   0.07252
 Alpha virt. eigenvalues --    0.07873   0.08027   0.08322   0.08551   0.08880
 Alpha virt. eigenvalues --    0.09467   0.09527   0.09899   0.10689   0.10880
 Alpha virt. eigenvalues --    0.11105   0.12059   0.12205   0.12677   0.12975
 Alpha virt. eigenvalues --    0.13414   0.13513   0.13961   0.14220   0.15846
 Alpha virt. eigenvalues --    0.16265   0.16358   0.17308   0.17463   0.17712
 Alpha virt. eigenvalues --    0.18036   0.18973   0.19296   0.19555   0.19765
 Alpha virt. eigenvalues --    0.21432   0.21525   0.22535   0.23021   0.23484
 Alpha virt. eigenvalues --    0.23808   0.24528   0.25306   0.26840   0.27471
 Alpha virt. eigenvalues --    0.28710   0.29239   0.29777   0.31253   0.35470
 Alpha virt. eigenvalues --    0.36134   0.38127   0.39207   0.41029   0.41353
 Alpha virt. eigenvalues --    0.41815   0.42193   0.43019   0.43574   0.44389
 Alpha virt. eigenvalues --    0.44599   0.44887   0.45841   0.46110   0.47932
 Alpha virt. eigenvalues --    0.48461   0.48738   0.49071   0.50523   0.51006
 Alpha virt. eigenvalues --    0.51075   0.51872   0.52137   0.52601   0.54014
 Alpha virt. eigenvalues --    0.54098   0.54518   0.55633   0.55852   0.57531
 Alpha virt. eigenvalues --    0.58185   0.58806   0.61401   0.62113   0.62236
 Alpha virt. eigenvalues --    0.63016   0.63433   0.64682   0.65040   0.67216
 Alpha virt. eigenvalues --    0.70200   0.70414   0.70919   0.72361   0.72766
 Alpha virt. eigenvalues --    0.75571   0.75871   0.76316   0.76735   0.77110
 Alpha virt. eigenvalues --    0.77750   0.77906   0.78164   0.79940   0.80268
 Alpha virt. eigenvalues --    0.81117   0.81535   0.82227   0.82840   0.85091
 Alpha virt. eigenvalues --    0.86964   0.88031   0.88288   0.89111   0.90498
 Alpha virt. eigenvalues --    0.90902   0.91313   0.93173   0.94423   0.96279
 Alpha virt. eigenvalues --    0.96654   1.00236   1.01122   1.01462   1.02667
 Alpha virt. eigenvalues --    1.03060   1.03279   1.04652   1.05680   1.08625
 Alpha virt. eigenvalues --    1.19456   1.22945   1.23966   1.24507   1.28470
 Alpha virt. eigenvalues --    1.29412   1.31965   1.34129   1.35656   1.35819
 Alpha virt. eigenvalues --    1.39160   1.39676   1.40647   1.42845   1.43230
 Alpha virt. eigenvalues --    1.43273   1.44056   1.45897   1.46139   1.46454
 Alpha virt. eigenvalues --    1.47499   1.47766   1.51461   1.53403   1.55249
 Alpha virt. eigenvalues --    1.55484   1.56079   1.56354   1.57577   1.61082
 Alpha virt. eigenvalues --    1.62921   1.63309   1.64036   1.65921   1.67957
 Alpha virt. eigenvalues --    1.68083   1.68493   1.69568   1.74121   1.75608
 Alpha virt. eigenvalues --    1.76790   1.77955   1.79408   1.79709   1.80788
 Alpha virt. eigenvalues --    1.82613   1.82854   1.83305   1.83658   1.83901
 Alpha virt. eigenvalues --    1.84250   1.85352   1.86081   1.88174   1.91115
 Alpha virt. eigenvalues --    1.91869   1.93664   1.95143   1.97363   1.97789
 Alpha virt. eigenvalues --    1.99544   2.01934   2.04007   2.06925   2.11352
 Alpha virt. eigenvalues --    2.11700   2.13885   2.14765   2.18552   2.20686
 Alpha virt. eigenvalues --    2.22233   2.28003   2.29596   2.33853   2.34293
 Alpha virt. eigenvalues --    2.35689   2.38203   2.39344   2.41773   2.44256
 Alpha virt. eigenvalues --    2.45666   2.45670   2.48701   2.52395   2.53064
 Alpha virt. eigenvalues --    2.54124   2.56719   2.57756   2.58420   2.59353
 Alpha virt. eigenvalues --    2.59914   2.61242   2.61894   2.63518   2.63547
 Alpha virt. eigenvalues --    2.64753   2.64963   2.65141   2.65598   2.67451
 Alpha virt. eigenvalues --    2.67758   2.70523   2.70788   2.73212   2.74653
 Alpha virt. eigenvalues --    2.76125   2.77506   2.79509   2.82167   2.82983
 Alpha virt. eigenvalues --    2.83930   2.86048   2.91784   2.96826   2.99125
 Alpha virt. eigenvalues --    2.99808   3.04225   3.08578   3.10406   3.13068
 Alpha virt. eigenvalues --    3.19760   3.21585   3.25604   3.27852   3.29969
 Alpha virt. eigenvalues --    3.31929   3.33815   3.43142   3.45405   3.45942
 Alpha virt. eigenvalues --    3.47323   3.48894   3.55809   3.65832   3.66186
 Alpha virt. eigenvalues --    3.67180   3.93393   3.93638   3.94892   3.95889
 Alpha virt. eigenvalues --    4.03394   4.06095   4.07108   4.11966   4.34917
 Alpha virt. eigenvalues --    4.60182   4.68679   4.70615  23.45034  23.59737
 Alpha virt. eigenvalues --   23.79637  23.81819  23.84620  23.88340  23.90888
 Alpha virt. eigenvalues --   23.94157  23.94707  23.96256  24.01761  24.04088
 Alpha virt. eigenvalues --   24.09868  24.11268
     Molecular Orbital Coefficients:
                          43        44        45        46        47
                           O         O         O         O         O
     Eigenvalues --    -0.54442  -0.52331  -0.47043  -0.46045  -0.43947
   1 1   C  1S         -0.00301  -0.00000   0.00000   0.00000  -0.00000
   2        2S         -0.00497  -0.00000   0.00000   0.00000  -0.00000
   3        2PX        -0.08979  -0.00000   0.00000   0.00000  -0.00000
   4        2PY         0.02816  -0.00000  -0.00000  -0.00000   0.00000
   5        2PZ        -0.00000   0.07563   0.04946  -0.05846   0.12105
   6        3S          0.01583   0.00000  -0.00000  -0.00000   0.00000
   7        3PX        -0.12907  -0.00000   0.00000   0.00000  -0.00000
   8        3PY         0.04058  -0.00000  -0.00000  -0.00000   0.00000
   9        3PZ        -0.00000   0.12145   0.08016  -0.09482   0.19822
  10        4S         -0.02028   0.00000  -0.00000  -0.00000  -0.00000
  11        4PX        -0.06919   0.00000   0.00000   0.00000  -0.00000
  12        4PY         0.03013   0.00000  -0.00000  -0.00000  -0.00000
  13        4PZ        -0.00000   0.09992   0.07025  -0.08552   0.17958
  14        5S          0.11583  -0.00000  -0.00004  -0.00002  -0.00002
  15        5PX         0.12049   0.00000   0.00004   0.00003   0.00003
  16        5PY         0.02055   0.00000   0.00000   0.00000   0.00000
  17        5PZ        -0.00000  -0.00080   0.02854  -0.00733   0.03867
  18        6D 0        0.00027   0.00000  -0.00000  -0.00000  -0.00000
  19        6D+1        0.00000   0.00835  -0.00368  -0.01491  -0.00952
  20        6D-1       -0.00000   0.00782   0.00249  -0.00427   0.00714
  21        6D+2        0.00761  -0.00000   0.00000   0.00000  -0.00000
  22        6D-2       -0.01032  -0.00000   0.00000   0.00000  -0.00000
  23 2   C  1S          0.00274   0.00000  -0.00000  -0.00000   0.00000
  24        2S          0.00456   0.00000  -0.00000  -0.00000   0.00000
  25        2PX         0.07395   0.00000  -0.00000  -0.00000   0.00000
  26        2PY        -0.02312   0.00000  -0.00000  -0.00000   0.00000
  27        2PZ         0.00000   0.10261   0.00919  -0.10957   0.00508
  28        3S         -0.01554  -0.00000   0.00000   0.00000  -0.00000
  29        3PX         0.10708   0.00000  -0.00000  -0.00000   0.00000
  30        3PY        -0.03312   0.00000  -0.00000  -0.00000   0.00000
  31        3PZ         0.00000   0.16886   0.01573  -0.18007   0.00869
  32        4S          0.00947  -0.00000   0.00000   0.00000   0.00000
  33        4PX         0.08262   0.00000  -0.00000  -0.00000  -0.00000
  34        4PY        -0.03081   0.00000   0.00000   0.00000   0.00000
  35        4PZ         0.00000   0.12621   0.01142  -0.15181   0.00783
  36        5S         -0.11671   0.00000   0.00000  -0.00000   0.00000
  37        5PX         0.04992  -0.00000   0.00000   0.00000   0.00000
  38        5PY         0.07049   0.00000   0.00002   0.00002   0.00002
  39        5PZ        -0.00000   0.00261  -0.01816  -0.00605  -0.00296
  40        6D 0        0.00018   0.00000   0.00000   0.00000  -0.00000
  41        6D+1        0.00000  -0.00954  -0.00467   0.00713  -0.01177
  42        6D-1        0.00000   0.00571  -0.00699  -0.00430  -0.02032
  43        6D+2        0.00904   0.00000  -0.00000  -0.00000   0.00000
  44        6D-2       -0.01786  -0.00000   0.00000   0.00000  -0.00000
  45 3   C  1S          0.00020  -0.00000  -0.00000   0.00000   0.00000
  46        2S          0.00033  -0.00000  -0.00000   0.00000   0.00000
  47        2PX        -0.06918  -0.00000   0.00000   0.00000  -0.00000
  48        2PY         0.03110  -0.00000  -0.00000  -0.00000  -0.00000
  49        2PZ         0.00000   0.07831  -0.03750  -0.06178  -0.11570
  50        3S          0.00110   0.00000   0.00000   0.00000  -0.00000
  51        3PX        -0.10001  -0.00000   0.00000   0.00000  -0.00000
  52        3PY         0.04437  -0.00000  -0.00000  -0.00000  -0.00000
  53        3PZ         0.00000   0.12728  -0.06183  -0.09986  -0.19015
  54        4S         -0.02481   0.00000  -0.00000  -0.00000  -0.00000
  55        4PX        -0.06688  -0.00000   0.00000   0.00000   0.00000
  56        4PY         0.01615  -0.00000   0.00000   0.00000   0.00000
  57        4PZ         0.00000   0.09884  -0.05356  -0.08707  -0.17038
  58        5S          0.02459  -0.00001  -0.00004  -0.00003  -0.00003
  59        5PX        -0.03716   0.00000   0.00000  -0.00000  -0.00000
  60        5PY         0.06159   0.00000   0.00001   0.00001   0.00001
  61        5PZ        -0.00000   0.00698   0.01408  -0.01647  -0.01475
  62        6D 0       -0.00001  -0.00000   0.00000   0.00000  -0.00000
  63        6D+1       -0.00000  -0.00332   0.00550  -0.00340   0.01188
  64        6D-1        0.00000  -0.01138  -0.00357   0.01484  -0.00602
  65        6D+2        0.00318  -0.00000   0.00000  -0.00000  -0.00000
  66        6D-2       -0.01381  -0.00000   0.00000   0.00000  -0.00000
  67 4   C  1S         -0.00247   0.00000  -0.00000   0.00000   0.00000
  68        2S         -0.00411   0.00000  -0.00000   0.00000   0.00000
  69        2PX         0.07051   0.00000  -0.00000  -0.00000   0.00000
  70        2PY        -0.03040   0.00000  -0.00000   0.00000   0.00000
  71        2PZ         0.00000   0.01497  -0.05615   0.04796  -0.12105
  72        3S          0.01255  -0.00000   0.00000   0.00000  -0.00000
  73        3PX         0.10044   0.00000  -0.00000  -0.00000   0.00000
  74        3PY        -0.04381   0.00000  -0.00000   0.00000   0.00000
  75        3PZ         0.00000   0.02338  -0.09245   0.07769  -0.19736
  76        4S          0.03141  -0.00000   0.00000   0.00000   0.00000
  77        4PX         0.07345   0.00000  -0.00000  -0.00000   0.00000
  78        4PY        -0.04714   0.00000  -0.00000  -0.00000  -0.00000
  79        4PZ         0.00000   0.02699  -0.07563   0.06053  -0.19276
  80        5S          0.18473  -0.00001   0.00000   0.00000   0.00001
  81        5PX        -0.11527   0.00000  -0.00001  -0.00001  -0.00001
  82        5PY        -0.03681   0.00000  -0.00000  -0.00000  -0.00000
  83        5PZ         0.00000  -0.01235  -0.02660   0.03127  -0.02844
  84        6D 0       -0.00005   0.00000   0.00000   0.00000  -0.00000
  85        6D+1       -0.00000   0.01219  -0.00068  -0.01696  -0.01080
  86        6D-1       -0.00000  -0.00338   0.00343  -0.00239   0.00633
  87        6D+2        0.00740  -0.00000   0.00000  -0.00000  -0.00000
  88        6D-2       -0.00925  -0.00000   0.00000   0.00000   0.00000
  89 5   C  1S         -0.00385  -0.00000   0.00000   0.00000  -0.00000
  90        2S         -0.00639  -0.00000   0.00000   0.00000  -0.00000
  91        2PX         0.07375   0.00000  -0.00000  -0.00000   0.00000
  92        2PY        -0.03710  -0.00000   0.00000   0.00000  -0.00000
  93        2PZ         0.00000   0.00791   0.12830  -0.02075  -0.04907
  94        3S          0.02068   0.00000  -0.00000  -0.00000   0.00000
  95        3PX         0.10518   0.00000  -0.00000  -0.00000   0.00000
  96        3PY        -0.05381  -0.00000   0.00000   0.00000  -0.00000
  97        3PZ         0.00000   0.01140   0.21013  -0.03402  -0.07930
  98        4S         -0.02810   0.00000   0.00000   0.00000   0.00000
  99        4PX         0.04795   0.00000  -0.00000   0.00000   0.00000
 100        4PY        -0.03751  -0.00000  -0.00000  -0.00000  -0.00000
 101        4PZ         0.00000   0.01690   0.18604  -0.02387  -0.08234
 102        5S         -0.20782   0.00001   0.00002   0.00001   0.00000
 103        5PX        -0.07889   0.00000   0.00002   0.00001   0.00000
 104        5PY         0.04543  -0.00000  -0.00000  -0.00000  -0.00000
 105        5PZ         0.00000  -0.01742   0.03600  -0.02830  -0.00466
 106        6D 0        0.00062  -0.00000  -0.00000  -0.00000   0.00000
 107        6D+1        0.00000  -0.01432  -0.00829  -0.01751   0.00365
 108        6D-1       -0.00000  -0.00293  -0.00817   0.00042   0.00270
 109        6D+2        0.01071   0.00000  -0.00000  -0.00000   0.00000
 110        6D-2       -0.00807  -0.00000  -0.00000  -0.00000   0.00000
 111 6   C  1S          0.00139   0.00000   0.00000   0.00000  -0.00000
 112        2S          0.00232   0.00000   0.00000   0.00000  -0.00000
 113        2PX        -0.05623  -0.00000   0.00000   0.00000  -0.00000
 114        2PY         0.03278   0.00000  -0.00000  -0.00000   0.00000
 115        2PZ         0.00000   0.07420   0.10816   0.07085  -0.03846
 116        3S         -0.00852  -0.00000  -0.00000  -0.00000   0.00000
 117        3PX        -0.08089  -0.00000   0.00000   0.00000  -0.00000
 118        3PY         0.04746   0.00000  -0.00000  -0.00000  -0.00000
 119        3PZ         0.00000   0.12083   0.17776   0.11551  -0.06318
 120        4S          0.01538  -0.00000  -0.00000  -0.00000  -0.00000
 121        4PX        -0.06755  -0.00000  -0.00000  -0.00000  -0.00000
 122        4PY         0.03649   0.00000   0.00000   0.00000   0.00000
 123        4PZ         0.00000   0.09603   0.15179   0.10331  -0.05565
 124        5S          0.04591   0.00001  -0.00003  -0.00002  -0.00003
 125        5PX        -0.01065   0.00000   0.00000   0.00000   0.00000
 126        5PY        -0.04399  -0.00000   0.00002   0.00001   0.00001
 127        5PZ        -0.00000   0.01030  -0.00260   0.02046  -0.01642
 128        6D 0        0.00041   0.00000  -0.00000   0.00000   0.00000
 129        6D+1        0.00000   0.00288   0.01351  -0.00088  -0.00495
 130        6D-1        0.00000  -0.01115   0.00807  -0.01200  -0.00442
 131        6D+2        0.00954   0.00000  -0.00000  -0.00000   0.00000
 132        6D-2       -0.01486  -0.00000   0.00000   0.00000  -0.00000
 133 7   C  1S         -0.00181  -0.00000   0.00000   0.00000  -0.00000
 134        2S         -0.00300  -0.00000   0.00000   0.00000  -0.00000
 135        2PX         0.06197   0.00000  -0.00000  -0.00000   0.00000
 136        2PY        -0.04392  -0.00000   0.00000   0.00000  -0.00000
 137        2PZ         0.00000   0.10101  -0.01765   0.09617   0.01837
 138        3S          0.00998   0.00000  -0.00000  -0.00000   0.00000
 139        3PX         0.08851   0.00000  -0.00000  -0.00000   0.00000
 140        3PY        -0.06221  -0.00000   0.00000   0.00000  -0.00000
 141        3PZ         0.00000   0.16662  -0.02943   0.15832   0.02989
 142        4S         -0.02267   0.00000   0.00000   0.00000  -0.00000
 143        4PX         0.05486   0.00000   0.00000   0.00000   0.00000
 144        4PY        -0.03475  -0.00000   0.00000   0.00000   0.00000
 145        4PZ         0.00000   0.12726  -0.02417   0.13573   0.02823
 146        5S          0.03864  -0.00000  -0.00001  -0.00001  -0.00001
 147        5PX         0.02143   0.00000  -0.00001  -0.00001  -0.00001
 148        5PY        -0.05268  -0.00000   0.00003   0.00002   0.00002
 149        5PZ         0.00000  -0.00032   0.01306   0.00335   0.01416
 150        6D 0        0.00019  -0.00000  -0.00000  -0.00000   0.00000
 151        6D+1       -0.00000   0.00900  -0.01240   0.00396   0.00560
 152        6D-1        0.00000   0.00528   0.01901   0.00667  -0.00734
 153        6D+2        0.00309  -0.00000   0.00000   0.00000  -0.00000
 154        6D-2       -0.01118  -0.00000   0.00000   0.00000  -0.00000
 155 8   C  1S          0.00063   0.00000  -0.00000   0.00000   0.00000
 156        2S          0.00103   0.00000  -0.00000   0.00000   0.00000
 157        2PX        -0.06492  -0.00000   0.00000   0.00000  -0.00000
 158        2PY         0.03517   0.00000  -0.00000   0.00000  -0.00000
 159        2PZ        -0.00000   0.07288  -0.12573   0.03043   0.05298
 160        3S         -0.00164  -0.00000   0.00000  -0.00000  -0.00000
 161        3PX        -0.09108  -0.00000   0.00000   0.00000  -0.00000
 162        3PY         0.05122   0.00000  -0.00000  -0.00000  -0.00000
 163        3PZ        -0.00000   0.11742  -0.20553   0.04977   0.08757
 164        4S          0.01346  -0.00000  -0.00000  -0.00000  -0.00000
 165        4PX        -0.06908   0.00000   0.00000   0.00000  -0.00000
 166        4PY         0.06165  -0.00000  -0.00000  -0.00000  -0.00000
 167        4PZ        -0.00000   0.09744  -0.17759   0.04663   0.07913
 168        5S         -0.09256   0.00000  -0.00003  -0.00002  -0.00003
 169        5PX         0.07089   0.00001  -0.00004  -0.00003  -0.00003
 170        5PY        -0.00072  -0.00000   0.00001   0.00000   0.00000
 171        5PZ        -0.00000   0.00203  -0.04496   0.00318   0.00465
 172        6D 0       -0.00024  -0.00000  -0.00000  -0.00000   0.00000
 173        6D+1       -0.00000  -0.00883  -0.00880  -0.01499   0.00047
 174        6D-1       -0.00000   0.00734  -0.00845   0.00223   0.00401
 175        6D+2        0.01247   0.00000  -0.00000  -0.00000   0.00000
 176        6D-2       -0.00957  -0.00000   0.00000   0.00000  -0.00000
 177 9   C  1S         -0.00344  -0.00000  -0.00000  -0.00000  -0.00000
 178        2S         -0.00573  -0.00000  -0.00000  -0.00000  -0.00000
 179        2PX        -0.08581  -0.00000   0.00000   0.00000  -0.00000
 180        2PY         0.03438  -0.00000  -0.00000  -0.00000  -0.00000
 181        2PZ        -0.00000  -0.00673   0.02658   0.00418  -0.05503
 182        3S          0.01847   0.00000   0.00000   0.00000   0.00000
 183        3PX        -0.12875  -0.00000   0.00000   0.00000  -0.00000
 184        3PY         0.05088  -0.00000  -0.00000  -0.00000  -0.00000
 185        3PZ        -0.00001  -0.00781   0.04037   0.00661  -0.08403
 186        4S         -0.00059  -0.00000   0.00002   0.00001   0.00001
 187        4PX        -0.09220   0.00000   0.00000   0.00000   0.00000
 188        4PY         0.05171  -0.00000  -0.00000  -0.00000  -0.00000
 189        4PZ        -0.00001  -0.04344   0.03882   0.00654  -0.08548
 190        5S         -0.01439  -0.00000   0.00004   0.00003   0.00003
 191        5PX         0.29325  -0.00000  -0.00001  -0.00000   0.00000
 192        5PY         0.00378  -0.00000   0.00001   0.00001   0.00001
 193        5PZ        -0.00000  -0.06908  -0.04082  -0.00804   0.08278
 194        6D 0       -0.00371  -0.00000   0.00000  -0.00000  -0.00000
 195        6D+1        0.00000   0.00043   0.01411   0.00981   0.00713
 196        6D-1        0.00000   0.00040  -0.00703  -0.00085   0.01684
 197        6D+2        0.00922   0.00000  -0.00000  -0.00000   0.00000
 198        6D-2       -0.00888  -0.00000   0.00000   0.00000  -0.00000
 199 10  C  1S         -0.00594  -0.00000  -0.00000  -0.00000  -0.00000
 200        2S         -0.00986  -0.00000  -0.00000  -0.00000  -0.00000
 201        2PX         0.07161   0.00000  -0.00000  -0.00000   0.00000
 202        2PY        -0.03106  -0.00000   0.00000   0.00000  -0.00000
 203        2PZ         0.00000  -0.10336  -0.00689  -0.00683   0.01520
 204        3S          0.03020   0.00000   0.00000   0.00000   0.00000
 205        3PX         0.10325   0.00000  -0.00000  -0.00000   0.00000
 206        3PY        -0.04487  -0.00000   0.00000   0.00000   0.00000
 207        3PZ         0.00000  -0.16842  -0.01174  -0.01098   0.02583
 208        4S          0.03109   0.00000  -0.00001  -0.00000  -0.00000
 209        4PX         0.08365  -0.00000  -0.00000  -0.00000   0.00000
 210        4PY        -0.05352  -0.00000   0.00000   0.00000   0.00000
 211        4PZ         0.00000  -0.13960  -0.00832  -0.00809   0.01863
 212        5S         -0.00945  -0.00000   0.00004   0.00002   0.00003
 213        5PX        -0.26324   0.00001   0.00001   0.00000  -0.00001
 214        5PY        -0.00569   0.00000   0.00000  -0.00000   0.00000
 215        5PZ         0.00000  -0.01425   0.02352   0.00671  -0.05432
 216        6D 0        0.00089  -0.00000   0.00000   0.00000   0.00000
 217        6D+1       -0.00000   0.00262  -0.00557   0.02339   0.00021
 218        6D-1       -0.00000   0.00926   0.00167   0.00070  -0.00386
 219        6D+2        0.01109  -0.00000  -0.00000  -0.00000  -0.00000
 220        6D-2       -0.00863  -0.00000   0.00000   0.00000  -0.00000
 221 11  C  1S         -0.00096   0.00000  -0.00000  -0.00000   0.00000
 222        2S         -0.00162   0.00000  -0.00000  -0.00000   0.00000
 223        2PX         0.07889   0.00000  -0.00000  -0.00000   0.00000
 224        2PY        -0.04483   0.00000  -0.00000   0.00000   0.00000
 225        2PZ        -0.00000   0.00714   0.04636   0.05557   0.11389
 226        3S          0.00554  -0.00000   0.00000   0.00000  -0.00000
 227        3PX         0.11553   0.00000  -0.00000  -0.00000   0.00000
 228        3PY        -0.06429   0.00000  -0.00000   0.00000   0.00000
 229        3PZ        -0.00000   0.01124   0.07531   0.09226   0.18585
 230        4S          0.00834  -0.00000  -0.00000  -0.00000  -0.00001
 231        4PX         0.11179   0.00000   0.00000   0.00000   0.00001
 232        4PY        -0.06671   0.00000   0.00000   0.00000   0.00001
 233        4PZ        -0.00000   0.02304   0.07982   0.07358   0.19327
 234        5S          0.08057  -0.00000  -0.00007  -0.00003  -0.00004
 235        5PX         0.13217  -0.00001   0.00001   0.00001   0.00002
 236        5PY         0.19609  -0.00001  -0.00008  -0.00005  -0.00004
 237        5PZ         0.00000   0.01770  -0.00462   0.02138  -0.07023
 238        6D 0       -0.00032   0.00000   0.00000  -0.00000  -0.00000
 239        6D+1        0.00000   0.00933   0.00264  -0.00682   0.01394
 240        6D-1        0.00000  -0.00943  -0.00766   0.01446  -0.00129
 241        6D+2        0.00908   0.00000  -0.00000  -0.00000  -0.00000
 242        6D-2       -0.01547  -0.00000   0.00000  -0.00000  -0.00000
 243 12  C  1S          0.00275  -0.00000   0.00000  -0.00000  -0.00000
 244        2S          0.00466  -0.00000   0.00000  -0.00000  -0.00000
 245        2PX        -0.06284  -0.00000   0.00000   0.00000  -0.00000
 246        2PY         0.04105  -0.00000   0.00000  -0.00000  -0.00000
 247        2PZ         0.00000  -0.05337  -0.02489   0.11276   0.00948
 248        3S         -0.01360  -0.00000  -0.00000   0.00000   0.00000
 249        3PX        -0.09082  -0.00000   0.00000   0.00000  -0.00000
 250        3PY         0.05965  -0.00000   0.00000  -0.00000  -0.00000
 251        3PZ         0.00000  -0.08788  -0.03841   0.18513   0.01511
 252        4S         -0.01041   0.00000  -0.00000  -0.00000  -0.00000
 253        4PX        -0.07475  -0.00000  -0.00000  -0.00000  -0.00000
 254        4PY         0.02601   0.00000   0.00000   0.00000  -0.00000
 255        4PZ         0.00000  -0.08022  -0.05090   0.18106   0.01548
 256        5S         -0.19546   0.00001   0.00010   0.00006   0.00006
 257        5PX        -0.27732   0.00001   0.00002   0.00001  -0.00001
 258        5PY         0.14883  -0.00001  -0.00005  -0.00003  -0.00002
 259        5PZ        -0.00000   0.01278   0.00806  -0.03212   0.07432
 260        6D 0       -0.00006   0.00000  -0.00000  -0.00000   0.00000
 261        6D+1       -0.00000   0.01244  -0.00410   0.00351  -0.01392
 262        6D-1        0.00000  -0.00457  -0.00859  -0.00209  -0.01964
 263        6D+2        0.00900  -0.00000   0.00000   0.00000  -0.00000
 264        6D-2       -0.01683  -0.00000   0.00000   0.00000  -0.00000
 265 13  C  1S         -0.00212  -0.00000   0.00000   0.00000  -0.00000
 266        2S         -0.00352  -0.00000   0.00000   0.00000  -0.00000
 267        2PX         0.07312   0.00000  -0.00000  -0.00000   0.00000
 268        2PY        -0.05812  -0.00000   0.00000   0.00000  -0.00000
 269        2PZ        -0.00000   0.00091  -0.11117  -0.06524   0.02830
 270        3S          0.01016   0.00000  -0.00000  -0.00000   0.00000
 271        3PX         0.10807   0.00000  -0.00000  -0.00000   0.00000
 272        3PY        -0.08589  -0.00000   0.00000   0.00000  -0.00000
 273        3PZ        -0.00000   0.00001  -0.18093  -0.10880   0.04596
 274        4S          0.02474   0.00000  -0.00001  -0.00000   0.00000
 275        4PX         0.10511   0.00000  -0.00001  -0.00000   0.00000
 276        4PY        -0.05949  -0.00000   0.00000   0.00000  -0.00000
 277        4PZ        -0.00000   0.01442  -0.17972  -0.09246   0.04506
 278        5S         -0.05957   0.00000  -0.00007  -0.00004  -0.00005
 279        5PX         0.10957  -0.00001  -0.00002  -0.00002  -0.00001
 280        5PY        -0.24325   0.00002  -0.00005  -0.00004  -0.00006
 281        5PZ         0.00000   0.01442   0.06520  -0.00676  -0.05309
 282        6D 0        0.00037  -0.00000  -0.00000  -0.00000   0.00000
 283        6D+1       -0.00000  -0.00981   0.01403  -0.00388  -0.00897
 284        6D-1        0.00000  -0.01172   0.00702  -0.01294   0.00164
 285        6D+2        0.00874  -0.00000  -0.00000  -0.00000  -0.00000
 286        6D-2       -0.01653  -0.00000   0.00000   0.00000  -0.00000
 287 14  C  1S          0.00125  -0.00000  -0.00000  -0.00000   0.00000
 288        2S          0.00209  -0.00000  -0.00000  -0.00000   0.00000
 289        2PX        -0.06552  -0.00000   0.00000   0.00000  -0.00000
 290        2PY         0.05307   0.00000  -0.00000  -0.00000   0.00000
 291        2PZ         0.00000  -0.07527   0.01563  -0.10750   0.00216
 292        3S         -0.00610   0.00000   0.00000   0.00000  -0.00000
 293        3PX        -0.09477  -0.00000   0.00000   0.00000  -0.00000
 294        3PY         0.07721   0.00000  -0.00000  -0.00000   0.00000
 295        3PZ         0.00000  -0.12339   0.02445  -0.17666   0.00108
 296        4S          0.01781  -0.00000   0.00000  -0.00000   0.00000
 297        4PX        -0.10253  -0.00000   0.00001   0.00000   0.00000
 298        4PY         0.08104  -0.00000  -0.00000   0.00000   0.00000
 299        4PZ         0.00000  -0.11208   0.03261  -0.17550   0.01319
 300        5S          0.21229  -0.00001   0.00008   0.00005   0.00007
 301        5PX        -0.23958   0.00001   0.00001   0.00001  -0.00001
 302        5PY        -0.17136   0.00001  -0.00004  -0.00003  -0.00004
 303        5PZ        -0.00000   0.01755  -0.06293   0.01626   0.05488
 304        6D 0        0.00010  -0.00000  -0.00000  -0.00000  -0.00000
 305        6D+1       -0.00000  -0.01241  -0.01247  -0.00018   0.00672
 306        6D-1        0.00000  -0.00520   0.01841   0.00388  -0.00553
 307        6D+2        0.00906   0.00000  -0.00000  -0.00000   0.00000
 308        6D-2       -0.01534  -0.00000   0.00000   0.00000  -0.00000
 309 15  H  1S         -0.02531   0.00000   0.00000  -0.00000   0.00000
 310        2S         -0.03699   0.00000   0.00000  -0.00000   0.00000
 311        3S         -0.01580   0.00000  -0.00000  -0.00000  -0.00000
 312        4S         -0.01199   0.00000   0.00000   0.00000   0.00000
 313        5PX        -0.00429  -0.00000   0.00000   0.00000  -0.00000
 314        5PY        -0.00113   0.00000   0.00000  -0.00000  -0.00000
 315        5PZ        -0.00000   0.00483   0.00367  -0.00407   0.00850
 316 16  H  1S          0.07133   0.00000  -0.00000  -0.00000   0.00000
 317        2S          0.10387   0.00000  -0.00000   0.00000   0.00000
 318        3S          0.03987  -0.00000   0.00000   0.00000   0.00000
 319        4S          0.00703   0.00000   0.00000   0.00000   0.00000
 320        5PX        -0.00379  -0.00000  -0.00000  -0.00000   0.00000
 321        5PY         0.00319   0.00000  -0.00000  -0.00000   0.00000
 322        5PZ         0.00000   0.00661   0.00072  -0.00752   0.00038
 323 17  H  1S         -0.04144  -0.00000   0.00000   0.00000  -0.00000
 324        2S         -0.05921  -0.00000   0.00000  -0.00000  -0.00000
 325        3S         -0.02368  -0.00000   0.00000   0.00000  -0.00000
 326        4S         -0.00577   0.00000  -0.00000  -0.00000  -0.00000
 327        5PX         0.00059   0.00000  -0.00000   0.00000   0.00000
 328        5PY         0.00463   0.00000  -0.00000  -0.00000   0.00000
 329        5PZ         0.00000   0.00498  -0.00259  -0.00413  -0.00831
 330 18  H  1S         -0.02763   0.00000  -0.00000   0.00000   0.00000
 331        2S         -0.04046   0.00000   0.00000   0.00000   0.00000
 332        3S         -0.01771   0.00000   0.00000   0.00000   0.00000
 333        4S          0.01447   0.00000   0.00000   0.00000   0.00000
 334        5PX         0.00432   0.00000  -0.00000   0.00000   0.00000
 335        5PY         0.00190  -0.00000  -0.00000  -0.00000  -0.00000
 336        5PZ         0.00000   0.00046  -0.00414   0.00347  -0.00859
 337 19  H  1S         -0.02835   0.00000   0.00000   0.00000   0.00000
 338        2S         -0.04113  -0.00000   0.00000   0.00000  -0.00000
 339        3S         -0.01991   0.00000  -0.00000  -0.00000  -0.00000
 340        4S         -0.00285  -0.00000  -0.00000   0.00000  -0.00000
 341        5PX         0.00383   0.00000  -0.00000  -0.00000   0.00000
 342        5PY         0.00073   0.00000   0.00000   0.00000   0.00000
 343        5PZ         0.00000  -0.00645  -0.00025  -0.00039   0.00051
 344 20  H  1S         -0.03469  -0.00000   0.00000   0.00000  -0.00000
 345        2S         -0.05141  -0.00000   0.00000   0.00000  -0.00000
 346        3S         -0.02624  -0.00000   0.00000   0.00000   0.00000
 347        4S         -0.01858  -0.00000   0.00000   0.00000   0.00000
 348        5PX         0.00351   0.00000  -0.00000  -0.00000   0.00000
 349        5PY         0.00167   0.00000  -0.00000  -0.00000  -0.00000
 350        5PZ         0.00000  -0.00006   0.00895  -0.00164  -0.00326
 351 21  H  1S          0.06301   0.00000  -0.00000  -0.00000   0.00000
 352        2S          0.09184   0.00000  -0.00000  -0.00000   0.00000
 353        3S          0.03487  -0.00000  -0.00000  -0.00000   0.00000
 354        4S          0.00513  -0.00000  -0.00000  -0.00000  -0.00000
 355        5PX         0.00378   0.00000  -0.00000  -0.00000   0.00000
 356        5PY        -0.00215  -0.00000   0.00000   0.00000  -0.00000
 357        5PZ         0.00000   0.00474   0.00746   0.00482  -0.00279
 358 22  H  1S         -0.02898  -0.00000   0.00000   0.00000  -0.00000
 359        2S         -0.04240  -0.00000   0.00000   0.00000  -0.00000
 360        3S         -0.01896   0.00000   0.00000   0.00000  -0.00000
 361        4S         -0.00782  -0.00000   0.00000   0.00000  -0.00000
 362        5PX         0.00026  -0.00000   0.00000   0.00000   0.00000
 363        5PY        -0.00429  -0.00000   0.00000   0.00000  -0.00000
 364        5PZ         0.00000   0.00645  -0.00123   0.00656   0.00122
 365 23  H  1S         -0.03835  -0.00000   0.00000   0.00000  -0.00000
 366        2S         -0.05390  -0.00000   0.00000  -0.00000  -0.00000
 367        3S         -0.02217   0.00000  -0.00000  -0.00000  -0.00000
 368        4S          0.00924  -0.00000   0.00000   0.00000   0.00000
 369        5PX        -0.00379  -0.00000   0.00000   0.00000  -0.00000
 370        5PY        -0.00223  -0.00000  -0.00000  -0.00000   0.00000
 371        5PZ        -0.00000   0.00468  -0.00870   0.00219   0.00350
 372 24  H  1S         -0.02118  -0.00367   0.02436   0.00372  -0.05159
 373        2S         -0.03055   0.00370   0.03790   0.00562  -0.08225
 374        3S         -0.01333   0.02529   0.03030   0.00420  -0.06899
 375        4S          0.00153   0.04542   0.01645   0.00198  -0.03718
 376        5PX        -0.00419   0.00005   0.00209   0.00060   0.00163
 377        5PY         0.00022   0.00085   0.00165   0.00024  -0.00292
 378        5PZ         0.00202   0.00013  -0.00070  -0.00006   0.00150
 379 25  H  1S         -0.02118   0.00367  -0.02436  -0.00372   0.05159
 380        2S         -0.03054  -0.00370  -0.03790  -0.00562   0.08225
 381        3S         -0.01333  -0.02529  -0.03032  -0.00421   0.06898
 382        4S          0.00153  -0.04542  -0.01646  -0.00199   0.03717
 383        5PX        -0.00419  -0.00005  -0.00209  -0.00060  -0.00163
 384        5PY         0.00022  -0.00085  -0.00165  -0.00024   0.00292
 385        5PZ        -0.00202   0.00013  -0.00070  -0.00005   0.00150
                          48        49        50        51        52
                           V         V         V         V         V
     Eigenvalues --    -0.26123  -0.14724  -0.14112  -0.12829  -0.11175
   1 1   C  1S         -0.00000  -0.00000   0.00000   0.00000  -0.00554
   2        2S         -0.00000  -0.00000   0.00000   0.00000  -0.00939
   3        2PX         0.00000  -0.00000  -0.00000  -0.00000   0.00347
   4        2PY        -0.00000  -0.00000   0.00000   0.00000  -0.01445
   5        2PZ        -0.00449   0.10088  -0.01858  -0.10128  -0.00000
   6        3S          0.00000   0.00000  -0.00000  -0.00000   0.03084
   7        3PX         0.00000  -0.00000   0.00000   0.00000   0.00344
   8        3PY        -0.00000  -0.00000   0.00000   0.00000  -0.02128
   9        3PZ        -0.00716   0.15495  -0.02794  -0.15994  -0.00000
  10        4S          0.00000   0.00001   0.00000   0.00000   0.01855
  11        4PX         0.00000   0.00000  -0.00000  -0.00001   0.02545
  12        4PY         0.00000   0.00000   0.00000   0.00000  -0.07717
  13        4PZ        -0.00735   0.28739  -0.04957  -0.28058  -0.00000
  14        5S         -0.00000   0.00001   0.00016   0.00013  -1.60914
  15        5PX         0.00000   0.00000  -0.00018  -0.00014   0.75538
  16        5PY         0.00000   0.00000  -0.00001  -0.00001  -0.43977
  17        5PZ         0.00929   0.21531  -0.00416  -0.32721  -0.00001
  18        6D 0        0.00000   0.00000   0.00000  -0.00000  -0.00519
  19        6D+1        0.01534   0.00964   0.02346  -0.00280   0.00000
  20        6D-1       -0.00186  -0.00860   0.00232   0.00797  -0.00000
  21        6D+2        0.00000   0.00000  -0.00000  -0.00000   0.00138
  22        6D-2        0.00000  -0.00000  -0.00000  -0.00000  -0.00105
  23 2   C  1S         -0.00000   0.00000   0.00000   0.00000  -0.00429
  24        2S         -0.00000   0.00000   0.00000   0.00000  -0.00711
  25        2PX        -0.00000   0.00000   0.00000  -0.00000   0.00595
  26        2PY        -0.00000   0.00000   0.00000  -0.00000  -0.00041
  27        2PZ         0.07330  -0.00816   0.09990   0.03988   0.00000
  28        3S          0.00000   0.00000  -0.00000  -0.00000   0.02030
  29        3PX        -0.00000   0.00000   0.00000  -0.00000   0.01022
  30        3PY        -0.00000   0.00000  -0.00000  -0.00000  -0.00225
  31        3PZ         0.12011  -0.01169   0.15901   0.06278   0.00000
  32        4S         -0.00000  -0.00001  -0.00000   0.00000   0.10316
  33        4PX         0.00000   0.00000   0.00000   0.00000  -0.00496
  34        4PY         0.00000  -0.00000  -0.00000  -0.00000   0.01167
  35        4PZ         0.13864  -0.02787   0.26342   0.10920   0.00000
  36        5S         -0.00001  -0.00001   0.00000   0.00001   0.58489
  37        5PX         0.00000   0.00000  -0.00003  -0.00002   0.16750
  38        5PY        -0.00000  -0.00000  -0.00010  -0.00008   0.34387
  39        5PZ         0.04316  -0.01901   0.21023   0.11813   0.00001
  40        6D 0        0.00000   0.00000  -0.00000   0.00000  -0.00334
  41        6D+1        0.00169  -0.01261   0.00305   0.01383   0.00000
  42        6D-1        0.00139  -0.02264  -0.00820   0.01903   0.00000
  43        6D+2       -0.00000  -0.00000   0.00000   0.00000  -0.00207
  44        6D-2        0.00000   0.00000  -0.00000  -0.00000   0.00356
  45 3   C  1S         -0.00000  -0.00000   0.00000   0.00000  -0.00363
  46        2S         -0.00000  -0.00000   0.00000   0.00000  -0.00600
  47        2PX        -0.00000  -0.00000  -0.00000   0.00000   0.00663
  48        2PY        -0.00000  -0.00000   0.00000   0.00000   0.00031
  49        2PZ         0.01295  -0.09638  -0.06037   0.06837  -0.00000
  50        3S          0.00000   0.00000  -0.00000  -0.00000   0.01707
  51        3PX        -0.00000  -0.00000  -0.00000  -0.00000   0.01210
  52        3PY        -0.00000  -0.00000   0.00000   0.00000   0.00134
  53        3PZ         0.02218  -0.15115  -0.09585   0.10703  -0.00000
  54        4S          0.00000   0.00000   0.00000   0.00000   0.06070
  55        4PX        -0.00000  -0.00000  -0.00000  -0.00000   0.01260
  56        4PY        -0.00000  -0.00000  -0.00000  -0.00000   0.02021
  57        4PZ         0.01603  -0.25770  -0.16278   0.18241  -0.00000
  58        5S          0.00001   0.00001   0.00016   0.00012   0.13619
  59        5PX        -0.00000  -0.00000   0.00001   0.00001  -0.01686
  60        5PY        -0.00000  -0.00000  -0.00006  -0.00005   0.35853
  61        5PZ         0.00332  -0.19352  -0.12192   0.18001  -0.00000
  62        6D 0        0.00000   0.00000   0.00000  -0.00000  -0.00365
  63        6D+1        0.00892  -0.01019   0.00664   0.01376   0.00000
  64        6D-1       -0.01287   0.00723  -0.01787  -0.01390  -0.00000
  65        6D+2        0.00000   0.00000   0.00000   0.00000  -0.00217
  66        6D-2        0.00000  -0.00000  -0.00000   0.00000  -0.00323
  67 4   C  1S         -0.00000  -0.00000   0.00000   0.00000  -0.00588
  68        2S         -0.00000  -0.00000   0.00000   0.00000  -0.00989
  69        2PX        -0.00000  -0.00000  -0.00000  -0.00000   0.00400
  70        2PY        -0.00000  -0.00000  -0.00000  -0.00000   0.01574
  71        2PZ        -0.07214   0.08775  -0.04566  -0.10478  -0.00000
  72        3S          0.00000   0.00000  -0.00000  -0.00000   0.02928
  73        3PX        -0.00000  -0.00000   0.00000  -0.00000   0.00428
  74        3PY        -0.00000  -0.00000   0.00000  -0.00000   0.02123
  75        3PZ        -0.11673   0.13392  -0.07265  -0.16656  -0.00000
  76        4S          0.00000  -0.00000  -0.00001  -0.00000   0.20017
  77        4PX        -0.00000  -0.00000   0.00000   0.00000  -0.04703
  78        4PY        -0.00000   0.00000   0.00001   0.00000   0.02330
  79        4PZ        -0.13326   0.25785  -0.13886  -0.28346  -0.00000
  80        5S          0.00001  -0.00002  -0.00002  -0.00001   1.81355
  81        5PX        -0.00000   0.00001   0.00004   0.00003  -0.80664
  82        5PY         0.00000   0.00000   0.00000   0.00000   0.57222
  83        5PZ        -0.03004   0.22965  -0.17037  -0.30516  -0.00000
  84        6D 0        0.00000   0.00000  -0.00000   0.00000  -0.00538
  85        6D+1        0.00190  -0.01547  -0.02141   0.00440  -0.00000
  86        6D-1        0.00372   0.00716  -0.00184  -0.00828  -0.00000
  87        6D+2        0.00000   0.00000   0.00000  -0.00000   0.00061
  88        6D-2       -0.00000  -0.00000  -0.00000   0.00000   0.00215
  89 5   C  1S          0.00000   0.00000  -0.00000   0.00000  -0.00745
  90        2S          0.00000   0.00000  -0.00000   0.00000  -0.01255
  91        2PX        -0.00000  -0.00000   0.00000   0.00000  -0.00375
  92        2PY         0.00000   0.00000  -0.00000  -0.00000   0.01909
  93        2PZ        -0.08463   0.08358   0.00208   0.11116   0.00000
  94        3S         -0.00000  -0.00000   0.00000  -0.00000   0.03795
  95        3PX        -0.00000  -0.00000   0.00000  -0.00000  -0.00395
  96        3PY         0.00000   0.00000  -0.00000  -0.00000   0.02616
  97        3PZ        -0.13739   0.12829   0.00431   0.17661   0.00000
  98        4S          0.00000  -0.00000  -0.00001  -0.00000   0.20941
  99        4PX        -0.00000  -0.00000  -0.00000  -0.00000   0.04902
 100        4PY        -0.00000   0.00000   0.00001   0.00000   0.04564
 101        4PZ        -0.16108   0.25997   0.00576   0.31789   0.00000
 102        5S         -0.00000   0.00001  -0.00008  -0.00005   1.59448
 103        5PX        -0.00000  -0.00001  -0.00006  -0.00005   0.96248
 104        5PY        -0.00000   0.00000   0.00001   0.00000   0.74165
 105        5PZ        -0.04121   0.25563   0.05900   0.37455   0.00000
 106        6D 0       -0.00000  -0.00000   0.00000   0.00000  -0.00599
 107        6D+1       -0.00062   0.00588  -0.02926   0.00443  -0.00000
 108        6D-1        0.00356   0.00710   0.00017   0.01054   0.00000
 109        6D+2       -0.00000  -0.00000   0.00000  -0.00000   0.00178
 110        6D-2       -0.00000  -0.00000   0.00000  -0.00000  -0.00232
 111 6   C  1S          0.00000   0.00000  -0.00000   0.00000  -0.00505
 112        2S          0.00000   0.00000  -0.00000   0.00000  -0.00838
 113        2PX         0.00000  -0.00000   0.00000   0.00000  -0.00980
 114        2PY         0.00000   0.00000  -0.00000   0.00000   0.00162
 115        2PZ         0.00773  -0.05560   0.10162  -0.06942   0.00000
 116        3S         -0.00000  -0.00000  -0.00000  -0.00000   0.02451
 117        3PX         0.00000  -0.00000   0.00000   0.00000  -0.01625
 118        3PY         0.00000   0.00000   0.00000   0.00000   0.00351
 119        3PZ         0.01474  -0.08732   0.16139  -0.10903   0.00000
 120        4S         -0.00000  -0.00000   0.00001   0.00000   0.09310
 121        4PX        -0.00000  -0.00000   0.00000   0.00000  -0.02072
 122        4PY         0.00000   0.00000  -0.00000  -0.00000   0.02318
 123        4PZ         0.00798  -0.16115   0.27736  -0.20122   0.00000
 124        5S         -0.00002   0.00005   0.00011   0.00008   0.33584
 125        5PX        -0.00000  -0.00001  -0.00001  -0.00001   0.00534
 126        5PY         0.00000  -0.00002  -0.00007  -0.00005   0.50973
 127        5PZ         0.00048  -0.12403   0.22310  -0.20950   0.00000
 128        6D 0       -0.00000  -0.00000   0.00000   0.00000  -0.00445
 129        6D+1       -0.01072   0.01033   0.00044   0.01482   0.00000
 130        6D-1       -0.01691   0.01259   0.01451   0.01702   0.00000
 131        6D+2       -0.00000  -0.00000   0.00000   0.00000  -0.00310
 132        6D-2        0.00000  -0.00000   0.00000  -0.00000   0.00441
 133 7   C  1S          0.00000   0.00000   0.00000   0.00000  -0.00587
 134        2S          0.00000   0.00000   0.00000   0.00000  -0.00977
 135        2PX        -0.00000   0.00000  -0.00000   0.00000  -0.00934
 136        2PY         0.00000   0.00000   0.00000  -0.00000  -0.00145
 137        2PZ         0.09700  -0.04051  -0.09741  -0.04806  -0.00000
 138        3S         -0.00000  -0.00000  -0.00000  -0.00000   0.02865
 139        3PX        -0.00000   0.00000  -0.00000   0.00000  -0.01503
 140        3PY         0.00000   0.00000   0.00000  -0.00000  -0.00407
 141        3PZ         0.15879  -0.06343  -0.15506  -0.07565  -0.00000
 142        4S          0.00000   0.00001  -0.00000   0.00000   0.12903
 143        4PX         0.00000   0.00000  -0.00000   0.00000  -0.00658
 144        4PY         0.00000  -0.00000  -0.00000  -0.00000   0.01005
 145        4PZ         0.18679  -0.11414  -0.26070  -0.13587  -0.00000
 146        5S          0.00000   0.00003   0.00004   0.00004   0.20897
 147        5PX        -0.00000   0.00002   0.00004   0.00003  -0.39001
 148        5PY         0.00001  -0.00003  -0.00009  -0.00008   0.46741
 149        5PZ         0.05999  -0.09302  -0.21824  -0.14372  -0.00001
 150        6D 0       -0.00000  -0.00000   0.00000  -0.00000  -0.00423
 151        6D+1       -0.00211   0.01151  -0.00169   0.01581   0.00000
 152        6D-1        0.00052  -0.01569   0.01660  -0.02085  -0.00000
 153        6D+2        0.00000   0.00000  -0.00000   0.00000  -0.00237
 154        6D-2        0.00000   0.00000   0.00000   0.00000  -0.00474
 155 8   C  1S          0.00000   0.00000  -0.00000   0.00000  -0.00702
 156        2S          0.00000   0.00000  -0.00000   0.00000  -0.01189
 157        2PX         0.00000   0.00000   0.00000   0.00000  -0.00354
 158        2PY         0.00000   0.00000  -0.00000   0.00000  -0.01655
 159        2PZ        -0.00470   0.08872  -0.00975   0.11461   0.00000
 160        3S         -0.00000  -0.00000   0.00000  -0.00000   0.03829
 161        3PX         0.00000  -0.00000  -0.00000  -0.00000  -0.00331
 162        3PY         0.00000   0.00000   0.00000   0.00000  -0.02417
 163        3PZ        -0.00673   0.13645  -0.01516   0.18200   0.00000
 164        4S         -0.00000  -0.00000   0.00001   0.00000   0.04506
 165        4PX         0.00000   0.00000   0.00000   0.00001  -0.02625
 166        4PY        -0.00000  -0.00000   0.00000   0.00000  -0.08394
 167        4PZ        -0.00507   0.26082  -0.04100   0.33090   0.00000
 168        5S         -0.00000   0.00003   0.00012   0.00011  -1.88922
 169        5PX        -0.00001   0.00007   0.00017   0.00014  -1.18432
 170        5PY         0.00000  -0.00001  -0.00002  -0.00002  -0.49434
 171        5PZ         0.01161   0.19414  -0.06126   0.38282   0.00001
 172        6D 0       -0.00000  -0.00000   0.00000  -0.00000  -0.00609
 173        6D+1       -0.02003  -0.00080   0.02714  -0.00325   0.00000
 174        6D-1       -0.00186  -0.00836   0.00019  -0.00982   0.00000
 175        6D+2       -0.00000  -0.00000  -0.00000  -0.00000   0.00181
 176        6D-2        0.00000   0.00000   0.00000   0.00000   0.00156
 177 9   C  1S         -0.00000   0.00000   0.00000   0.00000  -0.01403
 178        2S         -0.00000   0.00000   0.00000   0.00000  -0.02359
 179        2PX         0.00000  -0.00000   0.00000  -0.00000   0.00123
 180        2PY        -0.00000   0.00000   0.00000   0.00000  -0.03069
 181        2PZ         0.02873  -0.01312   0.00393  -0.00123   0.00000
 182        3S          0.00000   0.00000  -0.00000   0.00000   0.06166
 183        3PX         0.00000  -0.00000   0.00000  -0.00000   0.00203
 184        3PY         0.00000   0.00000   0.00000   0.00000  -0.04650
 185        3PZ         0.03832  -0.02009   0.00559  -0.00190   0.00000
 186        4S          0.00000  -0.00001  -0.00005  -0.00002   0.43346
 187        4PX        -0.00000   0.00000  -0.00000  -0.00000   0.01217
 188        4PY        -0.00000   0.00000   0.00001   0.00000  -0.02388
 189        4PZ         0.07593  -0.10715   0.03622  -0.00011   0.00000
 190        5S          0.00001  -0.00004  -0.00018  -0.00016   0.85162
 191        5PX        -0.00001   0.00003   0.00001   0.00001  -0.22981
 192        5PY         0.00000  -0.00000  -0.00002  -0.00003  -0.46615
 193        5PZ         0.13046  -0.43101   0.12526  -0.01397   0.00000
 194        6D 0        0.00000   0.00000   0.00000  -0.00000  -0.00874
 195        6D+1        0.00199  -0.00474  -0.02425   0.01296  -0.00000
 196        6D-1       -0.01949  -0.02882   0.00398  -0.00149  -0.00000
 197        6D+2       -0.00000  -0.00000   0.00000   0.00000   0.00243
 198        6D-2        0.00000   0.00000  -0.00000   0.00000  -0.00033
 199 10  C  1S         -0.00000  -0.00000   0.00000   0.00000  -0.01066
 200        2S         -0.00000  -0.00000   0.00000   0.00000  -0.01815
 201        2PX        -0.00000  -0.00000   0.00000  -0.00000   0.00092
 202        2PY        -0.00000   0.00000   0.00000  -0.00000   0.02372
 203        2PZ         0.17217   0.01619   0.01795   0.00915   0.00000
 204        3S          0.00000  -0.00000  -0.00000  -0.00000   0.06052
 205        3PX        -0.00000  -0.00000   0.00000  -0.00000   0.00146
 206        3PY         0.00000  -0.00000  -0.00000  -0.00000   0.03324
 207        3PZ         0.28011   0.02351   0.02961   0.01445   0.00000
 208        4S         -0.00000   0.00000   0.00002   0.00001   0.06876
 209        4PX        -0.00000  -0.00000   0.00000   0.00000  -0.00484
 210        4PY         0.00000  -0.00000  -0.00001  -0.00000   0.20702
 211        4PZ         0.34799   0.07275   0.04842   0.03165   0.00000
 212        5S          0.00000  -0.00003  -0.00014  -0.00012   1.55505
 213        5PX         0.00000   0.00003  -0.00003  -0.00001  -0.22795
 214        5PY         0.00000  -0.00000  -0.00001  -0.00000   1.95340
 215        5PZ         0.09829   0.32965  -0.00311   0.06509   0.00000
 216        6D 0        0.00000  -0.00000  -0.00000  -0.00000  -0.00745
 217        6D+1       -0.00071   0.00493   0.03008   0.00736   0.00000
 218        6D-1        0.00085   0.01305  -0.00081   0.00205   0.00000
 219        6D+2       -0.00000   0.00000   0.00000  -0.00000   0.00105
 220        6D-2        0.00000   0.00000  -0.00000  -0.00000   0.00019
 221 11  C  1S         -0.00000  -0.00000   0.00000  -0.00000  -0.00567
 222        2S         -0.00000  -0.00000   0.00000  -0.00000  -0.00977
 223        2PX        -0.00000  -0.00000   0.00000  -0.00000   0.00278
 224        2PY        -0.00000  -0.00000   0.00000  -0.00000   0.00934
 225        2PZ        -0.08078  -0.10283  -0.07975   0.06945  -0.00000
 226        3S          0.00000   0.00000  -0.00000  -0.00000   0.03923
 227        3PX        -0.00000  -0.00000   0.00000  -0.00000   0.00414
 228        3PY        -0.00000  -0.00000   0.00000  -0.00000   0.01310
 229        3PZ        -0.13015  -0.15949  -0.12491   0.11328  -0.00000
 230        4S          0.00001   0.00001   0.00001   0.00000  -0.02443
 231        4PX        -0.00000  -0.00001  -0.00001  -0.00001   0.12552
 232        4PY        -0.00000  -0.00000  -0.00001  -0.00000   0.01102
 233        4PZ        -0.16841  -0.27190  -0.25065   0.18308  -0.00000
 234        5S         -0.00000   0.00006   0.00024   0.00018  -3.58093
 235        5PX         0.00000  -0.00003  -0.00005  -0.00005   0.72935
 236        5PY        -0.00001  -0.00000   0.00029   0.00022  -2.19734
 237        5PZ        -0.10138  -0.02162  -0.38763   0.23698  -0.00001
 238        6D 0        0.00000   0.00000   0.00000  -0.00000  -0.00758
 239        6D+1       -0.00414   0.01799  -0.00324  -0.01331  -0.00000
 240        6D-1       -0.00513  -0.01049   0.01910   0.01421   0.00000
 241        6D+2        0.00000   0.00000   0.00000  -0.00000  -0.00547
 242        6D-2       -0.00000  -0.00000   0.00000   0.00000   0.00150
 243 12  C  1S          0.00000   0.00000   0.00000   0.00000  -0.00632
 244        2S          0.00000   0.00000   0.00000   0.00000  -0.01076
 245        2PX         0.00000   0.00000   0.00000   0.00000   0.00047
 246        2PY         0.00000   0.00000   0.00000   0.00000  -0.01039
 247        2PZ        -0.02066   0.00412   0.10126   0.04254   0.00000
 248        3S         -0.00000  -0.00000  -0.00000  -0.00000   0.03729
 249        3PX         0.00000   0.00000  -0.00000  -0.00000   0.00338
 250        3PY         0.00000   0.00000   0.00000   0.00000  -0.01435
 251        3PZ        -0.03285   0.01242   0.15898   0.07277   0.00000
 252        4S          0.00000  -0.00000   0.00000  -0.00000   0.12530
 253        4PX         0.00000   0.00000   0.00002   0.00001  -0.14933
 254        4PY         0.00000   0.00000  -0.00000   0.00000  -0.08099
 255        4PZ        -0.04163  -0.01872   0.31301   0.10397   0.00000
 256        5S          0.00001  -0.00006  -0.00039  -0.00030   5.22861
 257        5PX        -0.00000   0.00003  -0.00005  -0.00003  -0.65871
 258        5PY        -0.00001   0.00001   0.00019   0.00014  -3.48617
 259        5PZ        -0.00435  -0.22040   0.43708   0.08732   0.00001
 260        6D 0       -0.00000  -0.00000   0.00000   0.00000  -0.00805
 261        6D+1       -0.02542   0.01329  -0.01033  -0.01479  -0.00000
 262        6D-1        0.01540   0.02678   0.01099  -0.01834   0.00000
 263        6D+2        0.00000  -0.00000  -0.00000   0.00000  -0.00436
 264        6D-2        0.00000   0.00000   0.00000   0.00000  -0.00278
 265 13  C  1S          0.00000   0.00000  -0.00000   0.00000  -0.00644
 266        2S          0.00000   0.00000  -0.00000   0.00000  -0.01107
 267        2PX        -0.00000  -0.00000   0.00000   0.00000  -0.00188
 268        2PY         0.00000   0.00000  -0.00000   0.00000   0.00986
 269        2PZ        -0.09438  -0.05720   0.10768  -0.07630   0.00000
 270        3S         -0.00000  -0.00000  -0.00000  -0.00000   0.04376
 271        3PX        -0.00000  -0.00000   0.00000  -0.00000  -0.00232
 272        3PY         0.00000   0.00000  -0.00000   0.00000   0.01473
 273        3PZ        -0.15207  -0.08853   0.16878  -0.12433   0.00000
 274        4S         -0.00001  -0.00001   0.00001  -0.00000   0.00349
 275        4PX        -0.00001  -0.00000   0.00001   0.00001  -0.11010
 276        4PY         0.00000  -0.00000  -0.00001   0.00000  -0.00440
 277        4PZ        -0.19897  -0.14793   0.31760  -0.21583   0.00000
 278        5S         -0.00001   0.00002   0.00025   0.00018  -4.10082
 279        5PX        -0.00000  -0.00001   0.00010   0.00007  -1.15554
[...]
 192        5PY         0.03721
 193        5PZ        -0.02772
 194        6D 0        0.00831
 195        6D+1        0.00844
 196        6D-1        0.01217
 197        6D+2        0.01203
 198        6D-2        0.01356
 199 10  C  1S          1.10550
 200        2S          0.88523
 201        2PX         0.24234
 202        2PY         0.24072
 203        2PZ         0.11428
 204        3S          0.80038
 205        3PX         0.55203
 206        3PY         0.54994
 207        3PZ         0.30977
 208        4S          0.41227
 209        4PX         0.15701
 210        4PY         0.34561
 211        4PZ         0.25612
 212        5S          0.03346
 213        5PX        -0.38161
 214        5PY         0.19875
 215        5PZ         0.04219
 216        6D 0        0.00298
 217        6D+1        0.01276
 218        6D-1        0.00357
 219        6D+2        0.02115
 220        6D-2        0.01514
 221 11  C  1S          1.10531
 222        2S          0.88559
 223        2PX         0.22837
 224        2PY         0.23533
 225        2PZ         0.15392
 226        3S          0.76613
 227        3PX         0.53036
 228        3PY         0.53115
 229        3PZ         0.40417
 230        4S          0.41361
 231        4PX         0.27223
 232        4PY         0.21545
 233        4PZ         0.33136
 234        5S          0.12311
 235        5PX        -0.29172
 236        5PY         0.62770
 237        5PZ         0.01579
 238        6D 0        0.00395
 239        6D+1        0.00921
 240        6D-1        0.01104
 241        6D+2        0.02063
 242        6D-2        0.02083
 243 12  C  1S          1.10520
 244        2S          0.88562
 245        2PX         0.22936
 246        2PY         0.23553
 247        2PZ         0.17476
 248        3S          0.75251
 249        3PX         0.52456
 250        3PY         0.53352
 251        3PZ         0.46117
 252        4S          0.36708
 253        4PX         0.14435
 254        4PY         0.19225
 255        4PZ         0.39545
 256        5S         -0.51428
 257        5PX        -0.47096
 258        5PY         0.29799
 259        5PZ        -0.06162
 260        6D 0        0.00445
 261        6D+1        0.00742
 262        6D-1        0.00950
 263        6D+2        0.02280
 264        6D-2        0.02275
 265 13  C  1S          1.10532
 266        2S          0.88552
 267        2PX         0.23596
 268        2PY         0.23220
 269        2PZ         0.15063
 270        3S          0.76989
 271        3PX         0.53603
 272        3PY         0.53140
 273        3PZ         0.39757
 274        4S          0.39970
 275        4PX         0.26440
 276        4PY         0.22369
 277        4PZ         0.31815
 278        5S          0.15286
 279        5PX        -0.26821
 280        5PY         0.62140
 281        5PZ         0.01207
 282        6D 0        0.00387
 283        6D+1        0.01042
 284        6D-1        0.01013
 285        6D+2        0.02226
 286        6D-2        0.02055
 287 14  C  1S          1.10521
 288        2S          0.88565
 289        2PX         0.23248
 290        2PY         0.23067
 291        2PZ         0.17375
 292        3S          0.75268
 293        3PX         0.52819
 294        3PY         0.53010
 295        3PZ         0.45851
 296        4S          0.37977
 297        4PX         0.15554
 298        4PY         0.19545
 299        4PZ         0.39662
 300        5S         -0.57463
 301        5PX        -0.46588
 302        5PY         0.30754
 303        5PZ        -0.05988
 304        6D 0        0.00447
 305        6D+1        0.00729
 306        6D-1        0.00842
 307        6D+2        0.02272
 308        6D-2        0.02224
 309 15  H  1S          0.27363
 310        2S          0.46403
 311        3S          0.03475
 312        4S         -0.03210
 313        5PX         0.00332
 314        5PY         0.01469
 315        5PZ         0.00471
 316 16  H  1S          0.27370
 317        2S          0.46309
 318        3S          0.01486
 319        4S         -0.02746
 320        5PX         0.01258
 321        5PY         0.00642
 322        5PZ         0.00395
 323 17  H  1S          0.27318
 324        2S          0.46317
 325        3S          0.02119
 326        4S         -0.02768
 327        5PX         0.01170
 328        5PY         0.00667
 329        5PZ         0.00452
 330 18  H  1S          0.27340
 331        2S          0.46509
 332        3S          0.03738
 333        4S         -0.01950
 334        5PX         0.00343
 335        5PY         0.01497
 336        5PZ         0.00454
 337 19  H  1S          0.27262
 338        2S          0.45392
 339        3S          0.01724
 340        4S          0.04251
 341        5PX         0.00338
 342        5PY         0.01638
 343        5PZ         0.00289
 344 20  H  1S          0.27367
 345        2S          0.46481
 346        3S          0.03276
 347        4S         -0.01974
 348        5PX         0.00346
 349        5PY         0.01525
 350        5PZ         0.00429
 351 21  H  1S          0.27332
 352        2S          0.46275
 353        3S          0.01823
 354        4S         -0.02936
 355        5PX         0.01230
 356        5PY         0.00631
 357        5PZ         0.00445
 358 22  H  1S          0.27323
 359        2S          0.46153
 360        3S          0.01027
 361        4S         -0.02917
 362        5PX         0.01252
 363        5PY         0.00650
 364        5PZ         0.00367
 365 23  H  1S          0.27325
 366        2S          0.46348
 367        3S          0.03121
 368        4S         -0.03092
 369        5PX         0.00338
 370        5PY         0.01500
 371        5PZ         0.00458
 372 24  H  1S          0.26346
 373        2S          0.42804
 374        3S          0.01135
 375        4S          0.02741
 376        5PX         0.00342
 377        5PY         0.00769
 378        5PZ         0.00922
 379 25  H  1S          0.26346
 380        2S          0.42804
 381        3S          0.01135
 382        4S          0.02741
 383        5PX         0.00342
 384        5PY         0.00769
 385        5PZ         0.00922
          Condensed to atoms (all electrons):
               1          2          3          4          5          6
     1  C    8.798986   0.089035  -0.418423   2.129344  -0.068260  -0.101505
     2  C    0.089035   7.154026   0.226264  -1.133165   0.011510  -0.013581
     3  C   -0.418423   0.226264   6.575169   0.834321  -0.137679   0.016336
     4  C    2.129344  -1.133165   0.834321  10.475394  -0.380149  -0.111825
     5  C   -0.068260   0.011510  -0.137679  -0.380149  11.573869   0.741767
     6  C   -0.101505  -0.013581   0.016336  -0.111825   0.741767   6.601410
     7  C   -0.005104  -0.000222  -0.013543  -0.031306  -1.070830   0.420736
     8  C    0.399200  -0.024689  -0.086014  -0.020653   1.840394  -0.594460
     9  C   -1.119614  -0.770946   0.302870  -0.359240   0.031544   0.288992
    10  C   -1.338742   0.332411  -0.430819  -2.392219  -2.696373  -0.279731
    11  C    0.325131  -1.020125   1.144886  -0.186961  -1.567358  -0.233103
    12  C   -2.434754   1.676443  -1.498019  -1.575596  -0.491905  -0.113835
    13  C    0.251657  -0.306447  -0.096290  -1.371761  -0.450040   0.858622
    14  C   -1.003199  -0.091122  -0.290421  -0.213366  -1.710913  -1.361435
    15  H    0.369332  -0.109178   0.002308   0.028261   0.004700   0.001017
    16  H   -0.017848   0.376410  -0.015111   0.010826  -0.001377  -0.000308
    17  H   -0.031892  -0.009003   0.368777  -0.065701   0.000376   0.000392
    18  H    0.051871   0.003222  -0.083851   0.448104   0.005895  -0.005161
    19  H   -0.047020  -0.008475   0.052258  -0.055889  -0.082166   0.049421
    20  H    0.007018   0.002110  -0.005085   0.005622   0.468118  -0.084413
    21  H   -0.001340  -0.000375   0.000397   0.000199  -0.067683   0.379320
    22  H    0.001025   0.000389  -0.000334  -0.001583   0.015806  -0.020751
    23  H    0.004812  -0.002822   0.001142   0.006094   0.026861  -0.002821
    24  H    0.029186   0.013056  -0.001677  -0.012185  -0.011624  -0.001490
    25  H    0.029182   0.013054  -0.001679  -0.012182  -0.011626  -0.001491
               7          8          9         10         11         12
     1  C   -0.005104   0.399200  -1.119614  -1.338742   0.325131  -2.434754
     2  C   -0.000222  -0.024689  -0.770946   0.332411  -1.020125   1.676443
     3  C   -0.013543  -0.086014   0.302870  -0.430819   1.144886  -1.498019
     4  C   -0.031306  -0.020653  -0.359240  -2.392219  -0.186961  -1.575596
     5  C   -1.070830   1.840394   0.031544  -2.696373  -1.567358  -0.491905
     6  C    0.420736  -0.594460   0.288992  -0.279731  -0.233103  -0.113835
     7  C    7.176758   0.424525  -0.874603   0.191075  -0.208700  -0.260561
     8  C    0.424525   8.371946  -1.081803  -1.207876   0.232188  -1.154289
     9  C   -0.874603  -1.081803   9.563962   0.232660   1.488152  -1.681651
    10  C    0.191075  -1.207876   0.232660   9.052563  -0.539595   2.447371
    11  C   -0.208700   0.232188   1.488152  -0.539595  14.127576  -3.432838
    12  C   -0.260561  -1.154289  -1.681651   2.447371  -3.432838  15.778655
    13  C   -0.766315   0.342550   1.522351  -0.264345   1.068503  -4.823176
    14  C    1.139338  -1.933401  -2.110882   2.356478  -4.615754   3.091310
    15  H   -0.002322   0.006326   0.092102  -0.010879  -0.029104  -0.035912
    16  H    0.000325   0.000486   0.003229  -0.008292   0.023960  -0.030085
    17  H   -0.000397  -0.001266  -0.006253   0.020648  -0.030120   0.099053
    18  H    0.002026   0.006761  -0.025753   0.016772  -0.004436  -0.061684
    19  H   -0.007250  -0.043438   0.072955   0.419679   0.081149  -0.041643
    20  H    0.003123   0.048093  -0.022076   0.007539  -0.011979  -0.022626
    21  H   -0.022692  -0.020044  -0.004716   0.019057  -0.006212   0.005203
    22  H    0.380156  -0.019212   0.003041  -0.009607   0.003540  -0.010154
    23  H   -0.106394   0.367597   0.089682  -0.008460  -0.002428   0.007753
    24  H    0.015541   0.036762   0.355514   0.005149   0.003569  -0.058828
    25  H    0.015540   0.036754   0.355522   0.005150   0.003564  -0.058824
              13         14         15         16         17         18
     1  C    0.251657  -1.003199   0.369332  -0.017848  -0.031892   0.051871
     2  C   -0.306447  -0.091122  -0.109178   0.376410  -0.009003   0.003222
     3  C   -0.096290  -0.290421   0.002308  -0.015111   0.368777  -0.083851
     4  C   -1.371761  -0.213366   0.028261   0.010826  -0.065701   0.448104
     5  C   -0.450040  -1.710913   0.004700  -0.001377   0.000376   0.005895
     6  C    0.858622  -1.361435   0.001017  -0.000308   0.000392  -0.005161
     7  C   -0.766315   1.139338  -0.002322   0.000325  -0.000397   0.002026
     8  C    0.342550  -1.933401   0.006326   0.000486  -0.001266   0.006761
     9  C    1.522351  -2.110882   0.092102   0.003229  -0.006253  -0.025753
    10  C   -0.264345   2.356478  -0.010879  -0.008292   0.020648   0.016772
    11  C    1.068503  -4.615754  -0.029104   0.023960  -0.030120  -0.004436
    12  C   -4.823176   3.091310  -0.035912  -0.030085   0.099053  -0.061684
    13  C   14.546700  -3.949325   0.006943   0.002322  -0.006193  -0.011693
    14  C   -3.949325  16.215076   0.004628  -0.007653   0.004950  -0.006308
    15  H    0.006943   0.004628   0.443589  -0.009169   0.001377   0.000062
    16  H    0.002322  -0.007653  -0.009169   0.423112  -0.006203   0.001869
    17  H   -0.006193   0.004950   0.001377  -0.006203   0.423433  -0.010062
    18  H   -0.011693  -0.006308   0.000062   0.001869  -0.010062   0.456849
    19  H    0.074773  -0.088905   0.000252  -0.000517   0.001226  -0.006600
    20  H   -0.009703  -0.048314  -0.000105   0.000013  -0.000127   0.001252
    21  H   -0.022021   0.082662   0.000011  -0.000007   0.000010  -0.000158
    22  H    0.026733  -0.032754  -0.000126   0.000007  -0.000007   0.000018
    23  H   -0.032576  -0.014622   0.000556  -0.000124   0.000016  -0.000117
    24  H    0.022269  -0.059590  -0.000820   0.000641  -0.000145   0.000213
    25  H    0.022272  -0.059579  -0.000819   0.000641  -0.000145   0.000213
              19         20         21         22         23         24
     1  C   -0.047020   0.007018  -0.001340   0.001025   0.004812   0.029186
     2  C   -0.008475   0.002110  -0.000375   0.000389  -0.002822   0.013056
     3  C    0.052258  -0.005085   0.000397  -0.000334   0.001142  -0.001677
     4  C   -0.055889   0.005622   0.000199  -0.001583   0.006094  -0.012185
     5  C   -0.082166   0.468118  -0.067683   0.015806   0.026861  -0.011624
     6  C    0.049421  -0.084413   0.379320  -0.020751  -0.002821  -0.001490
     7  C   -0.007250   0.003123  -0.022692   0.380156  -0.106394   0.015541
     8  C   -0.043438   0.048093  -0.020044  -0.019212   0.367597   0.036762
     9  C    0.072955  -0.022076  -0.004716   0.003041   0.089682   0.355514
    10  C    0.419679   0.007539   0.019057  -0.009607  -0.008460   0.005149
    11  C    0.081149  -0.011979  -0.006212   0.003540  -0.002428   0.003569
    12  C   -0.041643  -0.022626   0.005203  -0.010154   0.007753  -0.058828
    13  C    0.074773  -0.009703  -0.022021   0.026733  -0.032576   0.022269
    14  C   -0.088905  -0.048314   0.082662  -0.032754  -0.014622  -0.059590
    15  H    0.000252  -0.000105   0.000011  -0.000126   0.000556  -0.000820
    16  H   -0.000517   0.000013  -0.000007   0.000007  -0.000124   0.000641
    17  H    0.001226  -0.000127   0.000010  -0.000007   0.000016  -0.000145
    18  H   -0.006600   0.001252  -0.000158   0.000018  -0.000117   0.000213
    19  H    0.442551  -0.005962   0.001599  -0.000548   0.000367   0.000564
    20  H   -0.005962   0.449750  -0.010264   0.001966   0.000252   0.000151
    21  H    0.001599  -0.010264   0.420465  -0.006701   0.001537  -0.000135
    22  H   -0.000548   0.001966  -0.006701   0.415158  -0.008745   0.000623
    23  H    0.000367   0.000252   0.001537  -0.008745   0.434393  -0.000983
    24  H    0.000564   0.000151  -0.000135   0.000623  -0.000983   0.493126
    25  H    0.000564   0.000151  -0.000135   0.000623  -0.000983  -0.078287
              25
     1  C    0.029182
     2  C    0.013054
     3  C   -0.001679
     4  C   -0.012182
     5  C   -0.011626
     6  C   -0.001491
     7  C    0.015540
     8  C    0.036754
     9  C    0.355522
    10  C    0.005150
    11  C    0.003564
    12  C   -0.058824
    13  C    0.022272
    14  C   -0.059579
    15  H   -0.000819
    16  H    0.000641
    17  H   -0.000145
    18  H    0.000213
    19  H    0.000564
    20  H    0.000151
    21  H   -0.000135
    22  H    0.000623
    23  H   -0.000983
    24  H   -0.078287
    25  H    0.493122
 Mulliken charges:
               1
     1  C    0.101923
     2  C   -0.407781
     3  C   -0.445781
     4  C   -0.014384
     5  C    0.027143
     6  C   -0.432102
     7  C   -0.398902
     8  C    0.073563
     9  C   -0.345039
    10  C    0.080385
    11  C   -0.613505
    12  C    0.680593
    13  C   -0.635809
    14  C    0.703101
    15  H    0.236970
    16  H    0.252852
    17  H    0.247256
    18  H    0.220695
    19  H    0.191055
    20  H    0.225497
    21  H    0.252020
    22  H    0.261439
    23  H    0.240015
    24  H    0.249400
    25  H    0.249398
 Sum of Mulliken charges =   1.00000
 Mulliken charges with hydrogens summed into heavy atoms:
               1
     1  C    0.338893
     2  C   -0.154930
     3  C   -0.198525
     4  C    0.206312
     5  C    0.252639
     6  C   -0.180083
     7  C   -0.137464
     8  C    0.313578
     9  C    0.153759
    10  C    0.271440
    11  C   -0.613505
    12  C    0.680593
    13  C   -0.635809
    14  C    0.703101
 Electronic spatial extent (au):  <R**2>=           2868.9647
 Charge=              1.0000 electrons
 Dipole moment (field-independent basis, Debye):
    X=             -0.9029    Y=              0.1803    Z=              0.0000  Tot=              0.9208
 Quadrupole moment (field-independent basis, Debye-Ang):
   XX=            -30.7988   YY=            -56.1917   ZZ=            -84.2694
   XY=             -0.0735   XZ=             -0.0001   YZ=             -0.0000
 Traceless Quadrupole moment (field-independent basis, Debye-Ang):
   XX=             26.2878   YY=              0.8949   ZZ=            -27.1827
   XY=             -0.0735   XZ=             -0.0001   YZ=             -0.0000
 Octapole moment (field-independent basis, Debye-Ang**2):
  XXX=            -10.0400  YYY=              5.3600  ZZZ=              0.0000  XYY=             -2.1155
  XXY=             -5.3080  XXZ=             -0.0000  XZZ=             -1.3127  YZZ=             -3.1489
  YYZ=              0.0000  XYZ=              0.0002
 Hexadecapole moment (field-independent basis, Debye-Ang**3):
 XXXX=          -2127.0306 YYYY=           -611.8651 ZZZZ=            -99.6961 XXXY=              2.0715
 XXXZ=              0.0004 YYYX=             -0.8293 YYYZ=             -0.0000 ZZZX=              0.0001
 ZZZY=             -0.0000 XXYY=           -509.2646 XXZZ=           -594.3998 YYZZ=           -146.5110
 XXYZ=              0.0000 YYXZ=             -0.0005 ZZXY=             -0.4208
 N-N= 7.793249914393D+02 E-N=-2.794886858314D+03  KE= 5.373566720772D+02
 Orbital energies and kinetic energies (alpha):
                                 1                 2
  43         O                -0.544420          1.577214
  44         O                -0.523309          1.038331
  45         O                -0.470434          1.131776
  46         O                -0.460454          1.150152
  47         O                -0.439469          1.157496
  48         V                -0.261228          1.267391
  49         V                -0.147242          1.104138
  50         V                -0.141122          1.312898
  51         V                -0.128291          1.279887
  52         V                -0.111753          0.204334
 Total kinetic energy from orbitals= 5.373566720772D+02
 Unable to Open any file for archive entry.
 1\1\GINC-GADI-CPU-CLX-1686\SP\RM062X TD-FC\6-311++G(d,p)\C14H11(1+)\TS
 1578\14-Jul-2022\0\\#n M062X/6-311++G(d,p) TD SP pop=reg formcheck\\SP
 _10\\1,1\C,0,2.5170579114,1.3730051703,0.\C,0,3.7297589331,0.690344226
 5,0.\C,0,3.7031688551,-0.690183451,0.\C,0,2.4468541937,-1.3941780181,0
 .\C,0,-2.4909658063,-1.4112071522,0.\C,0,-3.6820363151,-0.7243443045,0
 .\C,0,-3.6903662372,0.6745461141,0.\C,0,-2.4804350144,1.3725948297,0.\
 C,0,0.0085145671,1.467398096,0.\C,0,-0.0321091506,-1.4246325851,0.\C,0
 ,1.2539511449,0.6745068568,0.\C,0,1.2324557735,-0.7213057119,0.\C,0,-1
 .2753914403,0.6998453878,0.\C,0,-1.2485616414,-0.7257168732,0.\H,0,2.5
 007647682,2.4586429257,0.\H,0,4.6661182519,1.2303161305,0.\H,0,4.62201
 42881,-1.2646408822,0.\H,0,2.4627159746,-2.4795361141,0.\H,0,-0.027390
 2339,-2.5077751703,0.\H,0,-2.4844640254,-2.4953342265,0.\H,0,-4.617910
 8822,-1.2687442881,0.\H,0,-4.6284695035,1.2157490398,0.\H,0,-2.4892752
 318,2.4577196594,0.\H,0,0.0472917522,2.1565774149,-0.8640777554\H,0,0.
 0473943373,2.1565774149,0.8640777554\\Version=ES64L-G16RevC.01\State=1
 -A\HF=-539.7545849\RMSD=8.979e-09\PG=C01 [X(C14H11)]\\@
 The archive entry for this job was punched.


 IT PROBABLY IS NOT POSSIBLE FOR A SCIENTIST TO INTERROGATE NATURE 
 FROM A WHOLLY DISINTERESTED VIEWPOINT.
 EVEN IF HE HAS NO PARTICULAR AXE TO GRIND, HE IS LIKELY TO HAVE 
 A DISTINCTIVE WAY OF VIEWING NATURE.

                                                   -- JOHN LOSEE
 FChkPn:  Coordinates translated and rotated.
 FChkPn:  Coordinates match /B/ after translation and rotation.
 Job cpu time:       0 days  1 hours 14 minutes 21.2 seconds.
 Elapsed time:       0 days  0 hours  9 minutes 56.2 seconds.
 File lengths (MBytes):  RWF=    532 Int=      0 D2E=      0 Chk=     24 Scr=      1
 Normal termination of Gaussian 16 at Thu Jul 14 14:17:06 2022.
