 Entering Gaussian System, Link 0=g16
 Initial command:
 /apps/gaussian/g16c01/g16/l1.exe "/jobfs/51125639.gadi-pbs/Gau-129052.inp" -scrdir="/jobfs/51125639.gadi-pbs/"
 Entering Link 1 = /apps/gaussian/g16c01/g16/l1.exe PID=    129053.
  
 Copyright (c) 1988-2019, Gaussian, Inc.  All Rights Reserved.
  
 This is part of the Gaussian(R) 16 program.  It is based on
 the Gaussian(R) 09 system (copyright 2009, Gaussian, Inc.),
 the Gaussian(R) 03 system (copyright 2003, Gaussian, Inc.),
 the Gaussian(R) 98 system (copyright 1998, Gaussian, Inc.),
 the Gaussian(R) 94 system (copyright 1995, Gaussian, Inc.),
 the Gaussian 92(TM) system (copyright 1992, Gaussian, Inc.),
 the Gaussian 90(TM) system (copyright 1990, Gaussian, Inc.),
 the Gaussian 88(TM) system (copyright 1988, Gaussian, Inc.),
 the Gaussian 86(TM) system (copyright 1986, Carnegie Mellon
 University), and the Gaussian 82(TM) system (copyright 1983,
 Carnegie Mellon University). Gaussian is a federally registered
 trademark of Gaussian, Inc.
  
 This software contains proprietary and confidential information,
 including trade secrets, belonging to Gaussian, Inc.
  
 This software is provided under written license and may be
 used, copied, transmitted, or stored only in accord with that
 written license.
  
 The following legend is applicable only to US Government
 contracts under FAR:
  
                    RESTRICTED RIGHTS LEGEND
  
 Use, reproduction and disclosure by the US Government is
 subject to restrictions as set forth in subparagraphs (a)
 and (c) of the Commercial Computer Software - Restricted
 Rights clause in FAR 52.227-19.
  
 Gaussian, Inc.
 340 Quinnipiac St., Bldg. 40, Wallingford CT 06492
  
  
 ---------------------------------------------------------------
 Warning -- This program may not be used in any manner that
 competes with the business of Gaussian, Inc. or will provide
 assistance to any competitor of Gaussian, Inc.  The licensee
 of this program is prohibited from giving any competitor of
 Gaussian, Inc. access to this program.  By using this program,
 the user acknowledges that Gaussian, Inc. is engaged in the
 business of creating and licensing software in the field of
 computational chemistry and represents and warrants to the
 licensee that it is not a competitor of Gaussian, Inc. and that
 it will not use this program in any manner prohibited above.
 ---------------------------------------------------------------
  

 Cite this work as:
 Gaussian 16, Revision C.01,
 M. J. Frisch, G. W. Trucks, H. B. Schlegel, G. E. Scuseria, 
 M. A. Robb, J. R. Cheeseman, G. Scalmani, V. Barone, 
 G. A. Petersson, H. Nakatsuji, X. Li, M. Caricato, A. V. Marenich, 
 J. Bloino, B. G. Janesko, R. Gomperts, B. Mennucci, H. P. Hratchian, 
 J. V. Ortiz, A. F. Izmaylov, J. L. Sonnenberg, D. Williams-Young, 
 F. Ding, F. Lipparini, F. Egidi, J. Goings, B. Peng, A. Petrone, 
 T. Henderson, D. Ranasinghe, V. G. Zakrzewski, J. Gao, N. Rega, 
 G. Zheng, W. Liang, M. Hada, M. Ehara, K. Toyota, R. Fukuda, 
 J. Hasegawa, M. Ishida, T. Nakajima, Y. Honda, O. Kitao, H. Nakai, 
 T. Vreven, K. Throssell, J. A. Montgomery, Jr., J. E. Peralta, 
 F. Ogliaro, M. J. Bearpark, J. J. Heyd, E. N. Brothers, K. N. Kudin, 
 V. N. Staroverov, T. A. Keith, R. Kobayashi, J. Normand, 
 K. Raghavachari, A. P. Rendell, J. C. Burant, S. S. Iyengar, 
 J. Tomasi, M. Cossi, J. M. Millam, M. Klene, C. Adamo, R. Cammi, 
 J. W. Ochterski, R. L. Martin, K. Morokuma, O. Farkas, 
 J. B. Foresman, and D. J. Fox, Gaussian, Inc., Wallingford CT, 2019.
 
 ******************************************
 Gaussian 16:  ES64L-G16RevC.01  3-Jul-2019
                14-Jul-2022 
 ******************************************
 %NProcShared=8
 Will use up to    8 processors via shared memory.
 %mem = 32GB
 %Chk=check_sp_8
 ----------------------------------------------
 #n M062X/6-311++G(d,p) TD SP pop=reg formcheck
 ----------------------------------------------
 1/38=1,172=1/1;
 2/12=2,17=6,18=5,40=1/2;
 3/5=4,6=6,7=1111,11=9,25=1,30=1,74=-55/1,2,3,8;
 4//1;
 5/5=2,38=5/2;
 8/6=1,10=2/1;
 9/42=1,70=2/14;
 6//1;
 99/5=1,9=1/99;
 ----
 SP_8
 ----
 Symbolic Z-matrix:
 Charge =  1 Multiplicity = 1
 C                     2.51334   1.37296   0. 
 C                     3.7258    0.68872   0. 
 C                     3.70104  -0.69357   0. 
 C                     2.45127  -1.39586   0. 
 C                    -2.48655  -1.40948   0. 
 C                    -3.68413  -0.7209    0. 
 C                    -3.69428   0.67608   0. 
 C                    -2.48405   1.37264   0. 
 C                     0.00681   1.46725   0. 
 C                    -0.02569  -1.42461   0. 
 C                     1.25608   0.67707   0. 
 C                     1.23408  -0.72174   0. 
 C                    -1.27324   0.69734   0. 
 C                    -1.24696  -0.72527   0. 
 H                     2.49962   2.45854   0. 
 H                     4.66232   1.22884   0. 
 H                     4.62158  -1.26503   0. 
 H                     2.46489  -2.48107   0. 
 H                    -0.02191  -2.50773   0. 
 H                    -2.48229  -2.49371   0. 
 H                    -4.6183   -1.26831   0. 
 H                    -4.6322    1.21719   0. 
 H                    -2.49042   2.4578    0. 
 H                     0.03783   2.1566   -0.86402 
 H                     0.03792   2.1566    0.86402 
 
                          Input orientation:                          
 ---------------------------------------------------------------------
 Center     Atomic      Atomic             Coordinates (Angstroms)
 Number     Number       Type             X           Y           Z
 ---------------------------------------------------------------------
      1          6           0        2.513344    1.372964    0.000000
      2          6           0        3.725799    0.688723    0.000000
      3          6           0        3.701035   -0.693569    0.000000
      4          6           0        2.451265   -1.395860    0.000000
      5          6           0       -2.486555   -1.409484    0.000000
      6          6           0       -3.684129   -0.720897    0.000000
      7          6           0       -3.694285    0.676085    0.000000
      8          6           0       -2.484046    1.372636    0.000000
      9          6           0        0.006812    1.467254    0.000000
     10          6           0       -0.025687   -1.424612    0.000000
     11          6           0        1.256085    0.677071    0.000000
     12          6           0        1.234077   -0.721737    0.000000
     13          6           0       -1.273237    0.697342    0.000000
     14          6           0       -1.246961   -0.725265    0.000000
     15          1           0        2.499616    2.458540    0.000000
     16          1           0        4.662323    1.228839    0.000000
     17          1           0        4.621583   -1.265031    0.000000
     18          1           0        2.464891   -2.481075    0.000000
     19          1           0       -0.021912   -2.507734    0.000000
     20          1           0       -2.482289   -2.493713    0.000000
     21          1           0       -4.618301   -1.268313    0.000000
     22          1           0       -4.632204    1.217185    0.000000
     23          1           0       -2.490424    2.457802    0.000000
     24          1           0        0.037833    2.156598   -0.864016
     25          1           0        0.037915    2.156598    0.864016
 ---------------------------------------------------------------------
                    Distance matrix (angstroms):
                    1          2          3          4          5
     1  C    0.000000
     2  C    1.392204   0.000000
     3  C    2.383520   1.382514   0.000000
     4  C    2.769520   2.443343   1.433575   0.000000
     5  C    5.721976   6.557119   6.228868   4.937839   0.000000
     6  C    6.541631   7.542816   7.385215   6.172410   1.381425
     7  C    6.246623   7.420095   7.521084   6.485426   2.410023
     8  C    4.997390   6.247393   6.521076   5.658787   2.782121
     9  C    2.508306   3.799602   4.279771   3.764675   3.806901
    10  C    3.777978   4.305791   3.797747   2.477120   2.460914
    11  C    1.437000   2.469742   2.802933   2.392802   4.284981
    12  C    2.454444   2.863229   2.467119   1.391399   3.783661
    13  C    3.846383   4.999044   5.165077   4.272402   2.431225
    14  C    4.306096   5.169885   4.948098   3.758534   1.415891
    15  H    1.085663   2.153086   3.373307   3.854704   6.310587
    16  H    2.153806   1.081111   2.149355   3.431883   7.620183
    17  H    3.376935   2.149322   1.083503   2.174258   7.109606
    18  H    3.854344   3.411380   2.173300   1.085300   5.066075
    19  H    4.635444   4.925716   4.141441   2.711618   2.698262
    20  H    6.317242   6.976264   6.440033   5.054230   1.084238
    21  H    7.605045   8.570531   8.339165   7.070717   2.136415
    22  H    7.147246   8.374693   8.549494   7.550069   3.391637
    23  H    5.120017   6.463054   6.947324   6.266658   3.867287
    24  H    2.736560   4.062299   4.721125   4.380769   4.453762
    25  H    2.736486   4.062224   4.721061   4.380724   4.453809
                    6          7          8          9         10
     6  C    0.000000
     7  C    1.397019   0.000000
     8  C    2.413106   1.396374   0.000000
     9  C    4.290810   3.784715   2.492654   0.000000
    10  C    3.725508   4.227474   3.723993   2.892049   0.000000
    11  C    5.134202   4.950370   3.804259   1.478199   2.461710
    12  C    4.918206   5.122758   4.267415   2.509554   1.442581
    13  C    2.797106   2.421141   1.386391   1.493750   2.461518
    14  C    2.437172   2.820138   2.435481   2.525686   1.407336
    15  H    6.953238   6.445274   5.100595   2.682670   4.632065
    16  H    8.571157   8.374869   7.147815   4.661612   5.386858
    17  H    8.323517   8.539414   7.579397   5.362975   4.650010
    18  H    6.395989   6.921207   6.272405   4.650963   2.705382
    19  H    4.074876   4.860352   4.595582   3.975092   1.083129
    20  H    2.141797   3.393605   3.866350   4.678129   2.679155
    21  H    1.082747   2.152787   3.395535   5.373546   4.595272
    22  H    2.157547   1.082812   2.153775   4.645750   5.310281
    23  H    3.395447   2.150301   1.085185   2.686516   4.598703
    24  H    4.783253   4.106964   2.778668   1.105749   3.684511
    25  H    4.783317   4.107038   2.778743   1.105751   3.684513
                   11         12         13         14         15
    11  C    0.000000
    12  C    1.398981   0.000000
    13  C    2.529403   2.881043   0.000000
    14  C    2.869110   2.481040   1.422850   0.000000
    15  H    2.172556   3.422828   4.163681   4.916651   0.000000
    16  H    3.450638   3.944314   5.959309   6.223999   2.487864
    17  H    3.885658   3.430797   6.212875   5.893315   4.285759
    18  H    3.381582   2.147132   4.906724   4.106180   4.939737
    19  H    3.431656   2.183414   3.440687   2.162855   5.569738
    20  H    4.901971   4.117193   3.412425   2.157184   7.024542
    21  H    6.188128   5.877845   3.879852   3.414796   8.034561
    22  H    5.913008   6.178403   3.398955   3.902945   7.239048
    23  H    4.148172   4.897078   2.140271   3.417326   4.990040
    24  H    2.102299   3.234553   2.143562   3.271446   2.626417
    25  H    2.102251   3.234522   2.143612   3.271478   2.626340
                   16         17         18         19         20
    16  H    0.000000
    17  H    2.494202   0.000000
    18  H    4.311864   2.475901   0.000000
    19  H    5.991997   4.806908   2.486946   0.000000
    20  H    8.056232   7.209346   4.947196   2.460417   0.000000
    21  H    9.610710   9.239885   7.186264   4.760562   2.462550
    22  H    9.294534   9.580917   8.002867   5.927041   4.288694
    23  H    7.257557   8.027461   6.996260   5.545277   4.951522
    24  H    4.795118   5.784880   5.305199   4.744058   5.359378
    25  H    4.795039   5.784814   5.305162   4.744059   5.359417
                   21         22         23         24         25
    21  H    0.000000
    22  H    2.485538   0.000000
    23  H    4.290896   2.475146   0.000000
    24  H    5.844324   4.841308   2.688742   0.000000
    25  H    5.844390   4.841387   2.688819   1.728032   0.000000
 Stoichiometry    C14H11(1+)
 Framework group  C1[X(C14H11)]
 Deg. of freedom    69
 Full point group                 C1      NOp   1
 Largest Abelian subgroup         C1      NOp   1
 Largest concise Abelian subgroup C1      NOp   1
                         Standard orientation:                         
 ---------------------------------------------------------------------
 Center     Atomic      Atomic             Coordinates (Angstroms)
 Number     Number       Type             X           Y           Z
 ---------------------------------------------------------------------
      1          6           0        2.519224   -1.352623    0.000000
      2          6           0        3.728491   -0.662765    0.000000
      3          6           0        3.697315    0.719397    0.000000
      4          6           0        2.444301    1.415884    0.000000
      5          6           0       -2.493529    1.406601    0.000000
      6          6           0       -3.687896    0.712467    0.000000
      7          6           0       -3.691572   -0.684547    0.000000
      8          6           0       -2.478114   -1.375477    0.000000
      9          6           0        0.013155   -1.458540    0.000000
     10          6           0       -0.032758    1.433145    0.000000
     11          6           0        1.258750   -0.662570    0.000000
     12          6           0        1.230253    0.736121    0.000000
     13          6           0       -1.270451   -0.694574    0.000000
     14          6           0       -1.250775    0.728141    0.000000
     15          1           0        2.510531   -2.438251    0.000000
     16          1           0        4.667510   -1.198530    0.000000
     17          1           0        4.615203    1.295123    0.000000
     18          1           0        2.452892    2.501150    0.000000
     19          1           0       -0.034008    2.516273    0.000000
     20          1           0       -2.494293    2.490839    0.000000
     21          1           0       -4.624597    1.255544    0.000000
     22          1           0       -4.626970   -1.229993    0.000000
     23          1           0       -2.479459   -2.460660    0.000000
     24          1           0        0.047374   -2.147732    0.864016
     25          1           0        0.047457   -2.147731   -0.864016
 ---------------------------------------------------------------------
 Rotational constants (GHZ):           2.1250183           0.4425242           0.3670543
 Standard basis: 6-311++G(d,p) (5D, 7F)
 There are   399 symmetry adapted cartesian basis functions of A   symmetry.
 There are   385 symmetry adapted basis functions of A   symmetry.
   385 basis functions,   603 primitive gaussians,   399 cartesian basis functions
    47 alpha electrons       47 beta electrons
       nuclear repulsion energy       779.3190430258 Hartrees.
 NAtoms=   25 NActive=   25 NUniq=   25 SFac= 1.00D+00 NAtFMM=   60 NAOKFM=F Big=F
 Integral buffers will be    131072 words long.
 Regular integral format.
 Two-electron integral symmetry is turned on.
 One-electron integrals computed using PRISM.
 NBasis=   385 RedAO= T EigKep=  1.15D-06  NBF=   385
 NBsUse=   379 1.00D-06 EigRej=  8.65D-07 NBFU=   379
 ExpMin= 3.60D-02 ExpMax= 4.56D+03 ExpMxC= 6.82D+02 IAcc=3 IRadAn=         5 AccDes= 0.00D+00
 Harris functional with IExCor= 1009 and IRadAn=       5 diagonalized for initial guess.
 HarFok:  IExCor= 1009 AccDes= 0.00D+00 IRadAn=         5 IDoV= 1 UseB2=F ITyADJ=14
 ICtDFT=  3500011 ScaDFX=  1.000000  1.000000  1.000000  1.000000
 FoFCou: FMM=F IPFlag=           0 FMFlag=      100000 FMFlg1=           0
         NFxFlg=           0 DoJE=T BraDBF=F KetDBF=T FulRan=T
         wScrn=  0.000000 ICntrl=       500 IOpCl=  0 I1Cent=   200000004 NGrid=           0
         NMat0=    1 NMatS0=      1 NMatT0=    0 NMatD0=    1 NMtDS0=    0 NMtDT0=    0
 Petite list used in FoFCou.
 Requested convergence on RMS density matrix=1.00D-08 within 128 cycles.
 Requested convergence on MAX density matrix=1.00D-06.
 Requested convergence on             energy=1.00D-06.
 No special actions if energy rises.
 SCF Done:  E(RM062X) =  -539.756181531     A.U. after   15 cycles
            NFock= 15  Conv=0.83D-08     -V/T= 2.0045
 DoSCS=F DFT=T ScalE2(SS,OS)=  1.000000  1.000000
 ExpMin= 3.60D-02 ExpMax= 4.56D+03 ExpMxC= 6.82D+02 IAcc=3 IRadAn=         5 AccDes= 0.00D+00
 HarFok:  IExCor=  205 AccDes= 0.00D+00 IRadAn=         5 IDoV=-2 UseB2=F ITyADJ=14
 ICtDFT= 12500011 ScaDFX=  1.000000  1.000000  1.000000  1.000000
 Range of M.O.s used for correlation:    15   379
 NBasis=   385 NAE=    47 NBE=    47 NFC=    14 NFV=     0
 NROrb=    365 NOA=    33 NOB=    33 NVA=   332 NVB=   332

 **** Warning!!: The largest alpha MO coefficient is  0.13462560D+03

 Orbital symmetries:
       Occupied  (A) (A) (A) (A) (A) (A) (A) (A) (A) (A) (A) (A)
                 (A) (A) (A) (A) (A) (A) (A) (A) (A) (A) (A) (A)
                 (A) (A) (A) (A) (A) (A) (A) (A) (A) (A) (A) (A)
                 (A) (A) (A) (A) (A) (A) (A) (A) (A) (A) (A)
       Virtual   (A) (A) (A) (A) (A) (A) (A) (A) (A) (A) (A) (A)
                 (A) (A) (A) (A) (A) (A) (A) (A) (A) (A) (A) (A)
                 (A) (A) (A) (A) (A) (A) (A) (A) (A) (A) (A) (A)
                 (A) (A) (A) (A) (A) (A) (A) (A) (A) (A) (A) (A)
                 (A) (A) (A) (A) (A) (A) (A) (A) (A) (A) (A) (A)
                 (A) (A) (A) (A) (A) (A) (A) (A) (A) (A) (A) (A)
                 (A) (A) (A) (A) (A) (A) (A) (A) (A) (A) (A) (A)
                 (A) (A) (A) (A) (A) (A) (A) (A) (A) (A) (A) (A)
                 (A) (A) (A) (A) (A) (A) (A) (A) (A) (A) (A) (A)
                 (A) (A) (A) (A) (A) (A) (A) (A) (A) (A) (A) (A)
                 (A) (A) (A) (A) (A) (A) (A) (A) (A) (A) (A) (A)
                 (A) (A) (A) (A) (A) (A) (A) (A) (A) (A) (A) (A)
                 (A) (A) (A) (A) (A) (A) (A) (A) (A) (A) (A) (A)
                 (A) (A) (A) (A) (A) (A) (A) (A) (A) (A) (A) (A)
                 (A) (A) (A) (A) (A) (A) (A) (A) (A) (A) (A) (A)
                 (A) (A) (A) (A) (A) (A) (A) (A) (A) (A) (A) (A)
                 (A) (A) (A) (A) (A) (A) (A) (A) (A) (A) (A) (A)
                 (A) (A) (A) (A) (A) (A) (A) (A) (A) (A) (A) (A)
                 (A) (A) (A) (A) (A) (A) (A) (A) (A) (A) (A) (A)
                 (A) (A) (A) (A) (A) (A) (A) (A) (A) (A) (A) (A)
                 (A) (A) (A) (A) (A) (A) (A) (A) (A) (A) (A) (A)
                 (A) (A) (A) (A) (A) (A) (A) (A) (A) (A) (A) (A)
                 (A) (A) (A) (A) (A) (A) (A) (A) (A) (A) (A) (A)
                 (A) (A) (A) (A) (A) (A) (A) (A) (A) (A) (A) (A)
                 (A) (A) (A) (A) (A) (A) (A) (A) (A) (A) (A) (A)
                 (A) (A) (A) (A) (A) (A) (A) (A) (A) (A) (A) (A)
                 (A) (A) (A) (A) (A) (A) (A) (A) (A) (A) (A) (A)
                 (A) (A) (A) (A) (A) (A) (A) (A)
    12 initial guesses have been made.
 Convergence on wavefunction:    0.001000000000000
 Iteration     1 Dimension    12 NMult     0 NNew     12
 CISAX will form    12 AO SS matrices at one time.
 New state      2 was old state      3
 New state      3 was old state      2
 Iteration     2 Dimension    18 NMult    12 NNew      6
 Iteration     3 Dimension    24 NMult    18 NNew      6
 Iteration     4 Dimension    30 NMult    24 NNew      6
 Iteration     5 Dimension    36 NMult    30 NNew      6
 Iteration     6 Dimension    42 NMult    36 NNew      6
 ***********************************************************************
 Excited states from <AA,BB:AA,BB> singles matrix:
 ***********************************************************************
 
 Ground to excited state transition densities written to RWF  633
 Ground to excited state transition electric dipole moments (Au):
       state          X           Y           Z        Dip. S.      Osc.
         1         0.0397     -0.5819      0.0000      0.3401      0.0228
         2         0.3497      0.2736     -0.0000      0.1972      0.0160
         3         2.5334     -0.0310      0.0000      6.4192      0.5461
 Ground to excited state transition velocity dipole moments (Au):
       state          X           Y           Z        Dip. S.      Osc.
         1        -0.0011      0.0655     -0.0000      0.0043      0.0285
         2        -0.0361     -0.0361     -0.0000      0.0026      0.0143
         3        -0.3262      0.0042     -0.0000      0.1064      0.5561
 Ground to excited state transition magnetic dipole moments (Au):
       state          X           Y           Z
         1         0.0000      0.0000      0.1533
         2        -0.0000     -0.0000      1.0364
         3        -0.0000      0.0000      1.0048
 Ground to excited state transition velocity quadrupole moments (Au):
       state          XX          YY          ZZ          XY          XZ          YZ
         1         0.2620      0.0303     -0.0088      0.0707     -0.0000      0.0000
         2        -0.1341     -0.0208      0.0045      0.2988     -0.0000     -0.0000
         3         0.0871     -0.0029     -0.0008      0.0942     -0.0000     -0.0000
 <0|del|b> * <b|rxdel|0> + <0|del|b> * <b|delr+rdel|0>
 Rotatory Strengths (R) in cgs (10**-40 erg-esu-cm/Gauss)
       state          XX          YY          ZZ    R(velocity)    E-M Angle
         1         0.0016     -0.0004      0.0016      0.0009       90.00
         2        -0.0027     -0.0014      0.0004     -0.0012       90.00
         3        -0.0067      0.0003     -0.0008     -0.0024       90.00
 1/2[<0|r|b>*<b|rxdel|0> + (<0|rxdel|b>*<b|r|0>)*]
 Rotatory Strengths (R) in cgs (10**-40 erg-esu-cm/Gauss)
       state          XX          YY          ZZ     R(length)
         1        -0.0001      0.0036     -0.0002      0.0011
         2         0.0004      0.0003      0.0003      0.0004
         3         0.0050      0.0001     -0.0023      0.0009
  1/2[<0|del|b>*<b|r|0> + (<0|r|b>*<b|del|0>)*] (Au)
       state          X           Y           Z        Dip. S.   Osc.(frdel)
         1        -0.0000     -0.0381     -0.0000      0.0382      0.0254
         2        -0.0126     -0.0099      0.0000      0.0225      0.0150
         3        -0.8265     -0.0001     -0.0000      0.8266      0.5511

 Excitation energies and oscillator strengths:
 
 Excited State   1:      Singlet-A      2.7309 eV  454.00 nm  f=0.0228  <S**2>=0.000
      47 -> 48         0.70363
 This state for optimization and/or second-order correction.
 Total Energy, E(TD-HF/TD-DFT) =  -539.655821616    
 Copying the excited state density for this state as the 1-particle RhoCI density.
 
 Excited State   2:      Singlet-A      3.3170 eV  373.78 nm  f=0.0160  <S**2>=0.000
      45 -> 48         0.64109
      46 -> 48         0.28456
 
 Excited State   3:      Singlet-A      3.4725 eV  357.05 nm  f=0.5461  <S**2>=0.000
      45 -> 48        -0.28712
      46 -> 48         0.63685
 SavETr:  write IOETrn=   770 NScale= 10 NData=  16 NLR=1 NState=    3 LETran=      64.

 **********************************************************************

            Population analysis using the SCF Density.

 **********************************************************************

 Orbital symmetries:
       Occupied  (A) (A) (A) (A) (A) (A) (A) (A) (A) (A) (A) (A)
                 (A) (A) (A) (A) (A) (A) (A) (A) (A) (A) (A) (A)
                 (A) (A) (A) (A) (A) (A) (A) (A) (A) (A) (A) (A)
                 (A) (A) (A) (A) (A) (A) (A) (A) (A) (A) (A)
       Virtual   (A) (A) (A) (A) (A) (A) (A) (A) (A) (A) (A) (A)
                 (A) (A) (A) (A) (A) (A) (A) (A) (A) (A) (A) (A)
                 (A) (A) (A) (A) (A) (A) (A) (A) (A) (A) (A) (A)
                 (A) (A) (A) (A) (A) (A) (A) (A) (A) (A) (A) (A)
                 (A) (A) (A) (A) (A) (A) (A) (A) (A) (A) (A) (A)
                 (A) (A) (A) (A) (A) (A) (A) (A) (A) (A) (A) (A)
                 (A) (A) (A) (A) (A) (A) (A) (A) (A) (A) (A) (A)
                 (A) (A) (A) (A) (A) (A) (A) (A) (A) (A) (A) (A)
                 (A) (A) (A) (A) (A) (A) (A) (A) (A) (A) (A) (A)
                 (A) (A) (A) (A) (A) (A) (A) (A) (A) (A) (A) (A)
                 (A) (A) (A) (A) (A) (A) (A) (A) (A) (A) (A) (A)
                 (A) (A) (A) (A) (A) (A) (A) (A) (A) (A) (A) (A)
                 (A) (A) (A) (A) (A) (A) (A) (A) (A) (A) (A) (A)
                 (A) (A) (A) (A) (A) (A) (A) (A) (A) (A) (A) (A)
                 (A) (A) (A) (A) (A) (A) (A) (A) (A) (A) (A) (A)
                 (A) (A) (A) (A) (A) (A) (A) (A) (A) (A) (A) (A)
                 (A) (A) (A) (A) (A) (A) (A) (A) (A) (A) (A) (A)
                 (A) (A) (A) (A) (A) (A) (A) (A) (A) (A) (A) (A)
                 (A) (A) (A) (A) (A) (A) (A) (A) (A) (A) (A) (A)
                 (A) (A) (A) (A) (A) (A) (A) (A) (A) (A) (A) (A)
                 (A) (A) (A) (A) (A) (A) (A) (A) (A) (A) (A) (A)
                 (A) (A) (A) (A) (A) (A) (A) (A) (A) (A) (A) (A)
                 (A) (A) (A) (A) (A) (A) (A) (A) (A) (A) (A) (A)
                 (A) (A) (A) (A) (A) (A) (A) (A) (A) (A) (A) (A)
                 (A) (A) (A) (A) (A) (A) (A) (A) (A) (A) (A) (A)
                 (A) (A) (A) (A) (A) (A) (A) (A) (A) (A) (A) (A)
                 (A) (A) (A) (A) (A) (A) (A) (A) (A) (A) (A) (A)
                 (A) (A) (A) (A) (A) (A) (A) (A)
 The electronic state is 1-A.
 Alpha  occ. eigenvalues --  -10.77735 -10.73698 -10.72990 -10.72832 -10.72240
 Alpha  occ. eigenvalues --  -10.71827 -10.71779 -10.71138 -10.71075 -10.70422
 Alpha  occ. eigenvalues --  -10.70236 -10.69927 -10.69920 -10.69555  -1.16262
 Alpha  occ. eigenvalues --   -1.12263  -1.06761  -1.05619  -1.01169  -1.00148
 Alpha  occ. eigenvalues --   -0.95591  -0.90932  -0.86298  -0.85771  -0.83726
 Alpha  occ. eigenvalues --   -0.78300  -0.75909  -0.74260  -0.69617  -0.69169
 Alpha  occ. eigenvalues --   -0.68345  -0.68031  -0.67999  -0.64915  -0.64183
 Alpha  occ. eigenvalues --   -0.62785  -0.61697  -0.60147  -0.59319  -0.59124
 Alpha  occ. eigenvalues --   -0.56847  -0.55336  -0.54546  -0.52330  -0.46882
 Alpha  occ. eigenvalues --   -0.46033  -0.44109
 Alpha virt. eigenvalues --   -0.26116  -0.14719  -0.14125  -0.12834  -0.11172
 Alpha virt. eigenvalues --   -0.10087  -0.09242  -0.07993  -0.07974  -0.07484
 Alpha virt. eigenvalues --   -0.07200  -0.07156  -0.05659  -0.05588  -0.05364
 Alpha virt. eigenvalues --   -0.03826  -0.03634  -0.03296  -0.03159  -0.02166
 Alpha virt. eigenvalues --   -0.01350  -0.00939   0.00176   0.00578   0.00629
 Alpha virt. eigenvalues --    0.01061   0.01503   0.01916   0.02146   0.02296
 Alpha virt. eigenvalues --    0.02435   0.02651   0.02685   0.03244   0.03411
 Alpha virt. eigenvalues --    0.04223   0.04478   0.04696   0.04994   0.05341
 Alpha virt. eigenvalues --    0.06035   0.06246   0.06574   0.07027   0.07248
 Alpha virt. eigenvalues --    0.07871   0.08043   0.08325   0.08529   0.08885
 Alpha virt. eigenvalues --    0.09478   0.09526   0.09920   0.10706   0.10892
 Alpha virt. eigenvalues --    0.11102   0.12081   0.12204   0.12733   0.12968
 Alpha virt. eigenvalues --    0.13391   0.13513   0.13967   0.14236   0.15916
 Alpha virt. eigenvalues --    0.16266   0.16328   0.17310   0.17500   0.17716
 Alpha virt. eigenvalues --    0.18037   0.18966   0.19260   0.19540   0.19729
 Alpha virt. eigenvalues --    0.21436   0.21525   0.22553   0.23009   0.23479
 Alpha virt. eigenvalues --    0.23774   0.24538   0.25289   0.26832   0.27471
 Alpha virt. eigenvalues --    0.28708   0.29236   0.29765   0.31254   0.35474
 Alpha virt. eigenvalues --    0.36119   0.38123   0.39210   0.41059   0.41386
 Alpha virt. eigenvalues --    0.41818   0.42218   0.43018   0.43565   0.44364
 Alpha virt. eigenvalues --    0.44624   0.44870   0.45857   0.46083   0.47944
 Alpha virt. eigenvalues --    0.48497   0.48760   0.49070   0.50492   0.51008
 Alpha virt. eigenvalues --    0.51142   0.51790   0.52130   0.52627   0.53972
 Alpha virt. eigenvalues --    0.54089   0.54526   0.55645   0.55802   0.57512
 Alpha virt. eigenvalues --    0.58188   0.58766   0.61385   0.62100   0.62222
 Alpha virt. eigenvalues --    0.63031   0.63435   0.64699   0.65032   0.67158
 Alpha virt. eigenvalues --    0.70221   0.70453   0.70864   0.72335   0.72744
 Alpha virt. eigenvalues --    0.75612   0.75870   0.76276   0.76776   0.77107
 Alpha virt. eigenvalues --    0.77735   0.77869   0.78149   0.79929   0.80268
 Alpha virt. eigenvalues --    0.81121   0.81549   0.82160   0.82841   0.85075
 Alpha virt. eigenvalues --    0.86978   0.88018   0.88380   0.89077   0.90447
 Alpha virt. eigenvalues --    0.90906   0.91276   0.93150   0.94426   0.96298
 Alpha virt. eigenvalues --    0.96612   1.00264   1.01116   1.01496   1.02627
 Alpha virt. eigenvalues --    1.03049   1.03388   1.04619   1.05545   1.08599
 Alpha virt. eigenvalues --    1.19446   1.23012   1.23932   1.24725   1.28264
 Alpha virt. eigenvalues --    1.29503   1.31897   1.34139   1.35646   1.35821
 Alpha virt. eigenvalues --    1.39165   1.39753   1.40675   1.42874   1.43198
 Alpha virt. eigenvalues --    1.43281   1.44197   1.45709   1.46148   1.46466
 Alpha virt. eigenvalues --    1.47475   1.47719   1.51443   1.53395   1.55249
 Alpha virt. eigenvalues --    1.55501   1.56075   1.56347   1.57567   1.61073
 Alpha virt. eigenvalues --    1.63008   1.63313   1.63948   1.65929   1.67938
 Alpha virt. eigenvalues --    1.68104   1.68492   1.69549   1.74108   1.75600
 Alpha virt. eigenvalues --    1.76793   1.77921   1.79515   1.79736   1.80669
 Alpha virt. eigenvalues --    1.82673   1.82859   1.83335   1.83648   1.83883
 Alpha virt. eigenvalues --    1.84164   1.85425   1.86012   1.88135   1.91103
 Alpha virt. eigenvalues --    1.91841   1.93701   1.95086   1.97340   1.97783
 Alpha virt. eigenvalues --    1.99536   2.01940   2.03961   2.06910   2.11374
 Alpha virt. eigenvalues --    2.11658   2.13827   2.14749   2.18552   2.20678
 Alpha virt. eigenvalues --    2.22238   2.28049   2.29561   2.33899   2.34323
 Alpha virt. eigenvalues --    2.35668   2.38234   2.39311   2.41781   2.44293
 Alpha virt. eigenvalues --    2.45666   2.45684   2.48739   2.52378   2.53050
 Alpha virt. eigenvalues --    2.54106   2.56702   2.57731   2.58392   2.59402
 Alpha virt. eigenvalues --    2.59882   2.61259   2.61898   2.63504   2.63559
 Alpha virt. eigenvalues --    2.64741   2.64972   2.65170   2.65546   2.67467
 Alpha virt. eigenvalues --    2.67761   2.70511   2.70798   2.73197   2.74655
 Alpha virt. eigenvalues --    2.76130   2.77613   2.79528   2.82071   2.82943
 Alpha virt. eigenvalues --    2.83928   2.86052   2.91777   2.96807   2.99146
 Alpha virt. eigenvalues --    2.99781   3.04253   3.08953   3.10458   3.12821
 Alpha virt. eigenvalues --    3.19889   3.21973   3.25759   3.27761   3.29917
 Alpha virt. eigenvalues --    3.31923   3.33488   3.42974   3.45314   3.45848
 Alpha virt. eigenvalues --    3.47353   3.48895   3.55798   3.65865   3.66132
 Alpha virt. eigenvalues --    3.67045   3.93493   3.93767   3.94873   3.95845
 Alpha virt. eigenvalues --    4.03410   4.06191   4.07103   4.11992   4.34995
 Alpha virt. eigenvalues --    4.60307   4.68850   4.70747  23.45076  23.59864
 Alpha virt. eigenvalues --   23.80268  23.82636  23.85283  23.88304  23.90584
 Alpha virt. eigenvalues --   23.93598  23.94920  23.96426  24.00870  24.02816
 Alpha virt. eigenvalues --   24.09597  24.10521
     Molecular Orbital Coefficients:
                          43        44        45        46        47
                           O         O         O         O         O
     Eigenvalues --    -0.54546  -0.52330  -0.46882  -0.46033  -0.44109
   1 1   C  1S         -0.00304  -0.00000   0.00000   0.00000  -0.00000
   2        2S         -0.00501  -0.00000   0.00000   0.00000  -0.00000
   3        2PX        -0.09003  -0.00000   0.00000   0.00000  -0.00000
   4        2PY         0.02445  -0.00000  -0.00000  -0.00000   0.00000
   5        2PZ        -0.00000   0.07541   0.05802  -0.05411   0.11884
   6        3S          0.01577   0.00000  -0.00000  -0.00000   0.00000
   7        3PX        -0.12912  -0.00000   0.00000   0.00000  -0.00000
   8        3PY         0.03514  -0.00000  -0.00000  -0.00000   0.00000
   9        3PZ        -0.00000   0.12114   0.09416  -0.08782   0.19468
  10        4S         -0.01972   0.00000  -0.00000  -0.00000  -0.00000
  11        4PX        -0.07089   0.00000   0.00000   0.00000  -0.00000
  12        4PY         0.02459   0.00000  -0.00000  -0.00000  -0.00000
  13        4PZ        -0.00000   0.09975   0.08256  -0.07943   0.17584
  14        5S          0.10758  -0.00000  -0.00003  -0.00002  -0.00001
  15        5PX         0.12726   0.00000   0.00003   0.00002   0.00002
  16        5PY         0.01918   0.00000   0.00000   0.00000   0.00000
  17        5PZ        -0.00000  -0.00052   0.03067  -0.00580   0.03684
  18        6D 0        0.00029   0.00000  -0.00000  -0.00000  -0.00000
  19        6D+1        0.00000   0.00840  -0.00367  -0.01507  -0.00915
  20        6D-1       -0.00000   0.00778   0.00308  -0.00401   0.00716
  21        6D+2        0.00651  -0.00000   0.00000   0.00000  -0.00000
  22        6D-2       -0.01039  -0.00000   0.00000   0.00000  -0.00000
  23 2   C  1S          0.00269   0.00000  -0.00000  -0.00000   0.00000
  24        2S          0.00448   0.00000  -0.00000  -0.00000   0.00000
  25        2PX         0.07439   0.00000  -0.00000  -0.00000   0.00000
  26        2PY        -0.01882   0.00000  -0.00000  -0.00000   0.00000
  27        2PZ         0.00000   0.10251   0.01348  -0.10806   0.00596
  28        3S         -0.01523  -0.00000   0.00000   0.00000  -0.00000
  29        3PX         0.10764   0.00000  -0.00000  -0.00000   0.00000
  30        3PY        -0.02701   0.00000  -0.00000  -0.00000   0.00000
  31        3PZ         0.00000   0.16873   0.02279  -0.17759   0.01007
  32        4S          0.01057  -0.00000   0.00000   0.00000   0.00000
  33        4PX         0.08212   0.00000  -0.00000  -0.00000  -0.00000
  34        4PY        -0.02711   0.00000   0.00000   0.00000   0.00000
  35        4PZ         0.00000   0.12639   0.01738  -0.15009   0.00916
  36        5S         -0.12203   0.00000   0.00000  -0.00000   0.00000
  37        5PX         0.05170  -0.00000   0.00000   0.00000   0.00000
  38        5PY         0.07300   0.00000   0.00002   0.00001   0.00001
  39        5PZ         0.00000   0.00231  -0.01810  -0.00665  -0.00171
  40        6D 0        0.00017   0.00000   0.00000   0.00000  -0.00000
  41        6D+1        0.00000  -0.00949  -0.00556   0.00667  -0.01160
  42        6D-1        0.00000   0.00568  -0.00789  -0.00476  -0.01983
  43        6D+2        0.00833   0.00000  -0.00000  -0.00000   0.00000
  44        6D-2       -0.01770  -0.00000   0.00000   0.00000  -0.00000
  45 3   C  1S          0.00012  -0.00000  -0.00000   0.00000   0.00000
  46        2S          0.00019  -0.00000  -0.00000   0.00000   0.00000
  47        2PX        -0.06896  -0.00000   0.00000   0.00000  -0.00000
  48        2PY         0.02701  -0.00000  -0.00000  -0.00000  -0.00000
  49        2PZ         0.00000   0.07795  -0.04136  -0.06385  -0.11299
  50        3S          0.00151   0.00000   0.00000   0.00000  -0.00000
  51        3PX        -0.09954  -0.00000   0.00000   0.00000  -0.00000
  52        3PY         0.03845  -0.00000  -0.00000  -0.00000  -0.00000
  53        3PZ         0.00000   0.12672  -0.06823  -0.10335  -0.18571
  54        4S         -0.02547   0.00000  -0.00000  -0.00000  -0.00000
  55        4PX        -0.06699  -0.00000   0.00000   0.00000   0.00000
  56        4PY         0.01255  -0.00000   0.00000   0.00000   0.00000
  57        4PZ         0.00000   0.09862  -0.05910  -0.09044  -0.16591
  58        5S          0.01933  -0.00000  -0.00004  -0.00002  -0.00002
  59        5PX        -0.03684   0.00000  -0.00000  -0.00000  -0.00000
  60        5PY         0.06251   0.00000   0.00001   0.00001   0.00001
  61        5PZ        -0.00000   0.00732   0.01407  -0.01620  -0.01508
  62        6D 0       -0.00004  -0.00000   0.00000   0.00000  -0.00000
  63        6D+1       -0.00000  -0.00327   0.00627  -0.00298   0.01171
  64        6D-1        0.00000  -0.01137  -0.00443   0.01446  -0.00604
  65        6D+2        0.00239  -0.00000   0.00000  -0.00000  -0.00000
  66        6D-2       -0.01412  -0.00000   0.00000   0.00000  -0.00000
  67 4   C  1S         -0.00221   0.00000  -0.00000   0.00000   0.00000
  68        2S         -0.00367   0.00000  -0.00000   0.00000   0.00000
  69        2PX         0.07106   0.00000  -0.00000  -0.00000   0.00000
  70        2PY        -0.02642   0.00000  -0.00000   0.00000   0.00000
  71        2PZ         0.00000   0.01415  -0.06397   0.04345  -0.11849
  72        3S          0.01110  -0.00000   0.00000   0.00000  -0.00000
  73        3PX         0.10107   0.00000  -0.00000  -0.00000   0.00000
  74        3PY        -0.03800   0.00000  -0.00000   0.00000   0.00000
  75        3PZ         0.00000   0.02201  -0.10523   0.07037  -0.19319
  76        4S          0.03206  -0.00000   0.00000   0.00000   0.00000
  77        4PX         0.07237   0.00000  -0.00000  -0.00000   0.00000
  78        4PY        -0.04246   0.00000  -0.00000  -0.00000  -0.00000
  79        4PZ         0.00000   0.02591  -0.08729   0.05453  -0.18844
  80        5S          0.19243  -0.00001   0.00000   0.00000   0.00001
  81        5PX        -0.11539   0.00000  -0.00000  -0.00000  -0.00001
  82        5PY        -0.03825   0.00000  -0.00000  -0.00000  -0.00000
  83        5PZ         0.00000  -0.01289  -0.02893   0.02995  -0.02688
  84        6D 0       -0.00006   0.00000   0.00000   0.00000  -0.00000
  85        6D+1       -0.00000   0.01243  -0.00068  -0.01701  -0.01065
  86        6D-1       -0.00000  -0.00333   0.00386  -0.00209   0.00629
  87        6D+2        0.00638  -0.00000   0.00000  -0.00000  -0.00000
  88        6D-2       -0.00931  -0.00000   0.00000   0.00000   0.00000
  89 5   C  1S         -0.00348  -0.00000   0.00000   0.00000  -0.00000
  90        2S         -0.00577  -0.00000   0.00000   0.00000  -0.00000
  91        2PX         0.07586   0.00000  -0.00000  -0.00000   0.00000
  92        2PY        -0.03626  -0.00000   0.00000   0.00000  -0.00000
  93        2PZ         0.00000   0.00849   0.12647  -0.01729  -0.05551
  94        3S          0.01886   0.00000  -0.00000  -0.00000   0.00000
  95        3PX         0.10809   0.00000  -0.00000  -0.00000   0.00000
  96        3PY        -0.05252  -0.00000   0.00000   0.00000  -0.00000
  97        3PZ         0.00000   0.01241   0.20718  -0.02827  -0.08986
  98        4S         -0.03157   0.00000   0.00000   0.00000   0.00000
  99        4PX         0.04995   0.00000  -0.00000   0.00000   0.00000
 100        4PY        -0.03563  -0.00000  -0.00000  -0.00000  -0.00000
 101        4PZ         0.00000   0.01782   0.18337  -0.01835  -0.09206
 102        5S         -0.20743   0.00001   0.00002   0.00001   0.00000
 103        5PX        -0.07978   0.00000   0.00001   0.00001   0.00000
 104        5PY         0.04683  -0.00000  -0.00000  -0.00000  -0.00000
 105        5PZ         0.00000  -0.01695   0.03730  -0.02690  -0.00635
 106        6D 0        0.00057  -0.00000   0.00000  -0.00000   0.00000
 107        6D+1        0.00000  -0.01414  -0.00725  -0.01788   0.00425
 108        6D-1       -0.00000  -0.00296  -0.00792   0.00024   0.00307
 109        6D+2        0.01055   0.00000  -0.00000  -0.00000   0.00000
 110        6D-2       -0.00841  -0.00000  -0.00000  -0.00000   0.00000
 111 6   C  1S          0.00128   0.00000   0.00000   0.00000  -0.00000
 112        2S          0.00214   0.00000   0.00000   0.00000  -0.00000
 113        2PX        -0.05897  -0.00000   0.00000   0.00000  -0.00000
 114        2PY         0.03278   0.00000  -0.00000  -0.00000   0.00000
 115        2PZ         0.00000   0.07466   0.10272   0.07524  -0.04484
 116        3S         -0.00812  -0.00000  -0.00000  -0.00000   0.00000
 117        3PX        -0.08489  -0.00000   0.00000   0.00000  -0.00000
 118        3PY         0.04737   0.00000  -0.00000  -0.00000  -0.00000
 119        3PZ         0.00000   0.12157   0.16890   0.12267  -0.07369
 120        4S          0.01706  -0.00000  -0.00000  -0.00000  -0.00000
 121        4PX        -0.06984  -0.00000  -0.00000  -0.00000  -0.00000
 122        4PY         0.03688   0.00000   0.00000   0.00000   0.00000
 123        4PZ         0.00000   0.09638   0.14455   0.10930  -0.06496
 124        5S          0.04536   0.00001  -0.00003  -0.00002  -0.00002
 125        5PX        -0.01300   0.00000   0.00000   0.00000   0.00000
 126        5PY        -0.04590  -0.00000   0.00001   0.00001   0.00001
 127        5PZ        -0.00000   0.00998  -0.00404   0.02012  -0.01653
 128        6D 0        0.00041   0.00000   0.00000   0.00000   0.00000
 129        6D+1        0.00000   0.00293   0.01318  -0.00049  -0.00560
 130        6D-1        0.00000  -0.01118   0.00830  -0.01192  -0.00468
 131        6D+2        0.00933   0.00000  -0.00000  -0.00000   0.00000
 132        6D-2       -0.01551  -0.00000   0.00000   0.00000  -0.00000
 133 7   C  1S         -0.00182  -0.00000   0.00000   0.00000  -0.00000
 134        2S         -0.00302  -0.00000   0.00000   0.00000  -0.00000
 135        2PX         0.06515   0.00000  -0.00000  -0.00000   0.00000
 136        2PY        -0.04369  -0.00000   0.00000   0.00000  -0.00000
 137        2PZ         0.00000   0.10124  -0.02061   0.09678   0.01806
 138        3S          0.01012   0.00000  -0.00000  -0.00000   0.00000
 139        3PX         0.09313   0.00000  -0.00000  -0.00000   0.00000
 140        3PY        -0.06189  -0.00000   0.00000   0.00000  -0.00000
 141        3PZ         0.00000   0.16696  -0.03435   0.15928   0.02940
 142        4S         -0.02353   0.00000   0.00000   0.00000  -0.00000
 143        4PX         0.05813   0.00000   0.00000   0.00000   0.00000
 144        4PY        -0.03369  -0.00000   0.00000   0.00000   0.00000
 145        4PZ         0.00000   0.12725  -0.02823   0.13638   0.02761
 146        5S          0.05188  -0.00000  -0.00001  -0.00001  -0.00001
 147        5PX         0.02549   0.00000  -0.00001  -0.00001  -0.00000
 148        5PY        -0.05658  -0.00000   0.00002   0.00001   0.00001
 149        5PZ         0.00000  -0.00004   0.01372   0.00419   0.01321
 150        6D 0        0.00017  -0.00000  -0.00000  -0.00000   0.00000
 151        6D+1       -0.00000   0.00906  -0.01223   0.00367   0.00621
 152        6D-1        0.00000   0.00533   0.01833   0.00738  -0.00844
 153        6D+2        0.00286  -0.00000   0.00000   0.00000  -0.00000
 154        6D-2       -0.01196  -0.00000   0.00000   0.00000  -0.00000
 155 8   C  1S          0.00063   0.00000  -0.00000   0.00000   0.00000
 156        2S          0.00103   0.00000  -0.00000   0.00000   0.00000
 157        2PX        -0.06890  -0.00000   0.00000   0.00000  -0.00000
 158        2PY         0.03476   0.00000   0.00000   0.00000  -0.00000
 159        2PZ        -0.00000   0.07322  -0.12397   0.02709   0.05944
 160        3S         -0.00172  -0.00000   0.00000  -0.00000  -0.00000
 161        3PX        -0.09680  -0.00000   0.00000   0.00000  -0.00000
 162        3PY         0.05055   0.00000  -0.00000  -0.00000  -0.00000
 163        3PZ        -0.00000   0.11792  -0.20260   0.04424   0.09811
 164        4S          0.01409  -0.00000  -0.00000  -0.00000  -0.00000
 165        4PX        -0.07251   0.00000   0.00000   0.00000  -0.00000
 166        4PY         0.06067  -0.00000  -0.00000  -0.00000  -0.00000
 167        4PZ        -0.00000   0.09777  -0.17568   0.04174   0.08843
 168        5S         -0.09854   0.00000  -0.00002  -0.00002  -0.00002
 169        5PX         0.07956   0.00001  -0.00003  -0.00002  -0.00002
 170        5PY        -0.00171  -0.00000   0.00000   0.00000   0.00000
 171        5PZ        -0.00000   0.00175  -0.04505   0.00143   0.00720
 172        6D 0       -0.00026  -0.00000  -0.00000  -0.00000   0.00000
 173        6D+1       -0.00000  -0.00879  -0.00811  -0.01543   0.00115
 174        6D-1       -0.00000   0.00739  -0.00819   0.00204   0.00439
 175        6D+2        0.01203   0.00000  -0.00000  -0.00000   0.00000
 176        6D-2       -0.00986  -0.00000   0.00000   0.00000  -0.00000
 177 9   C  1S         -0.00335  -0.00000  -0.00000  -0.00000  -0.00000
 178        2S         -0.00558  -0.00000  -0.00000  -0.00000  -0.00000
 179        2PX        -0.08876  -0.00000   0.00000   0.00000  -0.00000
 180        2PY         0.03288  -0.00000  -0.00000  -0.00000  -0.00000
 181        2PZ        -0.00000  -0.00660   0.02297   0.00487  -0.05646
 182        3S          0.01791   0.00000   0.00000   0.00000   0.00000
 183        3PX        -0.13325  -0.00000   0.00000   0.00000  -0.00000
 184        3PY         0.04872  -0.00000  -0.00000  -0.00000  -0.00000
 185        3PZ        -0.00001  -0.00761   0.03488   0.00761  -0.08619
 186        4S         -0.00023  -0.00000   0.00001   0.00001   0.00001
 187        4PX        -0.09402   0.00000   0.00000   0.00000   0.00000
 188        4PY         0.04904  -0.00000  -0.00000  -0.00000  -0.00000
 189        4PZ        -0.00001  -0.04336   0.03361   0.00750  -0.08733
 190        5S         -0.01056  -0.00000   0.00003   0.00003   0.00002
 191        5PX         0.31284  -0.00000  -0.00001  -0.00000   0.00000
 192        5PY         0.00443  -0.00000   0.00001   0.00000   0.00000
 193        5PZ        -0.00000  -0.06931  -0.03539  -0.00882   0.08559
 194        6D 0       -0.00348  -0.00000   0.00000  -0.00000  -0.00000
 195        6D+1        0.00000   0.00034   0.01407   0.01045   0.00629
 196        6D-1        0.00000   0.00037  -0.00613  -0.00110   0.01715
 197        6D+2        0.00847   0.00000  -0.00000  -0.00000   0.00000
 198        6D-2       -0.00924  -0.00000   0.00000   0.00000  -0.00000
 199 10  C  1S         -0.00530  -0.00000  -0.00000  -0.00000  -0.00000
 200        2S         -0.00879  -0.00000  -0.00000  -0.00000  -0.00000
 201        2PX         0.07189   0.00000  -0.00000  -0.00000   0.00000
 202        2PY        -0.02840  -0.00000   0.00000   0.00000  -0.00000
 203        2PZ         0.00000  -0.10336  -0.00581  -0.00587   0.01565
 204        3S          0.02694   0.00000   0.00000   0.00000   0.00000
 205        3PX         0.10353   0.00000  -0.00000  -0.00000   0.00000
 206        3PY        -0.04092  -0.00000   0.00000   0.00000   0.00000
 207        3PZ         0.00000  -0.16846  -0.00993  -0.00948   0.02659
 208        4S          0.02693   0.00000  -0.00001  -0.00000  -0.00000
 209        4PX         0.08337  -0.00000  -0.00000  -0.00000   0.00000
 210        4PY        -0.04892  -0.00000   0.00000   0.00000   0.00000
 211        4PZ         0.00000  -0.13970  -0.00702  -0.00696   0.01913
 212        5S         -0.00550  -0.00000   0.00003   0.00002   0.00002
 213        5PX        -0.26722   0.00001   0.00001   0.00000  -0.00001
 214        5PY        -0.00462   0.00000   0.00000   0.00000   0.00000
 215        5PZ         0.00000  -0.01427   0.02043   0.00680  -0.05567
 216        6D 0        0.00079  -0.00000   0.00000   0.00000   0.00000
 217        6D+1       -0.00000   0.00210  -0.00647   0.02319   0.00025
 218        6D-1       -0.00000   0.00926   0.00144   0.00066  -0.00395
 219        6D+2        0.01032  -0.00000  -0.00000  -0.00000  -0.00000
 220        6D-2       -0.00895  -0.00000   0.00000   0.00000  -0.00000
 221 11  C  1S         -0.00078   0.00000  -0.00000  -0.00000   0.00000
 222        2S         -0.00133   0.00000  -0.00000  -0.00000   0.00000
 223        2PX         0.07969   0.00000  -0.00000  -0.00000   0.00000
 224        2PY        -0.03939   0.00000  -0.00000   0.00000   0.00000
 225        2PZ        -0.00000   0.00645   0.05046   0.05822   0.11045
 226        3S          0.00466  -0.00000   0.00000   0.00000  -0.00000
 227        3PX         0.11663   0.00000  -0.00000  -0.00000   0.00000
 228        3PY        -0.05641   0.00000  -0.00000   0.00000   0.00000
 229        3PZ        -0.00000   0.01001   0.08195   0.09667   0.18025
 230        4S          0.00603  -0.00000  -0.00000  -0.00000  -0.00001
 231        4PX         0.11247   0.00000   0.00000   0.00000   0.00001
 232        4PY        -0.05875   0.00000   0.00000   0.00000   0.00000
 233        4PZ        -0.00000   0.02215   0.08717   0.07854   0.18642
 234        5S          0.07521  -0.00000  -0.00005  -0.00003  -0.00003
 235        5PX         0.14765  -0.00001   0.00001   0.00001   0.00001
 236        5PY         0.20491  -0.00001  -0.00006  -0.00004  -0.00002
 237        5PZ         0.00000   0.01745  -0.00932   0.02035  -0.07147
 238        6D 0       -0.00034   0.00000  -0.00000  -0.00000  -0.00000
 239        6D+1        0.00000   0.00938   0.00372  -0.00651   0.01400
 240        6D-1        0.00000  -0.00969  -0.00821   0.01400  -0.00108
 241        6D+2        0.00834   0.00000  -0.00000  -0.00000  -0.00000
 242        6D-2       -0.01596  -0.00000   0.00000  -0.00000  -0.00000
 243 12  C  1S          0.00247  -0.00000   0.00000  -0.00000  -0.00000
 244        2S          0.00419  -0.00000   0.00000  -0.00000  -0.00000
 245        2PX        -0.06381  -0.00000   0.00000   0.00000  -0.00000
 246        2PY         0.03642  -0.00000  -0.00000  -0.00000  -0.00000
 247        2PZ         0.00000  -0.05571  -0.02830   0.11128   0.00957
 248        3S         -0.01223  -0.00000  -0.00000   0.00000   0.00000
 249        3PX        -0.09202  -0.00000   0.00000   0.00000  -0.00000
 250        3PY         0.05286  -0.00000   0.00000  -0.00000  -0.00000
 251        3PZ         0.00000  -0.09167  -0.04404   0.18286   0.01510
 252        4S         -0.01233   0.00000  -0.00000  -0.00000  -0.00000
 253        4PX        -0.07736  -0.00000  -0.00000  -0.00000  -0.00000
 254        4PY         0.02168   0.00000   0.00000   0.00000  -0.00000
 255        4PZ         0.00000  -0.08361  -0.05653   0.17850   0.01638
 256        5S         -0.20428   0.00001   0.00008   0.00005   0.00004
 257        5PX        -0.28545   0.00001   0.00001   0.00001  -0.00001
 258        5PY         0.15246  -0.00001  -0.00004  -0.00002  -0.00002
 259        5PZ        -0.00000   0.01328   0.01282  -0.03080   0.07476
 260        6D 0       -0.00006   0.00000  -0.00000  -0.00000   0.00000
 261        6D+1       -0.00000   0.01244  -0.00491   0.00303  -0.01368
 262        6D-1        0.00000  -0.00464  -0.00948  -0.00259  -0.01895
 263        6D+2        0.00799  -0.00000   0.00000   0.00000  -0.00000
 264        6D-2       -0.01682  -0.00000   0.00000   0.00000  -0.00000
 265 13  C  1S         -0.00200  -0.00000   0.00000   0.00000  -0.00000
 266        2S         -0.00331  -0.00000   0.00000   0.00000  -0.00000
 267        2PX         0.07553   0.00000  -0.00000  -0.00000   0.00000
 268        2PY        -0.05598  -0.00000   0.00000   0.00000  -0.00000
 269        2PZ        -0.00000   0.00146  -0.10674  -0.06978   0.03518
 270        3S          0.00948   0.00000  -0.00000  -0.00000   0.00000
 271        3PX         0.11152   0.00000  -0.00000  -0.00000   0.00000
 272        3PY        -0.08264  -0.00000   0.00000   0.00000  -0.00000
 273        3PZ        -0.00000   0.00102  -0.17366  -0.11613   0.05723
 274        4S          0.02496   0.00000  -0.00000  -0.00000   0.00000
 275        4PX         0.10810   0.00000  -0.00001  -0.00000   0.00000
 276        4PY        -0.05684  -0.00000   0.00000   0.00000  -0.00000
 277        4PZ        -0.00000   0.01525  -0.17422  -0.09970   0.05671
 278        5S         -0.07104   0.00000  -0.00005  -0.00003  -0.00003
 279        5PX         0.12047  -0.00001  -0.00002  -0.00001  -0.00000
 280        5PY        -0.25733   0.00001  -0.00005  -0.00003  -0.00004
 281        5PZ         0.00000   0.01483   0.06176  -0.00511  -0.05601
 282        6D 0        0.00037  -0.00000  -0.00000  -0.00000   0.00000
 283        6D+1       -0.00000  -0.00976   0.01354  -0.00351  -0.00962
 284        6D-1        0.00000  -0.01153   0.00763  -0.01280   0.00143
 285        6D+2        0.00835  -0.00000  -0.00000  -0.00000  -0.00000
 286        6D-2       -0.01715  -0.00000   0.00000   0.00000  -0.00000
 287 14  C  1S          0.00097  -0.00000  -0.00000  -0.00000   0.00000
 288        2S          0.00162  -0.00000  -0.00000  -0.00000   0.00000
 289        2PX        -0.06735  -0.00000   0.00000   0.00000  -0.00000
 290        2PY         0.05164   0.00000  -0.00000  -0.00000   0.00000
 291        2PZ         0.00000  -0.07325   0.02033  -0.10751   0.00255
 292        3S         -0.00475   0.00000   0.00000   0.00000  -0.00000
 293        3PX        -0.09729  -0.00000   0.00000   0.00000  -0.00000
 294        3PY         0.07502   0.00000  -0.00000  -0.00000   0.00000
 295        3PZ         0.00000  -0.12013   0.03203  -0.17671   0.00183
 296        4S          0.01963  -0.00000   0.00000  -0.00000   0.00000
 297        4PX        -0.10429  -0.00000   0.00000   0.00000   0.00000
 298        4PY         0.07942  -0.00000  -0.00000   0.00000   0.00000
 299        4PZ         0.00000  -0.10915   0.04072  -0.17499   0.01331
 300        5S          0.23428  -0.00001   0.00007   0.00005   0.00005
 301        5PX        -0.24941   0.00001   0.00001   0.00000  -0.00001
 302        5PY        -0.18320   0.00001  -0.00003  -0.00002  -0.00003
 303        5PZ        -0.00000   0.01710  -0.06056   0.01475   0.05755
 304        6D 0        0.00009  -0.00000  -0.00000  -0.00000  -0.00000
 305        6D+1       -0.00000  -0.01242  -0.01215  -0.00044   0.00739
 306        6D-1        0.00000  -0.00514   0.01808   0.00463  -0.00664
 307        6D+2        0.00845   0.00000  -0.00000  -0.00000   0.00000
 308        6D-2       -0.01572  -0.00000   0.00000   0.00000  -0.00000
 309 15  H  1S         -0.02149   0.00000   0.00000  -0.00000   0.00000
 310        2S         -0.03157   0.00000   0.00000  -0.00000   0.00000
 311        3S         -0.01350   0.00000  -0.00000  -0.00000  -0.00000
 312        4S         -0.01224   0.00000   0.00000   0.00000   0.00000
 313        5PX        -0.00432  -0.00000   0.00000   0.00000  -0.00000
 314        5PY        -0.00089   0.00000  -0.00000  -0.00000  -0.00000
 315        5PZ        -0.00000   0.00482   0.00426  -0.00376   0.00831
 316 16  H  1S          0.06959   0.00000  -0.00000  -0.00000   0.00000
 317        2S          0.10130   0.00000  -0.00000   0.00000   0.00000
 318        3S          0.03880  -0.00000   0.00000   0.00000   0.00000
 319        4S          0.00680   0.00000   0.00000   0.00000   0.00000
 320        5PX        -0.00358  -0.00000  -0.00000  -0.00000   0.00000
 321        5PY         0.00334   0.00000  -0.00000  -0.00000   0.00000
 322        5PZ         0.00000   0.00660   0.00101  -0.00741   0.00043
 323 17  H  1S         -0.04350  -0.00000   0.00000   0.00000  -0.00000
 324        2S         -0.06225  -0.00000   0.00000  -0.00000  -0.00000
 325        3S         -0.02474  -0.00000   0.00000   0.00000  -0.00000
 326        4S         -0.00571   0.00000  -0.00000  -0.00000  -0.00000
 327        5PX         0.00085   0.00000  -0.00000   0.00000   0.00000
 328        5PY         0.00454   0.00000  -0.00000  -0.00000   0.00000
 329        5PZ         0.00000   0.00496  -0.00287  -0.00428  -0.00810
 330 18  H  1S         -0.02390   0.00000  -0.00000   0.00000   0.00000
 331        2S         -0.03496   0.00000   0.00000   0.00000   0.00000
 332        3S         -0.01506   0.00000   0.00000   0.00000   0.00000
 333        4S          0.01471   0.00000   0.00000   0.00000   0.00000
 334        5PX         0.00430   0.00000  -0.00000   0.00000   0.00000
 335        5PY         0.00167  -0.00000  -0.00000  -0.00000  -0.00000
 336        5PZ         0.00000   0.00040  -0.00469   0.00315  -0.00838
 337 19  H  1S         -0.02611   0.00000   0.00000   0.00000   0.00000
 338        2S         -0.03781  -0.00000   0.00000   0.00000  -0.00000
 339        3S         -0.01829   0.00000  -0.00000  -0.00000  -0.00000
 340        4S         -0.00270  -0.00000  -0.00000   0.00000  -0.00000
 341        5PX         0.00389   0.00000  -0.00000  -0.00000   0.00000
 342        5PY         0.00067   0.00000   0.00000   0.00000   0.00000
 343        5PZ         0.00000  -0.00645  -0.00020  -0.00032   0.00053
 344 20  H  1S         -0.03417  -0.00000   0.00000   0.00000  -0.00000
 345        2S         -0.05053  -0.00000   0.00000   0.00000  -0.00000
 346        3S         -0.02572  -0.00000   0.00000   0.00000   0.00000
 347        4S         -0.01894  -0.00000   0.00000   0.00000   0.00000
 348        5PX         0.00366   0.00000  -0.00000  -0.00000   0.00000
 349        5PY         0.00168   0.00000  -0.00000  -0.00000  -0.00000
 350        5PZ         0.00000  -0.00001   0.00887  -0.00138  -0.00372
 351 21  H  1S          0.06525   0.00000  -0.00000  -0.00000   0.00000
 352        2S          0.09502   0.00000  -0.00000  -0.00000   0.00000
 353        3S          0.03596  -0.00000  -0.00000  -0.00000   0.00000
 354        4S          0.00526  -0.00000  -0.00000  -0.00000  -0.00000
 355        5PX         0.00390   0.00000  -0.00000  -0.00000   0.00000
 356        5PY        -0.00236  -0.00000   0.00000   0.00000  -0.00000
 357        5PZ         0.00000   0.00477   0.00711   0.00512  -0.00324
 358 22  H  1S         -0.03182  -0.00000   0.00000   0.00000  -0.00000
 359        2S         -0.04646  -0.00000   0.00000   0.00000  -0.00000
 360        3S         -0.02042   0.00000   0.00000   0.00000  -0.00000
 361        4S         -0.00802  -0.00000   0.00000   0.00000  -0.00000
 362        5PX         0.00011  -0.00000   0.00000   0.00000   0.00000
 363        5PY        -0.00446  -0.00000   0.00000   0.00000  -0.00000
 364        5PZ         0.00000   0.00647  -0.00144   0.00660   0.00120
 365 23  H  1S         -0.03768  -0.00000   0.00000   0.00000  -0.00000
 366        2S         -0.05294  -0.00000   0.00000  -0.00000  -0.00000
 367        3S         -0.02157   0.00000  -0.00000  -0.00000  -0.00000
 368        4S          0.01028  -0.00000   0.00000   0.00000   0.00000
 369        5PX        -0.00397  -0.00000   0.00000   0.00000  -0.00000
 370        5PY        -0.00226  -0.00000  -0.00000  -0.00000   0.00000
 371        5PZ        -0.00000   0.00470  -0.00861   0.00195   0.00395
 372 24  H  1S         -0.01981  -0.00357   0.02109   0.00439  -0.05290
 373        2S         -0.02844   0.00387   0.03287   0.00671  -0.08424
 374        3S         -0.01250   0.02545   0.02638   0.00516  -0.07055
 375        4S          0.00126   0.04554   0.01435   0.00257  -0.03813
 376        5PX        -0.00436   0.00004   0.00219   0.00071   0.00140
 377        5PY         0.00026   0.00086   0.00142   0.00028  -0.00303
 378        5PZ         0.00186   0.00012  -0.00061  -0.00008   0.00154
 379 25  H  1S         -0.01981   0.00357  -0.02109  -0.00439   0.05290
 380        2S         -0.02844  -0.00387  -0.03287  -0.00671   0.08424
 381        3S         -0.01249  -0.02545  -0.02639  -0.00517   0.07054
 382        4S          0.00126  -0.04554  -0.01436  -0.00258   0.03812
 383        5PX        -0.00436  -0.00004  -0.00219  -0.00071  -0.00140
 384        5PY         0.00026  -0.00086  -0.00142  -0.00028   0.00303
 385        5PZ        -0.00186   0.00012  -0.00061  -0.00008   0.00154
                          48        49        50        51        52
                           V         V         V         V         V
     Eigenvalues --    -0.26116  -0.14719  -0.14125  -0.12834  -0.11172
   1 1   C  1S         -0.00000  -0.00000   0.00000   0.00000  -0.00568
   2        2S         -0.00000  -0.00000   0.00000   0.00000  -0.00963
   3        2PX         0.00000  -0.00000  -0.00000  -0.00000   0.00347
   4        2PY        -0.00000  -0.00000   0.00000   0.00000  -0.01464
   5        2PZ        -0.00440   0.10013  -0.01520  -0.10276  -0.00000
   6        3S          0.00000   0.00000  -0.00000  -0.00000   0.03156
   7        3PX         0.00000  -0.00000   0.00000   0.00000   0.00342
   8        3PY        -0.00000  -0.00000   0.00000   0.00000  -0.02157
   9        3PZ        -0.00695   0.15381  -0.02277  -0.16234  -0.00000
  10        4S          0.00000   0.00000   0.00000   0.00000   0.02096
  11        4PX         0.00000   0.00000  -0.00000  -0.00000   0.02562
  12        4PY         0.00000   0.00000   0.00000   0.00000  -0.07784
  13        4PZ        -0.00695   0.28635  -0.03934  -0.28579  -0.00000
  14        5S         -0.00000   0.00000   0.00012   0.00010  -1.63746
  15        5PX         0.00000   0.00001  -0.00014  -0.00011   0.80466
  16        5PY         0.00000   0.00000  -0.00001  -0.00001  -0.44372
  17        5PZ         0.00962   0.21435   0.00353  -0.33225  -0.00001
  18        6D 0        0.00000   0.00000   0.00000  -0.00000  -0.00529
  19        6D+1        0.01579   0.00895   0.02399  -0.00269   0.00000
  20        6D-1       -0.00187  -0.00861   0.00205   0.00816  -0.00000
  21        6D+2        0.00000   0.00000  -0.00000  -0.00000   0.00141
  22        6D-2        0.00000  -0.00000  -0.00000  -0.00000  -0.00110
  23 2   C  1S         -0.00000   0.00000   0.00000   0.00000  -0.00443
  24        2S         -0.00000   0.00000   0.00000   0.00000  -0.00734
  25        2PX        -0.00000   0.00000   0.00000  -0.00000   0.00624
  26        2PY        -0.00000   0.00000   0.00000  -0.00000  -0.00048
  27        2PZ         0.07555  -0.01098   0.10020   0.04129   0.00000
  28        3S          0.00000   0.00000  -0.00000  -0.00000   0.02101
  29        3PX        -0.00000   0.00000   0.00000  -0.00000   0.01063
  30        3PY        -0.00000   0.00000   0.00000  -0.00000  -0.00239
  31        3PZ         0.12379  -0.01621   0.15950   0.06501   0.00000
  32        4S         -0.00000  -0.00001  -0.00000   0.00000   0.10537
  33        4PX         0.00000   0.00000   0.00000   0.00000  -0.00393
  34        4PY         0.00000  -0.00000  -0.00000  -0.00000   0.01161
  35        4PZ         0.14317  -0.03527   0.26447   0.11337   0.00000
  36        5S         -0.00001  -0.00001   0.00001   0.00001   0.54611
  37        5PX         0.00000   0.00000  -0.00002  -0.00002   0.19051
  38        5PY        -0.00000  -0.00000  -0.00008  -0.00006   0.36030
  39        5PZ         0.04473  -0.02514   0.21198   0.12184   0.00001
  40        6D 0        0.00000   0.00000  -0.00000   0.00000  -0.00343
  41        6D+1        0.00172  -0.01259   0.00254   0.01406   0.00000
  42        6D-1        0.00131  -0.02216  -0.00920   0.01917   0.00000
  43        6D+2       -0.00000  -0.00000   0.00000   0.00000  -0.00210
  44        6D-2        0.00000   0.00000  -0.00000  -0.00000   0.00367
  45 3   C  1S         -0.00000  -0.00000   0.00000   0.00000  -0.00375
  46        2S         -0.00000  -0.00000   0.00000   0.00000  -0.00621
  47        2PX        -0.00000  -0.00000  -0.00000   0.00000   0.00691
  48        2PY        -0.00000  -0.00000   0.00000   0.00000   0.00042
  49        2PZ         0.01250  -0.09352  -0.06526   0.06823  -0.00000
  50        3S          0.00000   0.00000  -0.00000  -0.00000   0.01772
  51        3PX        -0.00000  -0.00000  -0.00000  -0.00000   0.01246
  52        3PY        -0.00000  -0.00000   0.00000   0.00000   0.00152
  53        3PZ         0.02154  -0.14670  -0.10358   0.10683  -0.00000
  54        4S          0.00000   0.00000   0.00000   0.00000   0.06366
  55        4PX        -0.00000  -0.00000  -0.00000  -0.00000   0.01322
  56        4PY        -0.00000  -0.00000  -0.00000  -0.00000   0.02047
  57        4PZ         0.01532  -0.25143  -0.17571   0.18341  -0.00000
  58        5S          0.00001   0.00000   0.00013   0.00009   0.15728
  59        5PX        -0.00000  -0.00000   0.00001   0.00001  -0.01938
  60        5PY        -0.00000  -0.00000  -0.00005  -0.00004   0.37646
  61        5PZ         0.00308  -0.18952  -0.13290   0.18204  -0.00000
  62        6D 0        0.00000   0.00000   0.00000  -0.00000  -0.00373
  63        6D+1        0.00912  -0.01033   0.00604   0.01391   0.00000
  64        6D-1       -0.01326   0.00777  -0.01764  -0.01431  -0.00000
  65        6D+2        0.00000   0.00000   0.00000   0.00000  -0.00225
  66        6D-2        0.00000  -0.00000  -0.00000   0.00000  -0.00334
  67 4   C  1S         -0.00000  -0.00000  -0.00000   0.00000  -0.00604
  68        2S         -0.00000  -0.00000   0.00000   0.00000  -0.01016
  69        2PX        -0.00000  -0.00000  -0.00000  -0.00000   0.00398
  70        2PY        -0.00000  -0.00000  -0.00000  -0.00000   0.01610
  71        2PZ        -0.07350   0.08817  -0.04112  -0.10576  -0.00000
  72        3S          0.00000   0.00000  -0.00000  -0.00000   0.03016
  73        3PX        -0.00000  -0.00000   0.00000  -0.00000   0.00427
  74        3PY        -0.00000  -0.00000   0.00000  -0.00000   0.02174
  75        3PZ        -0.11899   0.13468  -0.06556  -0.16811  -0.00000
  76        4S          0.00000  -0.00000  -0.00001  -0.00000   0.20139
  77        4PX        -0.00000  -0.00000   0.00000   0.00000  -0.04730
  78        4PY         0.00000   0.00000   0.00000   0.00000   0.02556
  79        4PZ        -0.13627   0.26065  -0.12580  -0.28781  -0.00000
  80        5S          0.00000  -0.00002  -0.00002  -0.00001   1.79762
  81        5PX        -0.00000   0.00000   0.00003   0.00003  -0.82939
  82        5PY         0.00000   0.00000   0.00000   0.00000   0.59235
  83        5PZ        -0.03121   0.23423  -0.15988  -0.31300  -0.00000
  84        6D 0        0.00000   0.00000  -0.00000   0.00000  -0.00546
  85        6D+1        0.00179  -0.01480  -0.02232   0.00429  -0.00000
  86        6D-1        0.00372   0.00718  -0.00167  -0.00851  -0.00000
  87        6D+2        0.00000   0.00000   0.00000  -0.00000   0.00071
  88        6D-2       -0.00000  -0.00000  -0.00000   0.00000   0.00217
  89 5   C  1S          0.00000   0.00000  -0.00000   0.00000  -0.00730
  90        2S          0.00000   0.00000  -0.00000   0.00000  -0.01230
  91        2PX        -0.00000  -0.00000   0.00000   0.00000  -0.00378
  92        2PY         0.00000   0.00000  -0.00000  -0.00000   0.01878
  93        2PZ        -0.08351   0.08495   0.00545   0.11075   0.00000
  94        3S         -0.00000  -0.00000   0.00000  -0.00000   0.03711
  95        3PX        -0.00000  -0.00000   0.00000  -0.00000  -0.00400
  96        3PY         0.00000   0.00000   0.00000  -0.00000   0.02570
  97        3PZ        -0.13555   0.13038   0.00965   0.17597   0.00000
  98        4S          0.00000  -0.00000  -0.00001  -0.00000   0.20882
  99        4PX        -0.00000  -0.00000  -0.00000  -0.00000   0.04888
 100        4PY        -0.00000   0.00000   0.00000   0.00000   0.04347
 101        4PZ        -0.15857   0.26285   0.01683   0.31502   0.00000
 102        5S         -0.00000   0.00001  -0.00006  -0.00003   1.62479
 103        5PX        -0.00000  -0.00001  -0.00005  -0.00004   0.95558
 104        5PY        -0.00000   0.00000   0.00001   0.00000   0.72766
 105        5PZ        -0.04017   0.25590   0.06844   0.36828   0.00000
 106        6D 0       -0.00000  -0.00000   0.00000   0.00000  -0.00594
 107        6D+1       -0.00077   0.00692  -0.02872   0.00428  -0.00000
 108        6D-1        0.00359   0.00714   0.00027   0.01032   0.00000
 109        6D+2       -0.00000  -0.00000   0.00000  -0.00000   0.00165
 110        6D-2       -0.00000  -0.00000   0.00000  -0.00000  -0.00230
 111 6   C  1S          0.00000   0.00000  -0.00000   0.00000  -0.00489
 112        2S          0.00000   0.00000  -0.00000   0.00000  -0.00812
 113        2PX         0.00000  -0.00000   0.00000   0.00000  -0.00944
 114        2PY         0.00000   0.00000  -0.00000   0.00000   0.00147
 115        2PZ         0.00834  -0.06013   0.09899  -0.06894   0.00000
 116        3S         -0.00000  -0.00000  -0.00000  -0.00000   0.02368
 117        3PX        -0.00000  -0.00000   0.00000   0.00000  -0.01578
 118        3PY         0.00000   0.00000   0.00000   0.00000   0.00326
 119        3PZ         0.01560  -0.09445   0.15715  -0.10822   0.00000
 120        4S         -0.00000  -0.00000   0.00000   0.00000   0.08961
 121        4PX        -0.00000  -0.00000   0.00000   0.00000  -0.01970
 122        4PY         0.00000   0.00000  -0.00000  -0.00000   0.02284
 123        4PZ         0.00888  -0.17225   0.26945  -0.19809   0.00000
 124        5S         -0.00001   0.00003   0.00009   0.00007   0.31849
 125        5PX        -0.00000  -0.00000  -0.00001  -0.00001   0.01075
 126        5PY         0.00000  -0.00001  -0.00005  -0.00004   0.49837
 127        5PZ         0.00080  -0.13249   0.21550  -0.20526   0.00000
 128        6D 0       -0.00000  -0.00000   0.00000   0.00000  -0.00438
 129        6D+1       -0.01056   0.01046   0.00097   0.01475   0.00000
 130        6D-1       -0.01650   0.01219   0.01487   0.01680   0.00000
 131        6D+2       -0.00000  -0.00000   0.00000   0.00000  -0.00299
 132        6D-2        0.00000  -0.00000   0.00000  -0.00000   0.00428
 133 7   C  1S          0.00000   0.00000   0.00000   0.00000  -0.00569
 134        2S          0.00000   0.00000   0.00000   0.00000  -0.00947
 135        2PX        -0.00000   0.00000  -0.00000   0.00000  -0.00895
 136        2PY         0.00000   0.00000   0.00000  -0.00000  -0.00131
 137        2PZ         0.09453  -0.03768  -0.09804  -0.04787  -0.00000
 138        3S         -0.00000  -0.00000  -0.00000  -0.00000   0.02769
 139        3PX        -0.00000   0.00000  -0.00000   0.00000  -0.01448
 140        3PY         0.00000   0.00000   0.00000  -0.00000  -0.00384
 141        3PZ         0.15477  -0.05891  -0.15609  -0.07537  -0.00000
 142        4S          0.00000   0.00000  -0.00000   0.00000   0.12606
 143        4PX         0.00000   0.00000  -0.00000   0.00000  -0.00529
 144        4PY         0.00000  -0.00000  -0.00000  -0.00000   0.01032
 145        4PZ         0.18173  -0.10642  -0.26182  -0.13482  -0.00000
 146        5S          0.00000   0.00002   0.00003   0.00003   0.24265
 147        5PX         0.00000   0.00001   0.00003   0.00003  -0.36964
 148        5PY         0.00001  -0.00003  -0.00008  -0.00006   0.46017
 149        5PZ         0.05820  -0.08607  -0.21805  -0.14247  -0.00001
 150        6D 0       -0.00000  -0.00000   0.00000   0.00000  -0.00414
 151        6D+1       -0.00206   0.01171  -0.00136   0.01563   0.00000
 152        6D-1        0.00061  -0.01647   0.01609  -0.02060  -0.00000
 153        6D+2        0.00000   0.00000  -0.00000   0.00000  -0.00234
 154        6D-2        0.00000   0.00000   0.00000   0.00000  -0.00461
 155 8   C  1S          0.00000   0.00000  -0.00000   0.00000  -0.00687
 156        2S          0.00000   0.00000  -0.00000   0.00000  -0.01164
 157        2PX         0.00000   0.00000   0.00000   0.00000  -0.00353
 158        2PY         0.00000   0.00000  -0.00000   0.00000  -0.01633
 159        2PZ        -0.00456   0.09029  -0.00825   0.11339   0.00000
 160        3S         -0.00000  -0.00000   0.00000  -0.00000   0.03753
 161        3PX         0.00000  -0.00000  -0.00000  -0.00000  -0.00332
 162        3PY         0.00000   0.00000   0.00000   0.00000  -0.02387
 163        3PZ        -0.00660   0.13883  -0.01292   0.17995   0.00000
 164        4S         -0.00000  -0.00000   0.00000   0.00000   0.04218
 165        4PX         0.00000   0.00000   0.00000   0.00000  -0.02624
 166        4PY        -0.00000  -0.00000   0.00000   0.00000  -0.08325
 167        4PZ        -0.00511   0.26478  -0.03549   0.32591   0.00000
 168        5S         -0.00000   0.00003   0.00010   0.00009  -1.86271
 169        5PX        -0.00001   0.00005   0.00013   0.00011  -1.15023
 170        5PY         0.00000  -0.00001  -0.00001  -0.00001  -0.48748
 171        5PZ         0.01148   0.19694  -0.05766   0.37659   0.00001
 172        6D 0       -0.00000  -0.00000   0.00000  -0.00000  -0.00600
 173        6D+1       -0.01955  -0.00166   0.02699  -0.00303   0.00000
 174        6D-1       -0.00187  -0.00842   0.00003  -0.00963   0.00000
 175        6D+2       -0.00000  -0.00000  -0.00000  -0.00000   0.00176
 176        6D-2        0.00000   0.00000   0.00000   0.00000   0.00151
 177 9   C  1S         -0.00000   0.00000   0.00000   0.00000  -0.01407
 178        2S         -0.00000   0.00000   0.00000   0.00000  -0.02366
 179        2PX         0.00000  -0.00000   0.00000  -0.00000   0.00098
 180        2PY        -0.00000   0.00000   0.00000   0.00000  -0.03074
 181        2PZ         0.02875  -0.01329   0.00321  -0.00097   0.00000
 182        3S          0.00000   0.00000  -0.00000   0.00000   0.06181
 183        3PX         0.00000  -0.00000   0.00000  -0.00000   0.00163
 184        3PY         0.00000   0.00000   0.00000   0.00000  -0.04659
 185        3PZ         0.03833  -0.02031   0.00457  -0.00150   0.00000
 186        4S          0.00000  -0.00001  -0.00004  -0.00001   0.43491
 187        4PX        -0.00000   0.00000  -0.00000  -0.00000   0.00974
 188        4PY        -0.00000   0.00000   0.00001   0.00000  -0.02389
 189        4PZ         0.07611  -0.10884   0.02952   0.00004   0.00000
 190        5S          0.00000  -0.00002  -0.00014  -0.00012   0.84082
 191        5PX        -0.00001   0.00002   0.00001   0.00001  -0.18673
 192        5PY         0.00000  -0.00000  -0.00002  -0.00002  -0.46765
 193        5PZ         0.13081  -0.43706   0.10232  -0.01082   0.00000
 194        6D 0        0.00000   0.00000   0.00000  -0.00000  -0.00875
 195        6D+1        0.00159  -0.00391  -0.02453   0.01282  -0.00000
 196        6D-1       -0.01953  -0.02891   0.00330  -0.00118  -0.00000
 197        6D+2       -0.00000  -0.00000   0.00000   0.00000   0.00243
 198        6D-2        0.00000   0.00000  -0.00000   0.00000  -0.00026
 199 10  C  1S         -0.00000  -0.00000   0.00000   0.00000  -0.01070
 200        2S         -0.00000  -0.00000   0.00000   0.00000  -0.01823
 201        2PX        -0.00000  -0.00000   0.00000  -0.00000   0.00073
 202        2PY        -0.00000   0.00000   0.00000  -0.00000   0.02378
 203        2PZ         0.17257   0.01509   0.01439   0.00742   0.00000
 204        3S          0.00000  -0.00000  -0.00000  -0.00000   0.06080
 205        3PX        -0.00000  -0.00000   0.00000  -0.00000   0.00117
 206        3PY         0.00000  -0.00000  -0.00000  -0.00000   0.03333
 207        3PZ         0.28077   0.02170   0.02376   0.01172   0.00000
 208        4S         -0.00000   0.00000   0.00002   0.00001   0.06872
 209        4PX        -0.00000  -0.00000   0.00000   0.00000  -0.00387
 210        4PY         0.00000  -0.00000  -0.00001  -0.00000   0.20766
 211        4PZ         0.34894   0.06977   0.03870   0.02562   0.00000
 212        5S          0.00000  -0.00002  -0.00011  -0.00010   1.55443
 213        5PX         0.00000   0.00002  -0.00002  -0.00001  -0.18069
 214        5PY         0.00000  -0.00000  -0.00001  -0.00000   1.95890
 215        5PZ         0.09857   0.32923  -0.00382   0.05232   0.00000
 216        6D 0        0.00000  -0.00000  -0.00000  -0.00000  -0.00747
 217        6D+1       -0.00057   0.00406   0.03020   0.00754   0.00000
 218        6D-1        0.00087   0.01306  -0.00070   0.00164   0.00000
 219        6D+2       -0.00000   0.00000   0.00000  -0.00000   0.00106
 220        6D-2        0.00000   0.00000  -0.00000  -0.00000   0.00015
 221 11  C  1S         -0.00000  -0.00000   0.00000  -0.00000  -0.00576
 222        2S         -0.00000  -0.00000   0.00000  -0.00000  -0.00991
 223        2PX        -0.00000  -0.00000   0.00000  -0.00000   0.00270
 224        2PY        -0.00000  -0.00000   0.00000  -0.00000   0.00941
 225        2PZ        -0.08215  -0.09913  -0.08362   0.06969  -0.00000
 226        3S          0.00000   0.00000  -0.00000  -0.00000   0.03974
 227        3PX        -0.00000  -0.00000   0.00000  -0.00000   0.00398
 228        3PY        -0.00000  -0.00000   0.00000  -0.00000   0.01328
 229        3PZ        -0.13236  -0.15376  -0.13098   0.11369  -0.00000
 230        4S          0.00001   0.00001   0.00001   0.00000  -0.02186
 231        4PX        -0.00000  -0.00001  -0.00001  -0.00001   0.12447
 232        4PY        -0.00000  -0.00000  -0.00001  -0.00000   0.00944
 233        4PZ        -0.17156  -0.26172  -0.26021   0.18470  -0.00000
 234        5S          0.00000   0.00004   0.00020   0.00014  -3.65522
 235        5PX         0.00000  -0.00003  -0.00004  -0.00004   0.77104
 236        5PY        -0.00001  -0.00001   0.00023   0.00018  -2.22914
 237        5PZ        -0.10344  -0.00696  -0.38741   0.23408  -0.00000
 238        6D 0        0.00000   0.00000   0.00000  -0.00000  -0.00764
 239        6D+1       -0.00416   0.01794  -0.00250  -0.01359  -0.00000
 240        6D-1       -0.00503  -0.01104   0.01893   0.01472   0.00000
 241        6D+2        0.00000   0.00000   0.00000  -0.00000  -0.00548
 242        6D-2       -0.00000  -0.00000   0.00000   0.00000   0.00150
 243 12  C  1S          0.00000   0.00000   0.00000   0.00000  -0.00640
 244        2S          0.00000   0.00000   0.00000   0.00000  -0.01089
 245        2PX         0.00000   0.00000   0.00000   0.00000   0.00056
 246        2PY         0.00000   0.00000   0.00000   0.00000  -0.01040
 247        2PZ        -0.02010   0.00130   0.10290   0.04430   0.00000
 248        3S         -0.00000  -0.00000  -0.00000  -0.00000   0.03774
 249        3PX         0.00000   0.00000  -0.00000  -0.00000   0.00349
 250        3PY         0.00000   0.00000   0.00000   0.00000  -0.01436
 251        3PZ        -0.03206   0.00807   0.16179   0.07549   0.00000
 252        4S          0.00000  -0.00000   0.00000  -0.00000   0.12903
 253        4PX         0.00000   0.00000   0.00001   0.00000  -0.14793
 254        4PY         0.00000   0.00000  -0.00000   0.00000  -0.08197
 255        4PZ        -0.04063  -0.02792   0.31647   0.10978   0.00000
 256        5S          0.00000  -0.00003  -0.00031  -0.00024   5.23564
 257        5PX        -0.00000   0.00003  -0.00003  -0.00002  -0.63410
 258        5PY        -0.00001   0.00000   0.00015   0.00011  -3.56307
 259        5PZ        -0.00311  -0.23482   0.43434   0.10034   0.00001
 260        6D 0       -0.00000  -0.00000   0.00000   0.00000  -0.00815
 261        6D+1       -0.02567   0.01353  -0.00911  -0.01476  -0.00000
 262        6D-1        0.01561   0.02613   0.01178  -0.01858   0.00000
 263        6D+2        0.00000  -0.00000  -0.00000   0.00000  -0.00443
 264        6D-2        0.00000   0.00000   0.00000   0.00000  -0.00271
 265 13  C  1S          0.00000   0.00000  -0.00000   0.00000  -0.00637
 266        2S          0.00000   0.00000  -0.00000   0.00000  -0.01096
 267        2PX        -0.00000  -0.00000   0.00000   0.00000  -0.00198
 268        2PY         0.00000   0.00000  -0.00000   0.00000   0.00983
 269        2PZ        -0.09306  -0.06171   0.10665  -0.07511   0.00000
 270        3S         -0.00000  -0.00000  -0.00000  -0.00000   0.04337
 271        3PX        -0.00000  -0.00000   0.00000  -0.00000  -0.00252
 272        3PY         0.00000   0.00000  -0.00000  -0.00000   0.01459
 273        3PZ        -0.14993  -0.09556   0.16715  -0.12242   0.00000
 274        4S         -0.00001  -0.00001   0.00000  -0.00000   0.00054
 275        4PX        -0.00000  -0.00000   0.00001   0.00000  -0.11211
 276        4PY         0.00000   0.00000  -0.00001   0.00000  -0.00290
 277        4PZ        -0.19607  -0.15985   0.31558  -0.21074   0.00000
 278        5S         -0.00001   0.00001   0.00020   0.00015  -4.06928
 279        5PX        -0.00000  -0.00001   0.00007   0.00006  -1.11694
[...]
 187        4PX         0.16190
 188        4PY         0.27401
 189        4PZ         0.39772
 190        5S          0.34486
 191        5PX        -0.26788
 192        5PY         0.03739
 193        5PZ        -0.02767
 194        6D 0        0.00832
 195        6D+1        0.00843
 196        6D-1        0.01217
 197        6D+2        0.01204
 198        6D-2        0.01355
 199 10  C  1S          1.10550
 200        2S          0.88523
 201        2PX         0.24234
 202        2PY         0.24071
 203        2PZ         0.11414
 204        3S          0.80050
 205        3PX         0.55212
 206        3PY         0.55005
 207        3PZ         0.30947
 208        4S          0.41213
 209        4PX         0.15683
 210        4PY         0.34581
 211        4PZ         0.25608
 212        5S          0.03403
 213        5PX        -0.38342
 214        5PY         0.19892
 215        5PZ         0.04218
 216        6D 0        0.00298
 217        6D+1        0.01277
 218        6D-1        0.00357
 219        6D+2        0.02115
 220        6D-2        0.01515
 221 11  C  1S          1.10531
 222        2S          0.88559
 223        2PX         0.22912
 224        2PY         0.23496
 225        2PZ         0.15356
 226        3S          0.76653
 227        3PX         0.53102
 228        3PY         0.53121
 229        3PZ         0.40350
 230        4S          0.41223
 231        4PX         0.27138
 232        4PY         0.21631
 233        4PZ         0.33008
 234        5S          0.12664
 235        5PX        -0.28957
 236        5PY         0.62883
 237        5PZ         0.01539
 238        6D 0        0.00394
 239        6D+1        0.00933
 240        6D-1        0.01094
 241        6D+2        0.02078
 242        6D-2        0.02080
 243 12  C  1S          1.10520
 244        2S          0.88563
 245        2PX         0.22966
 246        2PY         0.23500
 247        2PZ         0.17461
 248        3S          0.75254
 249        3PX         0.52497
 250        3PY         0.53323
 251        3PZ         0.46085
 252        4S          0.36861
 253        4PX         0.14529
 254        4PY         0.19259
 255        4PZ         0.39569
 256        5S         -0.52180
 257        5PX        -0.47031
 258        5PY         0.30066
 259        5PZ        -0.06145
 260        6D 0        0.00446
 261        6D+1        0.00740
 262        6D-1        0.00938
 263        6D+2        0.02277
 264        6D-2        0.02270
 265 13  C  1S          1.10532
 266        2S          0.88553
 267        2PX         0.23519
 268        2PY         0.23245
 269        2PZ         0.15092
 270        3S          0.76954
 271        3PX         0.53556
 272        3PY         0.53141
 273        3PZ         0.39821
 274        4S          0.40110
 275        4PX         0.26511
 276        4PY         0.22289
 277        4PZ         0.31951
 278        5S          0.15068
 279        5PX        -0.27086
 280        5PY         0.62309
 281        5PZ         0.01242
 282        6D 0        0.00387
 283        6D+1        0.01030
 284        6D-1        0.01021
 285        6D+2        0.02208
 286        6D-2        0.02057
 287 14  C  1S          1.10521
 288        2S          0.88565
 289        2PX         0.23216
 290        2PY         0.23111
 291        2PZ         0.17380
 292        3S          0.75267
 293        3PX         0.52788
 294        3PY         0.53049
 295        3PZ         0.45872
 296        4S          0.37877
 297        4PX         0.15425
 298        4PY         0.19515
 299        4PZ         0.39662
 300        5S         -0.56989
 301        5PX        -0.46630
 302        5PY         0.30769
 303        5PZ        -0.06006
 304        6D 0        0.00447
 305        6D+1        0.00729
 306        6D-1        0.00852
 307        6D+2        0.02271
 308        6D-2        0.02229
 309 15  H  1S          0.27360
 310        2S          0.46397
 311        3S          0.03440
 312        4S         -0.03194
 313        5PX         0.00332
 314        5PY         0.01472
 315        5PZ         0.00470
 316 16  H  1S          0.27366
 317        2S          0.46295
 318        3S          0.01442
 319        4S         -0.02764
 320        5PX         0.01258
 321        5PY         0.00643
 322        5PZ         0.00392
 323 17  H  1S          0.27321
 324        2S          0.46312
 325        3S          0.02088
 326        4S         -0.02786
 327        5PX         0.01176
 328        5PY         0.00664
 329        5PZ         0.00451
 330 18  H  1S          0.27345
 331        2S          0.46505
 332        3S          0.03691
 333        4S         -0.01947
 334        5PX         0.00343
 335        5PY         0.01500
 336        5PZ         0.00451
 337 19  H  1S          0.27263
 338        2S          0.45388
 339        3S          0.01715
 340        4S          0.04247
 341        5PX         0.00338
 342        5PY         0.01638
 343        5PZ         0.00289
 344 20  H  1S          0.27366
 345        2S          0.46483
 346        3S          0.03320
 347        4S         -0.01967
 348        5PX         0.00346
 349        5PY         0.01522
 350        5PZ         0.00431
 351 21  H  1S          0.27332
 352        2S          0.46278
 353        3S          0.01850
 354        4S         -0.02921
 355        5PX         0.01224
 356        5PY         0.00634
 357        5PZ         0.00446
 358 22  H  1S          0.27328
 359        2S          0.46170
 360        3S          0.01075
 361        4S         -0.02901
 362        5PX         0.01253
 363        5PY         0.00650
 364        5PZ         0.00370
 365 23  H  1S          0.27330
 366        2S          0.46353
 367        3S          0.03157
 368        4S         -0.03101
 369        5PX         0.00337
 370        5PY         0.01497
 371        5PZ         0.00459
 372 24  H  1S          0.26353
 373        2S          0.42804
 374        3S          0.01133
 375        4S          0.02741
 376        5PX         0.00342
 377        5PY         0.00769
 378        5PZ         0.00922
 379 25  H  1S          0.26353
 380        2S          0.42804
 381        3S          0.01133
 382        4S          0.02741
 383        5PX         0.00342
 384        5PY         0.00769
 385        5PZ         0.00922
          Condensed to atoms (all electrons):
               1          2          3          4          5          6
     1  C    8.742315   0.135464  -0.443184   2.097597  -0.060541  -0.099949
     2  C    0.135464   7.142200   0.252498  -1.121344   0.005564  -0.013676
     3  C   -0.443184   0.252498   6.570502   0.821951  -0.134132   0.016345
     4  C    2.097597  -1.121344   0.821951  10.564282  -0.376400  -0.113606
     5  C   -0.060541   0.005564  -0.134132  -0.376400  11.441815   0.747926
     6  C   -0.099949  -0.013676   0.016345  -0.113606   0.747926   6.592574
     7  C   -0.007251   0.000169  -0.013648  -0.028425  -1.071852   0.406867
     8  C    0.399045  -0.022839  -0.087524  -0.022919   1.866000  -0.582784
     9  C   -1.120678  -0.775147   0.300754  -0.329561  -0.017280   0.289743
    10  C   -1.324064   0.315534  -0.414280  -2.422938  -2.666879  -0.293610
    11  C    0.318847  -0.994918   1.115557  -0.203972  -1.548823  -0.221017
    12  C   -2.361588   1.608850  -1.474226  -1.580051  -0.456938  -0.130384
    13  C    0.242182  -0.291791  -0.111703  -1.391413  -0.413168   0.885633
    14  C   -1.013993  -0.111957  -0.271363  -0.234354  -1.686461  -1.364606
    15  H    0.368973  -0.108576   0.001629   0.028144   0.004917   0.001028
    16  H   -0.018073   0.376867  -0.015582   0.011288  -0.001408  -0.000311
    17  H   -0.030399  -0.010796   0.369925  -0.065954   0.000370   0.000392
    18  H    0.051418   0.003262  -0.083955   0.449422   0.005906  -0.005131
    19  H   -0.046868  -0.008273   0.051883  -0.058004  -0.078964   0.049627
    20  H    0.007035   0.002087  -0.005067   0.005713   0.465331  -0.084477
    21  H   -0.001331  -0.000378   0.000396   0.000222  -0.067509   0.378364
    22  H    0.000968   0.000384  -0.000332  -0.001570   0.015284  -0.020116
    23  H    0.004952  -0.002787   0.001127   0.006017   0.027022  -0.002452
    24  H    0.029966   0.013325  -0.001657  -0.012141  -0.011704  -0.001509
    25  H    0.029964   0.013324  -0.001658  -0.012138  -0.011706  -0.001509
               7          8          9         10         11         12
     1  C   -0.007251   0.399045  -1.120678  -1.324064   0.318847  -2.361588
     2  C    0.000169  -0.022839  -0.775147   0.315534  -0.994918   1.608850
     3  C   -0.013648  -0.087524   0.300754  -0.414280   1.115557  -1.474226
     4  C   -0.028425  -0.022919  -0.329561  -2.422938  -0.203972  -1.580051
     5  C   -1.071852   1.866000  -0.017280  -2.666879  -1.548823  -0.456938
     6  C    0.406867  -0.582784   0.289743  -0.293610  -0.221017  -0.130384
     7  C    7.162798   0.401178  -0.858335   0.202979  -0.214346  -0.246977
     8  C    0.401178   8.404695  -1.090439  -1.219394   0.228762  -1.136750
     9  C   -0.858335  -1.090439   9.551094   0.237033   1.508434  -1.729633
    10  C    0.202979  -1.219394   0.237033   9.058574  -0.513746   2.433587
    11  C   -0.214346   0.228762   1.508434  -0.513746  14.174737  -3.493827
    12  C   -0.246977  -1.136750  -1.729633   2.433587  -3.493827  15.811755
    13  C   -0.791946   0.332654   1.537149  -0.291864   1.072087  -4.810681
    14  C    1.180863  -1.962424  -2.073405   2.359732  -4.644984   3.093538
    15  H   -0.002393   0.006158   0.091842  -0.010653  -0.029329  -0.033716
    16  H    0.000333   0.000537   0.003326  -0.008473   0.024482  -0.030695
    17  H   -0.000396  -0.001272  -0.006150   0.020603  -0.029609   0.097640
    18  H    0.002025   0.006823  -0.025502   0.016102  -0.005080  -0.059911
    19  H   -0.007311  -0.043960   0.073242   0.419892   0.079969  -0.046307
    20  H    0.003153   0.048404  -0.022577   0.008752  -0.011872  -0.020751
    21  H   -0.021710  -0.020929  -0.004902   0.019272  -0.006211   0.005185
    22  H    0.379848  -0.019153   0.003184  -0.009510   0.003440  -0.009918
    23  H   -0.106393   0.367619   0.089931  -0.008722  -0.001633   0.007559
    24  H    0.015322   0.036055   0.355581   0.005150   0.005465  -0.059050
    25  H    0.015321   0.036049   0.355585   0.005151   0.005462  -0.059048
              13         14         15         16         17         18
     1  C    0.242182  -1.013993   0.368973  -0.018073  -0.030399   0.051418
     2  C   -0.291791  -0.111957  -0.108576   0.376867  -0.010796   0.003262
     3  C   -0.111703  -0.271363   0.001629  -0.015582   0.369925  -0.083955
     4  C   -1.391413  -0.234354   0.028144   0.011288  -0.065954   0.449422
     5  C   -0.413168  -1.686461   0.004917  -0.001408   0.000370   0.005906
     6  C    0.885633  -1.364606   0.001028  -0.000311   0.000392  -0.005131
     7  C   -0.791946   1.180863  -0.002393   0.000333  -0.000396   0.002025
     8  C    0.332654  -1.962424   0.006158   0.000537  -0.001272   0.006823
     9  C    1.537149  -2.073405   0.091842   0.003326  -0.006150  -0.025502
    10  C   -0.291864   2.359732  -0.010653  -0.008473   0.020603   0.016102
    11  C    1.072087  -4.644984  -0.029329   0.024482  -0.029609  -0.005080
    12  C   -4.810681   3.093538  -0.033716  -0.030695   0.097640  -0.059911
    13  C   14.501224  -3.901608   0.005811   0.002479  -0.006204  -0.011634
    14  C   -3.901608  16.153401   0.005097  -0.007927   0.005006  -0.007741
    15  H    0.005811   0.005097   0.442580  -0.009143   0.001396   0.000088
    16  H    0.002479  -0.007927  -0.009143   0.422371  -0.006280   0.001876
    17  H   -0.006204   0.005006   0.001396  -0.006280   0.423221  -0.010100
    18  H   -0.011634  -0.007741   0.000088   0.001876  -0.010100   0.456092
    19  H    0.074717  -0.084132   0.000260  -0.000519   0.001259  -0.006497
    20  H   -0.009310  -0.049105  -0.000105   0.000013  -0.000130   0.001252
    21  H   -0.023001   0.084394   0.000012  -0.000007   0.000010  -0.000154
    22  H    0.026685  -0.032817  -0.000126   0.000007  -0.000007   0.000017
    23  H   -0.032124  -0.016722   0.000559  -0.000124   0.000015  -0.000115
    24  H    0.020469  -0.059620  -0.000840   0.000640  -0.000144   0.000206
    25  H    0.020471  -0.059612  -0.000840   0.000640  -0.000144   0.000206
              19         20         21         22         23         24
     1  C   -0.046868   0.007035  -0.001331   0.000968   0.004952   0.029966
     2  C   -0.008273   0.002087  -0.000378   0.000384  -0.002787   0.013325
     3  C    0.051883  -0.005067   0.000396  -0.000332   0.001127  -0.001657
     4  C   -0.058004   0.005713   0.000222  -0.001570   0.006017  -0.012141
     5  C   -0.078964   0.465331  -0.067509   0.015284   0.027022  -0.011704
     6  C    0.049627  -0.084477   0.378364  -0.020116  -0.002452  -0.001509
     7  C   -0.007311   0.003153  -0.021710   0.379848  -0.106393   0.015322
     8  C   -0.043960   0.048404  -0.020929  -0.019153   0.367619   0.036055
     9  C    0.073242  -0.022577  -0.004902   0.003184   0.089931   0.355581
    10  C    0.419892   0.008752   0.019272  -0.009510  -0.008722   0.005150
    11  C    0.079969  -0.011872  -0.006211   0.003440  -0.001633   0.005465
    12  C   -0.046307  -0.020751   0.005185  -0.009918   0.007559  -0.059050
    13  C    0.074717  -0.009310  -0.023001   0.026685  -0.032124   0.020469
    14  C   -0.084132  -0.049105   0.084394  -0.032817  -0.016722  -0.059620
    15  H    0.000260  -0.000105   0.000012  -0.000126   0.000559  -0.000840
    16  H   -0.000519   0.000013  -0.000007   0.000007  -0.000124   0.000640
    17  H    0.001259  -0.000130   0.000010  -0.000007   0.000015  -0.000144
    18  H   -0.006497   0.001252  -0.000154   0.000017  -0.000115   0.000206
    19  H    0.442254  -0.005987   0.001558  -0.000544   0.000352   0.000564
    20  H   -0.005987   0.450398  -0.010253   0.001954   0.000240   0.000156
    21  H    0.001558  -0.010253   0.420831  -0.006676   0.001523  -0.000136
    22  H   -0.000544   0.001954  -0.006676   0.415992  -0.008803   0.000625
    23  H    0.000352   0.000240   0.001523  -0.008803   0.435221  -0.000971
    24  H    0.000564   0.000156  -0.000136   0.000625  -0.000971   0.493285
    25  H    0.000564   0.000156  -0.000136   0.000625  -0.000971  -0.078398
              25
     1  C    0.029964
     2  C    0.013324
     3  C   -0.001658
     4  C   -0.012138
     5  C   -0.011706
     6  C   -0.001509
     7  C    0.015321
     8  C    0.036049
     9  C    0.355585
    10  C    0.005151
    11  C    0.005462
    12  C   -0.059048
    13  C    0.020471
    14  C   -0.059612
    15  H   -0.000840
    16  H    0.000640
    17  H   -0.000144
    18  H    0.000206
    19  H    0.000564
    20  H    0.000156
    21  H   -0.000136
    22  H    0.000625
    23  H   -0.000971
    24  H   -0.078398
    25  H    0.493283
 Mulliken charges:
               1
     1  C    0.099194
     2  C   -0.407045
     3  C   -0.444257
     4  C   -0.009846
     5  C    0.023632
     6  C   -0.433363
     7  C   -0.399874
     8  C    0.076410
     9  C   -0.343290
    10  C    0.081773
    11  C   -0.617875
    12  C    0.682335
    13  C   -0.635110
    14  C    0.700800
    15  H    0.237226
    16  H    0.253683
    17  H    0.247747
    18  H    0.221124
    19  H    0.191225
    20  H    0.224991
    21  H    0.251565
    22  H    0.260561
    23  H    0.239680
    24  H    0.249359
    25  H    0.249358
 Sum of Mulliken charges =   1.00000
 Mulliken charges with hydrogens summed into heavy atoms:
               1
     1  C    0.336420
     2  C   -0.153363
     3  C   -0.196510
     4  C    0.211278
     5  C    0.248622
     6  C   -0.181798
     7  C   -0.139313
     8  C    0.316090
     9  C    0.155427
    10  C    0.272998
    11  C   -0.617875
    12  C    0.682335
    13  C   -0.635110
    14  C    0.700800
 Electronic spatial extent (au):  <R**2>=           2868.8914
 Charge=              1.0000 electrons
 Dipole moment (field-independent basis, Debye):
    X=             -0.7234    Y=              0.1870    Z=              0.0000  Tot=              0.7471
 Quadrupole moment (field-independent basis, Debye-Ang):
   XX=            -30.8310   YY=            -56.1865   ZZ=            -84.2727
   XY=             -0.0592   XZ=             -0.0001   YZ=             -0.0000
 Traceless Quadrupole moment (field-independent basis, Debye-Ang):
   XX=             26.2657   YY=              0.9103   ZZ=            -27.1760
   XY=             -0.0592   XZ=             -0.0001   YZ=             -0.0000
 Octapole moment (field-independent basis, Debye-Ang**2):
  XXX=             -8.0447  YYY=              5.3714  ZZZ=              0.0000  XYY=             -1.6943
  XXY=             -5.2652  XXZ=             -0.0000  XZZ=             -1.0511  YZZ=             -3.1445
  YYZ=              0.0000  XYZ=              0.0002
 Hexadecapole moment (field-independent basis, Debye-Ang**3):
 XXXX=          -2127.3785 YYYY=           -611.7975 ZZZZ=            -99.7013 XXXY=              1.6582
 XXXZ=              0.0003 YYYX=             -0.6660 YYYZ=             -0.0000 ZZZX=              0.0001
 ZZZY=             -0.0000 XXYY=           -509.2941 XXZZ=           -594.4241 YYZZ=           -146.5053
 XXYZ=              0.0000 YYXZ=             -0.0004 ZZXY=             -0.3369
 N-N= 7.793190430258D+02 E-N=-2.794870247283D+03  KE= 5.373496718792D+02
 Orbital energies and kinetic energies (alpha):
                                 1                 2
  43         O                -0.545456          1.583025
  44         O                -0.523304          1.038165
  45         O                -0.468825          1.128121
  46         O                -0.460331          1.151215
  47         O                -0.441087          1.159736
  48         V                -0.261164          1.267214
  49         V                -0.147186          1.101452
  50         V                -0.141253          1.315399
  51         V                -0.128341          1.280699
  52         V                -0.111723          0.204311
 Total kinetic energy from orbitals= 5.373496718792D+02
 Unable to Open any file for archive entry.
 1\1\GINC-GADI-CPU-CLX-1686\SP\RM062X TD-FC\6-311++G(d,p)\C14H11(1+)\TS
 1578\14-Jul-2022\0\\#n M062X/6-311++G(d,p) TD SP pop=reg formcheck\\SP
 _8\\1,1\C,0,2.5133443291,1.3729641362,0.\C,0,3.7257991465,0.6887233812
 ,0.\C,0,3.7010350841,-0.6935687608,0.\C,0,2.4512653549,-1.3958604144,0
 .\C,0,-2.4865546451,-1.4094837218,0.\C,0,-3.6841290521,-0.7208974436,0
 .\C,0,-3.6942849897,0.6760848913,0.\C,0,-2.4840460115,1.3726358638,0.\
 C,0,0.0068116537,1.4672544768,0.\C,0,-0.0256873205,-1.4246120681,0.\C,
 0,1.2560849159,0.6770714854,0.\C,0,1.2340766188,-0.7217365696,0.\C,0,-
 1.2732371522,0.6973423102,0.\C,0,-1.2469613131,-0.7252654986,0.\H,0,2.
 4996158145,2.4585403406,0.\H,0,4.6623226016,1.2288389044,0.\H,0,4.6215
 834304,-1.2650307058,0.\H,0,2.4648907796,-2.4810748913,0.\H,0,-0.02191
 21871,-2.5077341362,0.\H,0,-2.4822892204,-2.4937133812,0.\H,0,-4.61830
 07058,-1.2683134304,0.\H,0,-4.6322036028,1.2171852318,0.\H,0,-2.490424
 1855,2.4578017275,0.\H,0,0.0378334017,2.1565979319,-0.8640162043\H,0,0
 .0379154698,2.1565979319,0.8640162043\\Version=ES64L-G16RevC.01\State=
 1-A\HF=-539.7561815\RMSD=8.265e-09\PG=C01 [X(C14H11)]\\@
 The archive entry for this job was punched.


 Sometimes the fool who rushes in gets the job done.
                                    -- Al Bernstein
 FChkPn:  Coordinates translated and rotated.
 FChkPn:  Coordinates match /B/ after translation and rotation.
 Job cpu time:       0 days  1 hours 13 minutes  1.3 seconds.
 Elapsed time:       0 days  0 hours  9 minutes 30.0 seconds.
 File lengths (MBytes):  RWF=    532 Int=      0 D2E=      0 Chk=     24 Scr=      1
 Normal termination of Gaussian 16 at Thu Jul 14 13:56:59 2022.
