 Entering Gaussian System, Link 0=g16
 Initial command:
 /apps/gaussian/g16c01/g16/l1.exe "/jobfs/51125639.gadi-pbs/Gau-152117.inp" -scrdir="/jobfs/51125639.gadi-pbs/"
 Entering Link 1 = /apps/gaussian/g16c01/g16/l1.exe PID=    152118.
  
 Copyright (c) 1988-2019, Gaussian, Inc.  All Rights Reserved.
  
 This is part of the Gaussian(R) 16 program.  It is based on
 the Gaussian(R) 09 system (copyright 2009, Gaussian, Inc.),
 the Gaussian(R) 03 system (copyright 2003, Gaussian, Inc.),
 the Gaussian(R) 98 system (copyright 1998, Gaussian, Inc.),
 the Gaussian(R) 94 system (copyright 1995, Gaussian, Inc.),
 the Gaussian 92(TM) system (copyright 1992, Gaussian, Inc.),
 the Gaussian 90(TM) system (copyright 1990, Gaussian, Inc.),
 the Gaussian 88(TM) system (copyright 1988, Gaussian, Inc.),
 the Gaussian 86(TM) system (copyright 1986, Carnegie Mellon
 University), and the Gaussian 82(TM) system (copyright 1983,
 Carnegie Mellon University). Gaussian is a federally registered
 trademark of Gaussian, Inc.
  
 This software contains proprietary and confidential information,
 including trade secrets, belonging to Gaussian, Inc.
  
 This software is provided under written license and may be
 used, copied, transmitted, or stored only in accord with that
 written license.
  
 The following legend is applicable only to US Government
 contracts under FAR:
  
                    RESTRICTED RIGHTS LEGEND
  
 Use, reproduction and disclosure by the US Government is
 subject to restrictions as set forth in subparagraphs (a)
 and (c) of the Commercial Computer Software - Restricted
 Rights clause in FAR 52.227-19.
  
 Gaussian, Inc.
 340 Quinnipiac St., Bldg. 40, Wallingford CT 06492
  
  
 ---------------------------------------------------------------
 Warning -- This program may not be used in any manner that
 competes with the business of Gaussian, Inc. or will provide
 assistance to any competitor of Gaussian, Inc.  The licensee
 of this program is prohibited from giving any competitor of
 Gaussian, Inc. access to this program.  By using this program,
 the user acknowledges that Gaussian, Inc. is engaged in the
 business of creating and licensing software in the field of
 computational chemistry and represents and warrants to the
 licensee that it is not a competitor of Gaussian, Inc. and that
 it will not use this program in any manner prohibited above.
 ---------------------------------------------------------------
  

 Cite this work as:
 Gaussian 16, Revision C.01,
 M. J. Frisch, G. W. Trucks, H. B. Schlegel, G. E. Scuseria, 
 M. A. Robb, J. R. Cheeseman, G. Scalmani, V. Barone, 
 G. A. Petersson, H. Nakatsuji, X. Li, M. Caricato, A. V. Marenich, 
 J. Bloino, B. G. Janesko, R. Gomperts, B. Mennucci, H. P. Hratchian, 
 J. V. Ortiz, A. F. Izmaylov, J. L. Sonnenberg, D. Williams-Young, 
 F. Ding, F. Lipparini, F. Egidi, J. Goings, B. Peng, A. Petrone, 
 T. Henderson, D. Ranasinghe, V. G. Zakrzewski, J. Gao, N. Rega, 
 G. Zheng, W. Liang, M. Hada, M. Ehara, K. Toyota, R. Fukuda, 
 J. Hasegawa, M. Ishida, T. Nakajima, Y. Honda, O. Kitao, H. Nakai, 
 T. Vreven, K. Throssell, J. A. Montgomery, Jr., J. E. Peralta, 
 F. Ogliaro, M. J. Bearpark, J. J. Heyd, E. N. Brothers, K. N. Kudin, 
 V. N. Staroverov, T. A. Keith, R. Kobayashi, J. Normand, 
 K. Raghavachari, A. P. Rendell, J. C. Burant, S. S. Iyengar, 
 J. Tomasi, M. Cossi, J. M. Millam, M. Klene, C. Adamo, R. Cammi, 
 J. W. Ochterski, R. L. Martin, K. Morokuma, O. Farkas, 
 J. B. Foresman, and D. J. Fox, Gaussian, Inc., Wallingford CT, 2019.
 
 ******************************************
 Gaussian 16:  ES64L-G16RevC.01  3-Jul-2019
                14-Jul-2022 
 ******************************************
 %NProcShared=8
 Will use up to    8 processors via shared memory.
 %mem = 32GB
 %Chk=check_sp_14
 ----------------------------------------------
 #n M062X/6-311++G(d,p) TD SP pop=reg formcheck
 ----------------------------------------------
 1/38=1,172=1/1;
 2/12=2,17=6,18=5,40=1/2;
 3/5=4,6=6,7=1111,11=9,25=1,30=1,74=-55/1,2,3,8;
 4//1;
 5/5=2,38=5/2;
 8/6=1,10=2/1;
 9/42=1,70=2/14;
 6//1;
 99/5=1,9=1/99;
 -----
 SP_14
 -----
 Symbolic Z-matrix:
 Charge =  1 Multiplicity = 1
 C                     2.52449   1.37309   0. 
 C                     3.73768   0.69359   0. 
 C                     3.70744  -0.68341   0. 
 C                     2.43803  -1.39081   0. 
 C                    -2.49979  -1.41465   0. 
 C                    -3.67785  -0.73124   0. 
 C                    -3.68253   0.67147   0. 
 C                    -2.47321   1.37251   0. 
 C                     0.01192   1.46769   0. 
 C                    -0.04495  -1.42467   0. 
 C                     1.24968   0.66938   0. 
 C                     1.22921  -0.72044   0. 
 C                    -1.2797    0.70485   0. 
 C                    -1.25176  -0.72662   0. 
 H                     2.50306   2.45885   0. 
 H                     4.67371   1.23327   0. 
 H                     4.62288  -1.26386   0. 
 H                     2.45837  -2.47646   0. 
 H                    -0.03835  -2.50786   0. 
 H                    -2.48881  -2.49858   0. 
 H                    -4.61713  -1.26961   0. 
 H                    -4.621     1.21288   0. 
 H                    -2.48698   2.45756   0. 
 H                     0.06621   2.15654  -0.8642 
 H                     0.06635   2.15654   0.8642 
 
                          Input orientation:                          
 ---------------------------------------------------------------------
 Center     Atomic      Atomic             Coordinates (Angstroms)
 Number     Number       Type             X           Y           Z
 ---------------------------------------------------------------------
      1          6           0        2.524485    1.373087    0.000000
      2          6           0        3.737679    0.693586    0.000000
      3          6           0        3.707436   -0.683413    0.000000
      4          6           0        2.438032   -1.390813    0.000000
      5          6           0       -2.499788   -1.414654    0.000000
      6          6           0       -3.677851   -0.731238    0.000000
      7          6           0       -3.682529    0.671469    0.000000
      8          6           0       -2.473213    1.372513    0.000000
      9          6           0        0.011920    1.467685    0.000000
     10          6           0       -0.044953   -1.424674    0.000000
     11          6           0        1.249684    0.669378    0.000000
     12          6           0        1.229214   -0.720444    0.000000
     13          6           0       -1.279700    0.704852    0.000000
     14          6           0       -1.251762   -0.726620    0.000000
     15          1           0        2.503063    2.458848    0.000000
     16          1           0        4.673710    1.233271    0.000000
     17          1           0        4.622876   -1.263861    0.000000
     18          1           0        2.458366   -2.476459    0.000000
     19          1           0       -0.038346   -2.507857    0.000000
     20          1           0       -2.488814   -2.498576    0.000000
     21          1           0       -4.617131   -1.269606    0.000000
     22          1           0       -4.621001    1.212877    0.000000
     23          1           0       -2.486977    2.457556    0.000000
     24          1           0        0.066208    2.156536   -0.864201
     25          1           0        0.066352    2.156536    0.864201
 ---------------------------------------------------------------------
                    Distance matrix (angstroms):
                    1          2          3          4          5
     1  C    0.000000
     2  C    1.390525   0.000000
     3  C    2.372460   1.377331   0.000000
     4  C    2.765252   2.456380   1.453204   0.000000
     5  C    5.745853   6.584122   6.250148   4.937878   0.000000
     6  C    6.549592   7.551172   7.385442   6.151346   1.361943
     7  C    6.246542   7.420240   7.513141   6.458658   2.398079
     8  C    4.997698   6.247889   6.513621   5.635273   2.787293
     9  C    2.514345   3.805326   4.275987   3.749271   3.823161
    10  C    3.798615   4.335357   3.824904   2.483216   2.454856
    11  C    1.456134   2.488113   2.805457   2.378352   4.289723
    12  C    2.461829   2.879561   2.478499   1.382257   3.793071
    13  C    3.862430   5.017391   5.176756   4.267709   2.445592
    14  C    4.320742   5.187630   4.959387   3.749098   1.425117
    15  H    1.085972   2.154165   3.365163   3.850211   6.327127
    16  H    2.153768   1.080469   2.146476   3.447328   7.646605
    17  H    3.369977   2.148296   1.083951   2.188529   7.124260
    18  H    3.850114   3.418453   2.185221   1.085836   5.070574
    19  H    4.650789   4.950515   4.166472   2.716659   2.693286
    20  H    6.334267   6.997078   6.456650   5.049846   1.083977
    21  H    7.614887   8.582364   8.345181   7.056204   2.122306
    22  H    7.147282   8.374795   8.541592   7.523905   3.376901
    23  H    5.127458   6.469770   6.945246   6.250253   3.872231
    24  H    2.720985   4.045585   4.697946   4.353858   4.481583
    25  H    2.720855   4.045455   4.697835   4.353780   4.481665
                    6          7          8          9         10
     6  C    0.000000
     7  C    1.402714   0.000000
     8  C    2.424236   1.397822   0.000000
     9  C    4.295309   3.779274   2.486955   0.000000
    10  C    3.698486   4.198306   3.704146   2.892918   0.000000
    11  C    5.122726   4.932213   3.788715   1.472872   2.461937
    12  C    4.907077   5.105158   4.253050   2.503940   1.455830
    13  C    2.795260   2.403061   1.367569   1.500066   2.461601
    14  C    2.426093   2.804153   2.428641   2.532167   1.394155
    15  H    6.955598   6.438654   5.093471   2.681081   4.644795
    16  H    8.579502   8.375102   7.148279   4.667679   5.415759
    17  H    8.317797   8.527910   7.570003   5.359315   4.670598
    18  H    6.379573   6.900727   6.255802   4.641268   2.715301
    19  H    4.049984   4.836133   4.581031   3.975860   1.083204
    20  H    2.130092   3.387350   3.871120   4.688806   2.669405
    21  H    1.082630   2.154357   3.402525   5.377814   4.574807
    22  H    2.160813   1.083445   2.153713   4.639924   5.281751
    23  H    3.403907   2.149291   1.085130   2.687812   4.586413
    24  H    4.806669   4.123748   2.794673   1.106484   3.685684
    25  H    4.806781   4.123879   2.794804   1.106491   3.685688
                   11         12         13         14         15
    11  C    0.000000
    12  C    1.389972   0.000000
    13  C    2.529632   2.885501   0.000000
    14  C    2.864619   2.480984   1.431744   0.000000
    15  H    2.184757   3.424995   4.169628   4.924014   0.000000
    16  H    3.470148   3.959994   5.976815   6.241185   2.492739
    17  H    3.887909   3.436894   6.222237   5.899153   4.283944
    18  H    3.370044   2.143456   4.908551   4.102072   4.935509
    19  H    3.428388   2.191245   3.444192   2.155269   5.579151
    20  H    4.900234   4.121345   3.424019   2.161047   7.035260
    21  H    6.178930   5.872081   3.877748   3.408892   8.037321
    22  H    5.895789   6.161392   3.379702   3.887598   7.232201
    23  H    4.142489   4.889761   2.128260   3.415366   4.990040
    24  H    2.087845   3.221248   2.160024   3.285800   2.603170
    25  H    2.087764   3.221197   2.160113   3.285857   2.603036
                   16         17         18         19         20
    16  H    0.000000
    17  H    2.497649   0.000000
    18  H    4.320861   2.481027   0.000000
    19  H    6.016603   4.824367   2.496910   0.000000
    20  H    8.076411   7.218078   4.947229   2.450485   0.000000
    21  H    9.622064   9.240009   7.177685   4.743262   2.457662
    22  H    9.294733   9.569927   7.983022   5.902930   4.280316
    23  H    7.264593   8.024896   6.985765   5.536345   4.956132
    24  H    4.777900   5.762741   5.285254   4.744928   5.380061
    25  H    4.777762   5.762627   5.285189   4.744931   5.380129
                   21         22         23         24         25
    21  H    0.000000
    22  H    2.482486   0.000000
    23  H    4.292935   2.470483   0.000000
    24  H    5.866768   4.858732   2.712234   0.000000
    25  H    5.866883   4.858870   2.712369   1.728402   0.000000
 Stoichiometry    C14H11(1+)
 Framework group  C1[X(C14H11)]
 Deg. of freedom    69
 Full point group                 C1      NOp   1
 Largest Abelian subgroup         C1      NOp   1
 Largest concise Abelian subgroup C1      NOp   1
                         Standard orientation:                         
 ---------------------------------------------------------------------
 Center     Atomic      Atomic             Coordinates (Angstroms)
 Number     Number       Type             X           Y           Z
 ---------------------------------------------------------------------
      1          6           0        2.534738   -1.343888    0.000000
      2          6           0        3.742376   -0.654561    0.000000
      3          6           0        3.700957    0.722146    0.000000
      4          6           0        2.425853    1.419220    0.000000
      5          6           0       -2.511998    1.402979    0.000000
      6          6           0       -3.684475    0.710023    0.000000
      7          6           0       -3.677767   -0.692675    0.000000
      8          6           0       -2.462800   -1.383880    0.000000
      9          6           0        0.023024   -1.458878    0.000000
     10          6           0       -0.057325    1.432924    0.000000
     11          6           0        1.254266   -0.650549    0.000000
     12          6           0        1.222516    0.739061    0.000000
     13          6           0       -1.274746   -0.706553    0.000000
     14          6           0       -1.258429    0.725098    0.000000
     15          1           0        2.522129   -2.429787    0.000000
     16          1           0        4.682757   -1.186631    0.000000
     17          1           0        4.611655    1.310006    0.000000
     18          1           0        2.437374    2.504994    0.000000
     19          1           0       -0.059511    2.516126    0.000000
     20          1           0       -2.509822    2.486954    0.000000
     21          1           0       -4.628094    1.240749    0.000000
     22          1           0       -4.611814   -1.241683    0.000000
     23          1           0       -2.467757   -2.468999    0.000000
     24          1           0        0.082901   -2.147265    0.864201
     25          1           0        0.083045   -2.147264   -0.864201
 ---------------------------------------------------------------------
 Rotational constants (GHZ):           2.1249228           0.4424641           0.3670104
 Standard basis: 6-311++G(d,p) (5D, 7F)
 There are   399 symmetry adapted cartesian basis functions of A   symmetry.
 There are   385 symmetry adapted basis functions of A   symmetry.
   385 basis functions,   603 primitive gaussians,   399 cartesian basis functions
    47 alpha electrons       47 beta electrons
       nuclear repulsion energy       779.3466543270 Hartrees.
 NAtoms=   25 NActive=   25 NUniq=   25 SFac= 1.00D+00 NAtFMM=   60 NAOKFM=F Big=F
 Integral buffers will be    131072 words long.
 Regular integral format.
 Two-electron integral symmetry is turned on.
 One-electron integrals computed using PRISM.
 NBasis=   385 RedAO= T EigKep=  1.15D-06  NBF=   385
 NBsUse=   379 1.00D-06 EigRej=  8.64D-07 NBFU=   379
 ExpMin= 3.60D-02 ExpMax= 4.56D+03 ExpMxC= 6.82D+02 IAcc=3 IRadAn=         5 AccDes= 0.00D+00
 Harris functional with IExCor= 1009 and IRadAn=       5 diagonalized for initial guess.
 HarFok:  IExCor= 1009 AccDes= 0.00D+00 IRadAn=         5 IDoV= 1 UseB2=F ITyADJ=14
 ICtDFT=  3500011 ScaDFX=  1.000000  1.000000  1.000000  1.000000
 FoFCou: FMM=F IPFlag=           0 FMFlag=      100000 FMFlg1=           0
         NFxFlg=           0 DoJE=T BraDBF=F KetDBF=T FulRan=T
         wScrn=  0.000000 ICntrl=       500 IOpCl=  0 I1Cent=   200000004 NGrid=           0
         NMat0=    1 NMatS0=      1 NMatT0=    0 NMatD0=    1 NMtDS0=    0 NMtDT0=    0
 Petite list used in FoFCou.
 Requested convergence on RMS density matrix=1.00D-08 within 128 cycles.
 Requested convergence on MAX density matrix=1.00D-06.
 Requested convergence on             energy=1.00D-06.
 No special actions if energy rises.
 SCF Done:  E(RM062X) =  -539.750312725     A.U. after   16 cycles
            NFock= 16  Conv=0.37D-08     -V/T= 2.0044
 DoSCS=F DFT=T ScalE2(SS,OS)=  1.000000  1.000000
 ExpMin= 3.60D-02 ExpMax= 4.56D+03 ExpMxC= 6.82D+02 IAcc=3 IRadAn=         5 AccDes= 0.00D+00
 HarFok:  IExCor=  205 AccDes= 0.00D+00 IRadAn=         5 IDoV=-2 UseB2=F ITyADJ=14
 ICtDFT= 12500011 ScaDFX=  1.000000  1.000000  1.000000  1.000000
 Range of M.O.s used for correlation:    15   379
 NBasis=   385 NAE=    47 NBE=    47 NFC=    14 NFV=     0
 NROrb=    365 NOA=    33 NOB=    33 NVA=   332 NVB=   332

 **** Warning!!: The largest alpha MO coefficient is  0.14121250D+03

 Orbital symmetries:
       Occupied  (A) (A) (A) (A) (A) (A) (A) (A) (A) (A) (A) (A)
                 (A) (A) (A) (A) (A) (A) (A) (A) (A) (A) (A) (A)
                 (A) (A) (A) (A) (A) (A) (A) (A) (A) (A) (A) (A)
                 (A) (A) (A) (A) (A) (A) (A) (A) (A) (A) (A)
       Virtual   (A) (A) (A) (A) (A) (A) (A) (A) (A) (A) (A) (A)
                 (A) (A) (A) (A) (A) (A) (A) (A) (A) (A) (A) (A)
                 (A) (A) (A) (A) (A) (A) (A) (A) (A) (A) (A) (A)
                 (A) (A) (A) (A) (A) (A) (A) (A) (A) (A) (A) (A)
                 (A) (A) (A) (A) (A) (A) (A) (A) (A) (A) (A) (A)
                 (A) (A) (A) (A) (A) (A) (A) (A) (A) (A) (A) (A)
                 (A) (A) (A) (A) (A) (A) (A) (A) (A) (A) (A) (A)
                 (A) (A) (A) (A) (A) (A) (A) (A) (A) (A) (A) (A)
                 (A) (A) (A) (A) (A) (A) (A) (A) (A) (A) (A) (A)
                 (A) (A) (A) (A) (A) (A) (A) (A) (A) (A) (A) (A)
                 (A) (A) (A) (A) (A) (A) (A) (A) (A) (A) (A) (A)
                 (A) (A) (A) (A) (A) (A) (A) (A) (A) (A) (A) (A)
                 (A) (A) (A) (A) (A) (A) (A) (A) (A) (A) (A) (A)
                 (A) (A) (A) (A) (A) (A) (A) (A) (A) (A) (A) (A)
                 (A) (A) (A) (A) (A) (A) (A) (A) (A) (A) (A) (A)
                 (A) (A) (A) (A) (A) (A) (A) (A) (A) (A) (A) (A)
                 (A) (A) (A) (A) (A) (A) (A) (A) (A) (A) (A) (A)
                 (A) (A) (A) (A) (A) (A) (A) (A) (A) (A) (A) (A)
                 (A) (A) (A) (A) (A) (A) (A) (A) (A) (A) (A) (A)
                 (A) (A) (A) (A) (A) (A) (A) (A) (A) (A) (A) (A)
                 (A) (A) (A) (A) (A) (A) (A) (A) (A) (A) (A) (A)
                 (A) (A) (A) (A) (A) (A) (A) (A) (A) (A) (A) (A)
                 (A) (A) (A) (A) (A) (A) (A) (A) (A) (A) (A) (A)
                 (A) (A) (A) (A) (A) (A) (A) (A) (A) (A) (A) (A)
                 (A) (A) (A) (A) (A) (A) (A) (A) (A) (A) (A) (A)
                 (A) (A) (A) (A) (A) (A) (A) (A) (A) (A) (A) (A)
                 (A) (A) (A) (A) (A) (A) (A) (A) (A) (A) (A) (A)
                 (A) (A) (A) (A) (A) (A) (A) (A)
    12 initial guesses have been made.
 Convergence on wavefunction:    0.001000000000000
 Iteration     1 Dimension    12 NMult     0 NNew     12
 CISAX will form    12 AO SS matrices at one time.
 New state      2 was old state      3
 New state      3 was old state      2
 Iteration     2 Dimension    18 NMult    12 NNew      6
 Iteration     3 Dimension    24 NMult    18 NNew      6
 Iteration     4 Dimension    30 NMult    24 NNew      6
 Iteration     5 Dimension    36 NMult    30 NNew      6
 Iteration     6 Dimension    42 NMult    36 NNew      6
 ***********************************************************************
 Excited states from <AA,BB:AA,BB> singles matrix:
 ***********************************************************************
 
 Ground to excited state transition densities written to RWF  633
 Ground to excited state transition electric dipole moments (Au):
       state          X           Y           Z        Dip. S.      Osc.
         1         0.0775     -0.5248      0.0000      0.2814      0.0180
         2         1.2236      0.3381      0.0000      1.6116      0.1349
         3         2.2239     -0.1733      0.0000      4.9757      0.4259
 Ground to excited state transition velocity dipole moments (Au):
       state          X           Y           Z        Dip. S.      Osc.
         1        -0.0036      0.0570      0.0000      0.0033      0.0227
         2        -0.1491     -0.0458     -0.0000      0.0243      0.1292
         3        -0.2904      0.0238     -0.0000      0.0849      0.4407
 Ground to excited state transition magnetic dipole moments (Au):
       state          X           Y           Z
         1         0.0000      0.0000      0.1612
         2        -0.0000     -0.0000      1.3554
         3        -0.0000      0.0000      0.5146
 Ground to excited state transition velocity quadrupole moments (Au):
       state          XX          YY          ZZ          XY          XZ          YZ
         1         0.2262      0.0243     -0.0078      0.0856      0.0000      0.0000
         2        -0.1203     -0.0297      0.0055      0.3156      0.0000      0.0000
         3         0.2016      0.0052     -0.0034     -0.0257     -0.0000     -0.0000
 <0|del|b> * <b|rxdel|0> + <0|del|b> * <b|delr+rdel|0>
 Rotatory Strengths (R) in cgs (10**-40 erg-esu-cm/Gauss)
       state          XX          YY          ZZ    R(velocity)    E-M Angle
         1         0.0004      0.0002      0.0017      0.0008       90.00
         2        -0.0019      0.0003      0.0032      0.0005       90.00
         3        -0.0009      0.0006      0.0010      0.0002       90.00
 1/2[<0|r|b>*<b|rxdel|0> + (<0|rxdel|b>*<b|r|0>)*]
 Rotatory Strengths (R) in cgs (10**-40 erg-esu-cm/Gauss)
       state          XX          YY          ZZ     R(length)
         1        -0.0000      0.0011     -0.0002      0.0003
         2         0.0051      0.0013     -0.0026      0.0013
         3         0.0038      0.0012     -0.0020      0.0010
  1/2[<0|del|b>*<b|r|0> + (<0|r|b>*<b|del|0>)*] (Au)
       state          X           Y           Z        Dip. S.   Osc.(frdel)
         1        -0.0003     -0.0299      0.0000      0.0302      0.0201
         2        -0.1824     -0.0155     -0.0000      0.1979      0.1319
         3        -0.6457     -0.0041     -0.0000      0.6498      0.4332

 Excitation energies and oscillator strengths:
 
 Excited State   1:      Singlet-A      2.6130 eV  474.50 nm  f=0.0180  <S**2>=0.000
      47 -> 48         0.70337
 This state for optimization and/or second-order correction.
 Total Energy, E(TD-HF/TD-DFT) =  -539.654287952    
 Copying the excited state density for this state as the 1-particle RhoCI density.
 
 Excited State   2:      Singlet-A      3.4163 eV  362.92 nm  f=0.1349  <S**2>=0.000
      45 -> 48         0.52868
      46 -> 48         0.45768
 
 Excited State   3:      Singlet-A      3.4938 eV  354.87 nm  f=0.4259  <S**2>=0.000
      45 -> 48        -0.46185
      46 -> 48         0.52592
 SavETr:  write IOETrn=   770 NScale= 10 NData=  16 NLR=1 NState=    3 LETran=      64.

 **********************************************************************

            Population analysis using the SCF Density.

 **********************************************************************

 Orbital symmetries:
       Occupied  (A) (A) (A) (A) (A) (A) (A) (A) (A) (A) (A) (A)
                 (A) (A) (A) (A) (A) (A) (A) (A) (A) (A) (A) (A)
                 (A) (A) (A) (A) (A) (A) (A) (A) (A) (A) (A) (A)
                 (A) (A) (A) (A) (A) (A) (A) (A) (A) (A) (A)
       Virtual   (A) (A) (A) (A) (A) (A) (A) (A) (A) (A) (A) (A)
                 (A) (A) (A) (A) (A) (A) (A) (A) (A) (A) (A) (A)
                 (A) (A) (A) (A) (A) (A) (A) (A) (A) (A) (A) (A)
                 (A) (A) (A) (A) (A) (A) (A) (A) (A) (A) (A) (A)
                 (A) (A) (A) (A) (A) (A) (A) (A) (A) (A) (A) (A)
                 (A) (A) (A) (A) (A) (A) (A) (A) (A) (A) (A) (A)
                 (A) (A) (A) (A) (A) (A) (A) (A) (A) (A) (A) (A)
                 (A) (A) (A) (A) (A) (A) (A) (A) (A) (A) (A) (A)
                 (A) (A) (A) (A) (A) (A) (A) (A) (A) (A) (A) (A)
                 (A) (A) (A) (A) (A) (A) (A) (A) (A) (A) (A) (A)
                 (A) (A) (A) (A) (A) (A) (A) (A) (A) (A) (A) (A)
                 (A) (A) (A) (A) (A) (A) (A) (A) (A) (A) (A) (A)
                 (A) (A) (A) (A) (A) (A) (A) (A) (A) (A) (A) (A)
                 (A) (A) (A) (A) (A) (A) (A) (A) (A) (A) (A) (A)
                 (A) (A) (A) (A) (A) (A) (A) (A) (A) (A) (A) (A)
                 (A) (A) (A) (A) (A) (A) (A) (A) (A) (A) (A) (A)
                 (A) (A) (A) (A) (A) (A) (A) (A) (A) (A) (A) (A)
                 (A) (A) (A) (A) (A) (A) (A) (A) (A) (A) (A) (A)
                 (A) (A) (A) (A) (A) (A) (A) (A) (A) (A) (A) (A)
                 (A) (A) (A) (A) (A) (A) (A) (A) (A) (A) (A) (A)
                 (A) (A) (A) (A) (A) (A) (A) (A) (A) (A) (A) (A)
                 (A) (A) (A) (A) (A) (A) (A) (A) (A) (A) (A) (A)
                 (A) (A) (A) (A) (A) (A) (A) (A) (A) (A) (A) (A)
                 (A) (A) (A) (A) (A) (A) (A) (A) (A) (A) (A) (A)
                 (A) (A) (A) (A) (A) (A) (A) (A) (A) (A) (A) (A)
                 (A) (A) (A) (A) (A) (A) (A) (A) (A) (A) (A) (A)
                 (A) (A) (A) (A) (A) (A) (A) (A) (A) (A) (A) (A)
                 (A) (A) (A) (A) (A) (A) (A) (A)
 The electronic state is 1-A.
 Alpha  occ. eigenvalues --  -10.77649 -10.73946 -10.73009 -10.72717 -10.72385
 Alpha  occ. eigenvalues --  -10.71981 -10.71981 -10.71084 -10.70870 -10.70349
 Alpha  occ. eigenvalues --  -10.70047 -10.69944 -10.69805 -10.69415  -1.16347
 Alpha  occ. eigenvalues --   -1.12271  -1.06752  -1.05729  -1.01148  -1.00329
 Alpha  occ. eigenvalues --   -0.95432  -0.90916  -0.86318  -0.85744  -0.83710
 Alpha  occ. eigenvalues --   -0.78233  -0.76013  -0.74208  -0.69830  -0.69180
 Alpha  occ. eigenvalues --   -0.68205  -0.67988  -0.67915  -0.65286  -0.64148
 Alpha  occ. eigenvalues --   -0.62547  -0.61518  -0.60415  -0.59247  -0.59079
 Alpha  occ. eigenvalues --   -0.56804  -0.55460  -0.54211  -0.52332  -0.47413
 Alpha  occ. eigenvalues --   -0.46068  -0.43586
 Alpha virt. eigenvalues --   -0.26140  -0.14738  -0.14079  -0.12815  -0.11183
 Alpha virt. eigenvalues --   -0.10093  -0.09268  -0.07955  -0.07945  -0.07492
 Alpha virt. eigenvalues --   -0.07207  -0.07146  -0.05663  -0.05581  -0.05379
 Alpha virt. eigenvalues --   -0.03846  -0.03650  -0.03287  -0.03159  -0.02158
 Alpha virt. eigenvalues --   -0.01331  -0.00963   0.00171   0.00563   0.00631
 Alpha virt. eigenvalues --    0.01069   0.01493   0.01907   0.02095   0.02296
 Alpha virt. eigenvalues --    0.02437   0.02658   0.02734   0.03181   0.03462
 Alpha virt. eigenvalues --    0.04205   0.04476   0.04721   0.05004   0.05360
 Alpha virt. eigenvalues --    0.06029   0.06242   0.06559   0.07038   0.07261
 Alpha virt. eigenvalues --    0.07880   0.07990   0.08315   0.08604   0.08865
 Alpha virt. eigenvalues --    0.09434   0.09525   0.09847   0.10646   0.10847
 Alpha virt. eigenvalues --    0.11113   0.12005   0.12200   0.12566   0.12986
 Alpha virt. eigenvalues --    0.13460   0.13514   0.13944   0.14178   0.15701
 Alpha virt. eigenvalues --    0.16263   0.16410   0.17304   0.17365   0.17697
 Alpha virt. eigenvalues --    0.18033   0.18993   0.19340   0.19623   0.19866
 Alpha virt. eigenvalues --    0.21422   0.21527   0.22492   0.23057   0.23499
 Alpha virt. eigenvalues --    0.23888   0.24502   0.25349   0.26860   0.27469
 Alpha virt. eigenvalues --    0.28719   0.29246   0.29809   0.31251   0.35461
 Alpha virt. eigenvalues --    0.36173   0.38137   0.39200   0.40948   0.41266
 Alpha virt. eigenvalues --    0.41815   0.42130   0.43023   0.43589   0.44451
 Alpha virt. eigenvalues --    0.44559   0.44918   0.45798   0.46179   0.47898
 Alpha virt. eigenvalues --    0.48372   0.48683   0.49075   0.50601   0.50947
 Alpha virt. eigenvalues --    0.51006   0.52029   0.52154   0.52550   0.54113
 Alpha virt. eigenvalues --    0.54121   0.54504   0.55603   0.55977   0.57577
 Alpha virt. eigenvalues --    0.58178   0.58910   0.61445   0.62147   0.62268
 Alpha virt. eigenvalues --    0.62984   0.63427   0.64641   0.65063   0.67367
 Alpha virt. eigenvalues --    0.70141   0.70337   0.71042   0.72428   0.72824
 Alpha virt. eigenvalues --    0.75482   0.75874   0.76384   0.76667   0.77110
 Alpha virt. eigenvalues --    0.77783   0.77994   0.78206   0.79971   0.80264
 Alpha virt. eigenvalues --    0.81105   0.81526   0.82379   0.82839   0.85136
 Alpha virt. eigenvalues --    0.86931   0.88066   0.88070   0.89199   0.90604
 Alpha virt. eigenvalues --    0.90895   0.91412   0.93233   0.94417   0.96244
 Alpha virt. eigenvalues --    0.96749   1.00151   1.01146   1.01384   1.02764
 Alpha virt. eigenvalues --    1.03057   1.03094   1.04737   1.05971   1.08696
 Alpha virt. eigenvalues --    1.19484   1.22791   1.24019   1.24034   1.28930
 Alpha virt. eigenvalues --    1.29196   1.32117   1.34105   1.35681   1.35812
 Alpha virt. eigenvalues --    1.39143   1.39493   1.40564   1.42773   1.43245
 Alpha virt. eigenvalues --    1.43247   1.43886   1.46121   1.46254   1.46421
 Alpha virt. eigenvalues --    1.47560   1.47894   1.51509   1.53426   1.55253
 Alpha virt. eigenvalues --    1.55444   1.56090   1.56373   1.57606   1.61107
 Alpha virt. eigenvalues --    1.62723   1.63324   1.64207   1.65903   1.68008
 Alpha virt. eigenvalues --    1.68029   1.68496   1.69617   1.74155   1.75630
 Alpha virt. eigenvalues --    1.76783   1.78040   1.79193   1.79642   1.81039
 Alpha virt. eigenvalues --    1.82476   1.82839   1.83240   1.83679   1.83948
 Alpha virt. eigenvalues --    1.84439   1.85221   1.86218   1.88270   1.91149
 Alpha virt. eigenvalues --    1.91941   1.93584   1.95284   1.97419   1.97811
 Alpha virt. eigenvalues --    1.99566   2.01926   2.04127   2.06966   2.11308
 Alpha virt. eigenvalues --    2.11801   2.14037   2.14807   2.18557   2.20710
 Alpha virt. eigenvalues --    2.22219   2.27890   2.29684   2.33735   2.34220
 Alpha virt. eigenvalues --    2.35742   2.38135   2.39419   2.41754   2.44153
 Alpha virt. eigenvalues --    2.45631   2.45669   2.48610   2.52437   2.53105
 Alpha virt. eigenvalues --    2.54174   2.56760   2.57822   2.58494   2.59246
 Alpha virt. eigenvalues --    2.59981   2.61197   2.61886   2.63501   2.63569
 Alpha virt. eigenvalues --    2.64785   2.64940   2.65096   2.65706   2.67408
 Alpha virt. eigenvalues --    2.67760   2.70555   2.70760   2.73252   2.74646
 Alpha virt. eigenvalues --    2.76114   2.77250   2.79462   2.82399   2.83087
 Alpha virt. eigenvalues --    2.83939   2.86042   2.91805   2.96871   2.99075
 Alpha virt. eigenvalues --    2.99872   3.04156   3.07771   3.10269   3.13540
 Alpha virt. eigenvalues --    3.19407   3.20730   3.25172   3.28033   3.30270
 Alpha virt. eigenvalues --    3.31964   3.34416   3.43582   3.45641   3.46116
 Alpha virt. eigenvalues --    3.47368   3.48888   3.55849   3.65728   3.66342
 Alpha virt. eigenvalues --    3.67522   3.93096   3.93411   3.94850   3.96012
 Alpha virt. eigenvalues --    4.03354   4.05856   4.07109   4.11898   4.34714
 Alpha virt. eigenvalues --    4.59857   4.68231   4.70266  23.44925  23.59411
 Alpha virt. eigenvalues --   23.78127  23.80089  23.83240  23.88399  23.91165
 Alpha virt. eigenvalues --   23.94283  23.94912  23.96990  24.03700  24.06885
 Alpha virt. eigenvalues --   24.10544  24.13323
     Molecular Orbital Coefficients:
                          43        44        45        46        47
                           O         O         O         O         O
     Eigenvalues --    -0.54211  -0.52332  -0.47413  -0.46068  -0.43586
   1 1   C  1S          0.00287  -0.00000   0.00000   0.00000  -0.00000
   2        2S          0.00474  -0.00000   0.00000   0.00000  -0.00000
   3        2PX         0.09007  -0.00000   0.00000   0.00000  -0.00000
   4        2PY        -0.03309  -0.00000  -0.00000   0.00000   0.00000
   5        2PZ         0.00000   0.07604   0.03669  -0.06378   0.12372
   6        3S         -0.01545   0.00000  -0.00000  -0.00000   0.00000
   7        3PX         0.13002  -0.00000   0.00000   0.00000  -0.00000
   8        3PY        -0.04790  -0.00000  -0.00000  -0.00000   0.00000
   9        3PZ         0.00000   0.12203   0.05929  -0.10327   0.20243
  10        4S          0.02124   0.00000  -0.00000  -0.00000  -0.00000
  11        4PX         0.06738   0.00000   0.00000   0.00000  -0.00000
  12        4PY        -0.03771   0.00000  -0.00000  -0.00000  -0.00000
  13        4PZ         0.00000   0.10023   0.05194  -0.09280   0.18465
  14        5S         -0.13667  -0.00001  -0.00006  -0.00003  -0.00004
  15        5PX        -0.10775   0.00000   0.00005   0.00004   0.00005
  16        5PY        -0.02339   0.00000   0.00000   0.00000   0.00000
  17        5PZ         0.00000  -0.00136   0.02526  -0.00909   0.04130
  18        6D 0       -0.00024   0.00000   0.00000  -0.00000  -0.00000
  19        6D+1       -0.00000   0.00825  -0.00361  -0.01479  -0.00992
  20        6D-1        0.00000   0.00791   0.00160  -0.00459   0.00699
  21        6D+2       -0.00909  -0.00000   0.00000   0.00000  -0.00000
  22        6D-2        0.01032  -0.00000   0.00000   0.00000  -0.00000
  23 2   C  1S         -0.00285   0.00000  -0.00000  -0.00000   0.00000
  24        2S         -0.00476   0.00000  -0.00000  -0.00000   0.00000
  25        2PX        -0.07403   0.00000  -0.00000  -0.00000   0.00000
  26        2PY         0.02899   0.00000  -0.00000  -0.00000   0.00000
  27        2PZ        -0.00000   0.10278   0.00321  -0.11191   0.00399
  28        3S          0.01619  -0.00000   0.00000   0.00000  -0.00000
  29        3PX        -0.10731   0.00000  -0.00000  -0.00000   0.00000
  30        3PY         0.04146   0.00000  -0.00000  -0.00000   0.00000
  31        3PZ        -0.00000   0.16907   0.00590  -0.18391   0.00701
  32        4S         -0.00803  -0.00000   0.00000   0.00000   0.00000
  33        4PX        -0.08403   0.00000  -0.00000  -0.00000  -0.00000
  34        4PY         0.03579   0.00000   0.00000   0.00000   0.00000
  35        4PZ        -0.00000   0.12581   0.00322  -0.15435   0.00618
  36        5S          0.10819   0.00001   0.00001  -0.00000   0.00001
  37        5PX        -0.04684  -0.00000   0.00000   0.00000   0.00001
  38        5PY        -0.06628   0.00000   0.00003   0.00002   0.00003
  39        5PZ         0.00000   0.00320  -0.01804  -0.00530  -0.00481
  40        6D 0       -0.00019   0.00000   0.00000   0.00000  -0.00000
  41        6D+1       -0.00000  -0.00964  -0.00335   0.00772  -0.01196
  42        6D-1       -0.00000   0.00579  -0.00563  -0.00387  -0.02094
  43        6D+2       -0.01006   0.00000  -0.00000  -0.00000   0.00000
  44        6D-2        0.01827  -0.00000   0.00000   0.00000  -0.00000
  45 3   C  1S         -0.00031  -0.00000  -0.00000   0.00000   0.00000
  46        2S         -0.00051  -0.00000  -0.00000   0.00000   0.00000
  47        2PX         0.07058  -0.00000   0.00000   0.00000  -0.00000
  48        2PY        -0.03671  -0.00000  -0.00000  -0.00000  -0.00000
  49        2PZ        -0.00000   0.07900  -0.03147  -0.06031  -0.11875
  50        3S         -0.00062   0.00000   0.00000  -0.00000  -0.00000
  51        3PX         0.10235  -0.00000   0.00000   0.00000  -0.00000
  52        3PY        -0.05256  -0.00000  -0.00000  -0.00000  -0.00000
  53        3PZ        -0.00000   0.12835  -0.05183  -0.09726  -0.19512
  54        4S          0.02342   0.00000  -0.00000  -0.00000  -0.00000
  55        4PX         0.06824  -0.00000   0.00000   0.00000   0.00000
  56        4PY        -0.02106  -0.00000   0.00000   0.00000   0.00000
  57        4PZ        -0.00000   0.09925  -0.04484  -0.08410  -0.17595
  58        5S         -0.03333  -0.00001  -0.00006  -0.00003  -0.00005
  59        5PX         0.03788   0.00000   0.00000  -0.00000  -0.00000
  60        5PY        -0.06000   0.00000   0.00002   0.00001   0.00002
  61        5PZ        -0.00000   0.00632   0.01403  -0.01683  -0.01430
  62        6D 0       -0.00003  -0.00000   0.00000   0.00000  -0.00000
  63        6D+1        0.00000  -0.00340   0.00436  -0.00389   0.01199
  64        6D-1       -0.00000  -0.01141  -0.00233   0.01537  -0.00597
  65        6D+2       -0.00430  -0.00000   0.00000  -0.00000  -0.00000
  66        6D-2        0.01354  -0.00000   0.00000   0.00000  -0.00000
  67 4   C  1S          0.00282   0.00000  -0.00000   0.00000   0.00000
  68        2S          0.00469   0.00000  -0.00000   0.00000   0.00000
  69        2PX        -0.07092   0.00000  -0.00000   0.00000   0.00000
  70        2PY         0.03592   0.00000  -0.00000   0.00000   0.00000
  71        2PZ        -0.00000   0.01667  -0.04461   0.05351  -0.12418
  72        3S         -0.01451  -0.00000   0.00000  -0.00000  -0.00000
  73        3PX        -0.10138   0.00000  -0.00000  -0.00000   0.00000
  74        3PY         0.05196   0.00000  -0.00000   0.00000   0.00000
  75        3PZ        -0.00000   0.02622  -0.07359   0.08663  -0.20243
  76        4S         -0.03135  -0.00000   0.00000   0.00000   0.00000
  77        4PX        -0.07588   0.00000  -0.00000  -0.00000   0.00000
  78        4PY         0.05381   0.00000  -0.00000  -0.00000  -0.00000
  79        4PZ        -0.00000   0.02920  -0.05846   0.06744  -0.19857
  80        5S         -0.17331  -0.00001   0.00000  -0.00000   0.00002
  81        5PX         0.11526   0.00000  -0.00001  -0.00001  -0.00001
  82        5PY         0.03528   0.00000  -0.00000  -0.00000  -0.00000
  83        5PZ        -0.00000  -0.01127  -0.02321   0.03277  -0.03094
  84        6D 0        0.00002   0.00000   0.00000   0.00000  -0.00000
  85        6D+1        0.00000   0.01169  -0.00059  -0.01700  -0.01086
  86        6D-1        0.00000  -0.00350   0.00279  -0.00279   0.00628
  87        6D+2       -0.00876  -0.00000   0.00000  -0.00000  -0.00000
  88        6D-2        0.00928  -0.00000   0.00000   0.00000   0.00000
  89 5   C  1S          0.00444  -0.00000   0.00000   0.00000  -0.00000
  90        2S          0.00735  -0.00000   0.00000   0.00000  -0.00000
  91        2PX        -0.07022   0.00000  -0.00000  -0.00000   0.00000
  92        2PY         0.03705  -0.00000   0.00000   0.00000  -0.00000
  93        2PZ        -0.00000   0.00683   0.13012  -0.02546  -0.03961
  94        3S         -0.02349   0.00000  -0.00000  -0.00000   0.00000
  95        3PX        -0.10034   0.00000  -0.00000  -0.00000   0.00000
  96        3PY         0.05393  -0.00000   0.00000   0.00000  -0.00000
  97        3PZ        -0.00001   0.00954   0.21301  -0.04187  -0.06380
  98        4S          0.02147   0.00000   0.00000   0.00000   0.00000
  99        4PX        -0.04528   0.00000  -0.00000   0.00000   0.00000
 100        4PY         0.03900  -0.00000  -0.00000  -0.00000  -0.00000
 101        4PZ        -0.00000   0.01514   0.18801  -0.03175  -0.06811
 102        5S          0.21403   0.00001   0.00004   0.00001   0.00001
 103        5PX         0.08057   0.00000   0.00002   0.00001   0.00001
 104        5PY        -0.04320  -0.00000  -0.00001  -0.00000  -0.00000
 105        5PZ        -0.00000  -0.01832   0.03363  -0.03013  -0.00225
 106        6D 0       -0.00070  -0.00000  -0.00000  -0.00000   0.00000
 107        6D+1       -0.00000  -0.01467  -0.00973  -0.01681   0.00281
 108        6D-1        0.00000  -0.00286  -0.00855   0.00066   0.00216
 109        6D+2       -0.01056   0.00000  -0.00000  -0.00000   0.00000
 110        6D-2        0.00755  -0.00000   0.00000  -0.00000   0.00000
 111 6   C  1S         -0.00159   0.00000   0.00000   0.00000  -0.00000
 112        2S         -0.00266   0.00000   0.00000   0.00000  -0.00000
 113        2PX         0.05178  -0.00000   0.00000   0.00000  -0.00000
 114        2PY        -0.03123   0.00000  -0.00000  -0.00000   0.00000
 115        2PZ        -0.00000   0.07324   0.11512   0.06361  -0.02931
 116        3S          0.00926  -0.00000  -0.00000  -0.00000   0.00000
 117        3PX         0.07437  -0.00000   0.00000   0.00000  -0.00000
 118        3PY        -0.04543   0.00000  -0.00000  -0.00000  -0.00000
 119        3PZ        -0.00000   0.11930   0.18902   0.10373  -0.04811
 120        4S         -0.01256  -0.00000  -0.00000  -0.00000  -0.00000
 121        4PX         0.06366  -0.00000  -0.00000  -0.00000  -0.00000
 122        4PY        -0.03457   0.00000   0.00000   0.00000   0.00000
 123        4PZ        -0.00000   0.09529   0.16056   0.09352  -0.04231
 124        5S         -0.04493   0.00001  -0.00004  -0.00002  -0.00004
 125        5PX         0.00728   0.00000   0.00000   0.00000   0.00000
 126        5PY         0.04178  -0.00000   0.00002   0.00001   0.00002
 127        5PZ         0.00000   0.01093  -0.00067   0.02075  -0.01627
 128        6D 0       -0.00039   0.00000  -0.00000   0.00000   0.00000
 129        6D+1       -0.00000   0.00280   0.01395  -0.00143  -0.00399
 130        6D-1       -0.00000  -0.01108   0.00775  -0.01202  -0.00401
 131        6D+2       -0.00970   0.00000  -0.00000  -0.00000   0.00000
 132        6D-2        0.01372  -0.00000   0.00000   0.00000  -0.00000
 133 7   C  1S          0.00184  -0.00000   0.00000   0.00000  -0.00000
 134        2S          0.00305  -0.00000   0.00000   0.00000  -0.00000
 135        2PX        -0.05672   0.00000  -0.00000  -0.00000   0.00000
 136        2PY         0.04290  -0.00000   0.00000   0.00000  -0.00000
 137        2PZ        -0.00000   0.10049  -0.01367   0.09450   0.01861
 138        3S         -0.00997   0.00000  -0.00000  -0.00000   0.00000
 139        3PX        -0.08091   0.00000  -0.00000  -0.00000   0.00000
 140        3PY         0.06076  -0.00000   0.00000   0.00000  -0.00000
 141        3PZ        -0.00000   0.16583  -0.02279   0.15566   0.03024
 142        4S          0.02074   0.00000   0.00000   0.00000  -0.00000
 143        4PX        -0.04988   0.00000   0.00000   0.00000   0.00000
 144        4PY         0.03527  -0.00000   0.00000   0.00000   0.00000
 145        4PZ        -0.00000   0.12719  -0.01870   0.13384   0.02892
 146        5S         -0.01750  -0.00000  -0.00001  -0.00001  -0.00002
 147        5PX        -0.01528   0.00000  -0.00001  -0.00001  -0.00001
 148        5PY         0.04681  -0.00001   0.00003   0.00002   0.00003
 149        5PZ        -0.00000  -0.00087   0.01186   0.00222   0.01553
 150        6D 0       -0.00021  -0.00000  -0.00000  -0.00000   0.00000
 151        6D+1        0.00000   0.00888  -0.01259   0.00434   0.00467
 152        6D-1       -0.00000   0.00518   0.01980   0.00555  -0.00576
 153        6D+2       -0.00321  -0.00000   0.00000   0.00000  -0.00000
 154        6D-2        0.00996  -0.00000   0.00000   0.00000  -0.00000
 155 8   C  1S         -0.00075   0.00000  -0.00000   0.00000   0.00000
 156        2S         -0.00122   0.00000  -0.00000   0.00000   0.00000
 157        2PX         0.05859  -0.00000   0.00000   0.00000  -0.00000
 158        2PY        -0.03442   0.00000  -0.00000  -0.00000  -0.00000
 159        2PZ         0.00000   0.07216  -0.12748   0.03504   0.04327
 160        3S          0.00209  -0.00000   0.00000  -0.00000  -0.00000
 161        3PX         0.08197  -0.00000   0.00000   0.00000  -0.00000
 162        3PY        -0.05033   0.00000  -0.00000  -0.00000  -0.00000
 163        3PZ         0.00000   0.11633  -0.20846   0.05747   0.07178
 164        4S         -0.01246  -0.00000  -0.00000  -0.00000  -0.00000
 165        4PX         0.06311   0.00000   0.00000   0.00000  -0.00000
 166        4PY        -0.06150  -0.00000  -0.00000  -0.00000  -0.00000
 167        4PZ         0.00000   0.09671  -0.17878   0.05342   0.06523
 168        5S          0.08110   0.00001  -0.00003  -0.00002  -0.00005
 169        5PX        -0.05812   0.00001  -0.00006  -0.00004  -0.00005
 170        5PY        -0.00042  -0.00000   0.00001   0.00000   0.00001
 171        5PZ         0.00000   0.00259  -0.04428   0.00564   0.00094
 172        6D 0        0.00022  -0.00000  -0.00000  -0.00000   0.00000
 173        6D+1        0.00000  -0.00892  -0.00968  -0.01425  -0.00050
 174        6D-1        0.00000   0.00723  -0.00884   0.00250   0.00342
 175        6D+2       -0.01286   0.00000  -0.00000  -0.00000   0.00000
 176        6D-2        0.00912  -0.00000   0.00000  -0.00000  -0.00000
 177 9   C  1S          0.00336  -0.00000  -0.00000  -0.00000  -0.00000
 178        2S          0.00560  -0.00000  -0.00000  -0.00000  -0.00000
 179        2PX         0.08127  -0.00000   0.00000   0.00000  -0.00000
 180        2PY        -0.03488  -0.00000  -0.00000  -0.00000  -0.00000
 181        2PZ         0.00001  -0.00707   0.03182   0.00238  -0.05263
 182        3S         -0.01814   0.00000   0.00000   0.00000   0.00000
 183        3PX         0.12184  -0.00000   0.00000   0.00000  -0.00000
 184        3PY        -0.05147  -0.00000  -0.00000  -0.00000  -0.00000
 185        3PZ         0.00001  -0.00833   0.04834   0.00396  -0.08043
 186        4S          0.00134  -0.00000   0.00002   0.00001   0.00002
 187        4PX         0.08977   0.00000   0.00000   0.00000   0.00000
 188        4PY        -0.05348  -0.00000  -0.00000  -0.00000  -0.00000
 189        4PZ         0.00001  -0.04366   0.04628   0.00398  -0.08257
 190        5S          0.02216  -0.00000   0.00006   0.00004   0.00005
 191        5PX        -0.26167  -0.00000  -0.00001  -0.00001   0.00000
 192        5PY        -0.00190  -0.00000   0.00001   0.00001   0.00001
 193        5PZ         0.00000  -0.06847  -0.04839  -0.00585   0.07760
 194        6D 0        0.00394  -0.00000   0.00000  -0.00000  -0.00000
 195        6D+1       -0.00000   0.00059   0.01404   0.00892   0.00825
 196        6D-1       -0.00000   0.00047  -0.00824  -0.00023   0.01636
 197        6D+2       -0.01021   0.00000  -0.00000  -0.00000   0.00000
 198        6D-2        0.00827  -0.00000   0.00000   0.00000  -0.00000
 199 10  C  1S          0.00696  -0.00000   0.00000  -0.00000  -0.00000
 200        2S          0.01154  -0.00000   0.00000  -0.00000  -0.00000
 201        2PX        -0.07201   0.00000  -0.00000  -0.00000   0.00000
 202        2PY         0.03465  -0.00000   0.00000   0.00000  -0.00000
 203        2PZ        -0.00000  -0.10334  -0.00858  -0.00862   0.01446
 204        3S         -0.03528   0.00000   0.00000   0.00000   0.00000
 205        3PX        -0.10406   0.00000  -0.00000  -0.00000   0.00000
 206        3PY         0.05029  -0.00000   0.00000   0.00000   0.00000
 207        3PZ        -0.00001  -0.16833  -0.01459  -0.01375   0.02458
 208        4S         -0.03831   0.00000  -0.00001  -0.00000  -0.00001
 209        4PX        -0.08538  -0.00000  -0.00000  -0.00000   0.00000
 210        4PY         0.05974  -0.00000   0.00000   0.00000   0.00000
 211        4PZ        -0.00000  -0.13934  -0.01037  -0.01018   0.01784
 212        5S          0.01808  -0.00000   0.00005   0.00003   0.00005
 213        5PX         0.26025   0.00001   0.00002   0.00001  -0.00001
 214        5PY         0.00786   0.00000   0.00000  -0.00000   0.00000
 215        5PZ        -0.00000  -0.01420   0.02771   0.00614  -0.05203
 216        6D 0       -0.00105  -0.00000   0.00000   0.00000   0.00000
 217        6D+1        0.00000   0.00364  -0.00431   0.02356   0.00010
 218        6D-1        0.00000   0.00926   0.00199   0.00075  -0.00371
 219        6D+2       -0.01193  -0.00000  -0.00000  -0.00000  -0.00000
 220        6D-2        0.00815  -0.00000   0.00000   0.00000  -0.00000
 221 11  C  1S          0.00119   0.00000  -0.00000  -0.00000   0.00000
 222        2S          0.00201   0.00000  -0.00000  -0.00000   0.00000
 223        2PX        -0.07838   0.00000  -0.00000  -0.00000   0.00000
 224        2PY         0.05217   0.00000  -0.00000   0.00000   0.00000
 225        2PZ         0.00000   0.00856   0.03971   0.05309   0.11811
 226        3S         -0.00677  -0.00000   0.00000   0.00000  -0.00000
 227        3PX        -0.11498   0.00000  -0.00000  -0.00000   0.00001
 228        3PY         0.07488   0.00000  -0.00000   0.00000   0.00000
 229        3PZ         0.00000   0.01373   0.06454   0.08805   0.19268
 230        4S         -0.01131  -0.00000  -0.00000  -0.00000  -0.00001
 231        4PX        -0.11220   0.00000   0.00000   0.00000   0.00001
 232        4PY         0.07862   0.00000   0.00000   0.00000   0.00001
 233        4PZ         0.00000   0.02482   0.06786   0.06846   0.20267
 234        5S         -0.09480   0.00000  -0.00009  -0.00004  -0.00008
 235        5PX        -0.10300  -0.00001   0.00001   0.00001   0.00002
 236        5PY        -0.18664  -0.00002  -0.00010  -0.00006  -0.00007
 237        5PZ        -0.00000   0.01816   0.00183   0.02198  -0.06723
 238        6D 0        0.00029   0.00000   0.00000  -0.00000  -0.00000
 239        6D+1       -0.00000   0.00923   0.00107  -0.00708   0.01371
 240        6D-1       -0.00000  -0.00888  -0.00691   0.01514  -0.00162
 241        6D+2       -0.00994   0.00000  -0.00000  -0.00000  -0.00000
 242        6D-2        0.01483  -0.00000   0.00000  -0.00000  -0.00000
 243 12  C  1S         -0.00326  -0.00000   0.00000  -0.00000  -0.00000
 244        2S         -0.00551  -0.00000   0.00000  -0.00000  -0.00000
 245        2PX         0.06221  -0.00000   0.00000   0.00000  -0.00000
 246        2PY        -0.04688  -0.00000   0.00000  -0.00000  -0.00000
 247        2PZ        -0.00000  -0.04863  -0.02031   0.11497   0.00895
 248        3S          0.01606  -0.00000  -0.00000   0.00000   0.00000
 249        3PX         0.09031  -0.00000   0.00000   0.00000  -0.00000
 250        3PY        -0.06829  -0.00000   0.00000  -0.00000  -0.00000
 251        3PZ        -0.00000  -0.08018  -0.03090   0.18849   0.01447
 252        4S          0.00725   0.00000  -0.00000  -0.00000  -0.00000
 253        4PX         0.07214  -0.00000  -0.00001  -0.00000  -0.00001
 254        4PY        -0.03033   0.00000   0.00000   0.00000  -0.00000
 255        4PZ        -0.00000  -0.07337  -0.04312   0.18463   0.01346
 256        5S          0.18645   0.00001   0.00014   0.00007   0.00011
 257        5PX         0.26628   0.00002   0.00003   0.00001  -0.00000
 258        5PY        -0.14774  -0.00001  -0.00006  -0.00003  -0.00004
 259        5PZ         0.00000   0.01177   0.00161  -0.03325   0.07308
 260        6D 0        0.00006   0.00000  -0.00000  -0.00000   0.00000
 261        6D+1        0.00000   0.01245  -0.00291   0.00415  -0.01423
 262        6D-1       -0.00000  -0.00445  -0.00722  -0.00160  -0.02062
 263        6D+2       -0.01051  -0.00000   0.00000   0.00000  -0.00000
 264        6D-2        0.01709  -0.00000   0.00000  -0.00000  -0.00000
 265 13  C  1S          0.00228  -0.00000   0.00000   0.00000  -0.00000
 266        2S          0.00380  -0.00000   0.00000   0.00000  -0.00000
 267        2PX        -0.06930   0.00000  -0.00000  -0.00000   0.00000
 268        2PY         0.05969  -0.00000   0.00000   0.00000  -0.00000
 269        2PZ         0.00000  -0.00014  -0.11639  -0.05795   0.01830
 270        3S         -0.01110   0.00000  -0.00000   0.00000   0.00000
 271        3PX        -0.10260   0.00000  -0.00000  -0.00000   0.00000
 272        3PY         0.08842  -0.00000   0.00000   0.00000  -0.00000
 273        3PZ         0.00000  -0.00192  -0.18948  -0.09705   0.02959
 274        4S         -0.02356   0.00000  -0.00001  -0.00000   0.00001
 275        4PX        -0.10050   0.00000  -0.00001  -0.00000  -0.00000
 276        4PY         0.06165  -0.00000   0.00001   0.00000  -0.00000
 277        4PZ         0.00000   0.01278  -0.18509  -0.08110   0.02808
 278        5S          0.03500   0.00000  -0.00009  -0.00004  -0.00008
 279        5PX        -0.09347  -0.00001  -0.00003  -0.00002  -0.00002
 280        5PY         0.21697   0.00002  -0.00007  -0.00004  -0.00009
 281        5PZ        -0.00000   0.01357   0.07015  -0.00959  -0.04848
 282        6D 0       -0.00037  -0.00000  -0.00000  -0.00000   0.00000
 283        6D+1        0.00000  -0.00989   0.01475  -0.00447  -0.00798
 284        6D-1       -0.00000  -0.01207   0.00613  -0.01297   0.00195
 285        6D+2       -0.00900  -0.00000  -0.00000  -0.00000  -0.00000
 286        6D-2        0.01551  -0.00000   0.00000   0.00000  -0.00000
 287 14  C  1S         -0.00173  -0.00000  -0.00000  -0.00000   0.00000
 288        2S         -0.00290  -0.00000  -0.00000  -0.00000   0.00000
 289        2PX         0.06260  -0.00000   0.00000   0.00000  -0.00000
 290        2PY        -0.05328   0.00000  -0.00000  -0.00000   0.00000
 291        2PZ        -0.00000  -0.07916   0.00898  -0.10666   0.00180
 292        3S          0.00838   0.00000   0.00000   0.00000  -0.00000
 293        3PX         0.09075  -0.00000   0.00000   0.00000  -0.00000
 294        3PY        -0.07779   0.00000  -0.00000  -0.00000   0.00000
 295        3PZ        -0.00000  -0.12968   0.01373  -0.17523   0.00033
 296        4S         -0.01439  -0.00000   0.00000  -0.00000   0.00000
 297        4PX         0.09943  -0.00000   0.00001   0.00000   0.00000
 298        4PY        -0.08140  -0.00000  -0.00000   0.00000   0.00000
 299        4PZ        -0.00000  -0.11774   0.02103  -0.17479   0.01333
 300        5S         -0.17020  -0.00002   0.00011   0.00006   0.00012
 301        5PX         0.22796   0.00002   0.00003   0.00001  -0.00001
 302        5PY         0.14818   0.00001  -0.00005  -0.00003  -0.00006
 303        5PZ         0.00000   0.01841  -0.06604   0.01870   0.05085
 304        6D 0       -0.00012  -0.00000  -0.00000  -0.00000  -0.00000
 305        6D+1        0.00000  -0.01241  -0.01281   0.00016   0.00574
 306        6D-1       -0.00000  -0.00533   0.01861   0.00272  -0.00392
 307        6D+2       -0.00985   0.00000  -0.00000  -0.00000   0.00000
 308        6D-2        0.01479  -0.00000   0.00000   0.00000  -0.00000
 309 15  H  1S          0.03047   0.00000   0.00000  -0.00000   0.00000
 310        2S          0.04433   0.00000   0.00000  -0.00000   0.00000
 311        3S          0.01903   0.00000  -0.00000  -0.00000  -0.00000
 312        4S          0.01168   0.00000   0.00001   0.00000   0.00000
 313        5PX         0.00430  -0.00000   0.00000   0.00000  -0.00000
 314        5PY         0.00145   0.00000   0.00000  -0.00000  -0.00000
 315        5PZ         0.00000   0.00485   0.00280  -0.00445   0.00876
 316 16  H  1S         -0.07432   0.00000  -0.00000  -0.00000   0.00000
 317        2S         -0.10829   0.00000  -0.00000   0.00000   0.00000
 318        3S         -0.04192  -0.00000   0.00000   0.00000   0.00000
 319        4S         -0.00770   0.00000   0.00000   0.00000   0.00000
 320        5PX         0.00409  -0.00000  -0.00000  -0.00000   0.00000
 321        5PY        -0.00301   0.00000  -0.00000  -0.00000   0.00000
 322        5PZ        -0.00000   0.00663   0.00031  -0.00770   0.00031
 323 17  H  1S          0.03931  -0.00000   0.00000   0.00000  -0.00000
 324        2S          0.05604  -0.00000   0.00000  -0.00000  -0.00000
 325        3S          0.02258  -0.00000   0.00000   0.00000  -0.00000
 326        4S          0.00591   0.00000  -0.00000  -0.00000  -0.00000
 327        5PX        -0.00024   0.00000  -0.00000   0.00000   0.00000
 328        5PY        -0.00480   0.00000  -0.00000  -0.00000   0.00000
 329        5PZ        -0.00000   0.00502  -0.00216  -0.00402  -0.00857
 330 18  H  1S          0.03278   0.00000  -0.00000   0.00000   0.00000
 331        2S          0.04809   0.00000  -0.00000   0.00000   0.00000
 332        3S          0.02142   0.00000   0.00000   0.00000   0.00000
 333        4S         -0.01446   0.00000   0.00000   0.00000   0.00000
 334        5PX        -0.00441   0.00000  -0.00000   0.00000   0.00000
 335        5PY        -0.00221  -0.00000  -0.00000  -0.00000  -0.00000
 336        5PZ        -0.00000   0.00059  -0.00333   0.00386  -0.00889
 337 19  H  1S          0.03119  -0.00000   0.00000   0.00000   0.00000
 338        2S          0.04542  -0.00000   0.00000   0.00000  -0.00000
 339        3S          0.02200   0.00000  -0.00000  -0.00000  -0.00000
 340        4S          0.00289  -0.00000  -0.00000   0.00000  -0.00000
 341        5PX        -0.00376   0.00000  -0.00000  -0.00000   0.00000
 342        5PY        -0.00081   0.00000   0.00000   0.00000   0.00000
 343        5PZ        -0.00000  -0.00645  -0.00032  -0.00051   0.00048
 344 20  H  1S          0.03415  -0.00000   0.00000   0.00000  -0.00000
 345        2S          0.05083  -0.00000   0.00000   0.00000  -0.00000
 346        3S          0.02620  -0.00000   0.00000   0.00000   0.00000
 347        4S          0.01798  -0.00000   0.00000   0.00000   0.00000
 348        5PX        -0.00330   0.00000  -0.00000  -0.00000   0.00000
 349        5PY        -0.00157   0.00000  -0.00000  -0.00000  -0.00000
 350        5PZ        -0.00000  -0.00013   0.00900  -0.00198  -0.00259
 351 21  H  1S         -0.05863   0.00000  -0.00000  -0.00000   0.00000
 352        2S         -0.08560   0.00000  -0.00000  -0.00000   0.00000
 353        3S         -0.03276  -0.00000  -0.00000  -0.00000   0.00000
 354        4S         -0.00491  -0.00000  -0.00000  -0.00000  -0.00000
 355        5PX        -0.00349   0.00000  -0.00000  -0.00000   0.00000
 356        5PY         0.00183  -0.00000   0.00000   0.00000  -0.00000
 357        5PZ        -0.00000   0.00468   0.00789   0.00432  -0.00214
 358 22  H  1S          0.02494  -0.00000   0.00000   0.00000  -0.00000
 359        2S          0.03665  -0.00000   0.00000   0.00000  -0.00000
 360        3S          0.01688   0.00000   0.00000   0.00000  -0.00000
 361        4S          0.00738  -0.00000   0.00000   0.00000  -0.00000
 362        5PX        -0.00042  -0.00000  -0.00000   0.00000   0.00000
 363        5PY         0.00397  -0.00000   0.00000   0.00000  -0.00000
 364        5PZ        -0.00000   0.00640  -0.00094   0.00644   0.00123
 365 23  H  1S          0.03818  -0.00000   0.00000   0.00000  -0.00000
 366        2S          0.05366  -0.00000   0.00000  -0.00000  -0.00000
 367        3S          0.02253   0.00000  -0.00000  -0.00000  -0.00000
 368        4S         -0.00730  -0.00000   0.00001   0.00000   0.00001
 369        5PX         0.00349  -0.00000   0.00000   0.00000  -0.00000
 370        5PY         0.00208  -0.00000  -0.00000  -0.00000   0.00000
 371        5PZ         0.00000   0.00463  -0.00874   0.00252   0.00282
 372 24  H  1S          0.02257  -0.00393   0.02904   0.00200  -0.04940
 373        2S          0.03287   0.00324   0.04502   0.00283  -0.07895
 374        3S          0.01415   0.02486   0.03567   0.00178  -0.06643
 375        4S         -0.00201   0.04510   0.01924   0.00054  -0.03554
 376        5PX         0.00391   0.00007   0.00188   0.00046   0.00200
 377        5PY        -0.00010   0.00083   0.00199   0.00012  -0.00270
 378        5PZ        -0.00220   0.00014  -0.00083   0.00002   0.00144
 379 25  H  1S          0.02257   0.00393  -0.02904  -0.00200   0.04940
 380        2S          0.03287  -0.00324  -0.04502  -0.00283   0.07895
 381        3S          0.01414  -0.02486  -0.03569  -0.00179   0.06641
 382        4S         -0.00201  -0.04509  -0.01925  -0.00055   0.03552
 383        5PX         0.00391  -0.00007  -0.00188  -0.00046  -0.00200
 384        5PY        -0.00010  -0.00083  -0.00199  -0.00012   0.00270
 385        5PZ         0.00220   0.00014  -0.00083   0.00002   0.00144
                          48        49        50        51        52
                           V         V         V         V         V
     Eigenvalues --    -0.26140  -0.14738  -0.14079  -0.12815  -0.11183
   1 1   C  1S         -0.00000  -0.00000   0.00000   0.00000  -0.00525
   2        2S         -0.00000  -0.00000   0.00000   0.00000  -0.00890
   3        2PX         0.00000  -0.00000  -0.00000  -0.00000   0.00347
   4        2PY        -0.00000  -0.00000   0.00000   0.00000  -0.01406
   5        2PZ        -0.00476   0.10218  -0.02502  -0.09819  -0.00000
   6        3S          0.00000   0.00000  -0.00000  -0.00000   0.02942
   7        3PX         0.00000  -0.00000   0.00000   0.00000   0.00348
   8        3PY        -0.00000  -0.00000   0.00000   0.00000  -0.02071
   9        3PZ        -0.00771   0.15691  -0.03781  -0.15492  -0.00000
  10        4S          0.00000   0.00001   0.00000   0.00001   0.01390
  11        4PX         0.00000   0.00001  -0.00001  -0.00001   0.02505
  12        4PY         0.00000   0.00000   0.00000   0.00000  -0.07585
  13        4PZ        -0.00827   0.28877  -0.06883  -0.26989  -0.00000
  14        5S         -0.00001   0.00003   0.00023   0.00019  -1.55234
  15        5PX         0.00001  -0.00001  -0.00024  -0.00019   0.65509
  16        5PY         0.00000   0.00000  -0.00001  -0.00001  -0.43272
  17        5PZ         0.00858   0.21658  -0.01887  -0.31732  -0.00001
  18        6D 0        0.00000   0.00000   0.00000  -0.00000  -0.00500
  19        6D+1        0.01446   0.01077   0.02240  -0.00311   0.00000
  20        6D-1       -0.00185  -0.00857   0.00282   0.00759  -0.00000
  21        6D+2        0.00000   0.00000  -0.00000  -0.00000   0.00133
  22        6D-2        0.00000  -0.00000  -0.00000  -0.00000  -0.00097
  23 2   C  1S         -0.00000   0.00000   0.00000   0.00000  -0.00403
  24        2S         -0.00000   0.00000   0.00000   0.00000  -0.00667
  25        2PX        -0.00000   0.00000   0.00000  -0.00000   0.00541
  26        2PY        -0.00000   0.00000   0.00000  -0.00000  -0.00030
  27        2PZ         0.06888  -0.00341   0.09904   0.03669   0.00000
  28        3S          0.00000   0.00000  -0.00000  -0.00000   0.01896
  29        3PX        -0.00000   0.00000   0.00000  -0.00000   0.00943
  30        3PY        -0.00000   0.00000  -0.00000  -0.00000  -0.00200
  31        3PZ         0.11290  -0.00408   0.15761   0.05773   0.00000
  32        4S         -0.00000  -0.00001   0.00000   0.00000   0.09898
  33        4PX         0.00000   0.00001   0.00000   0.00000  -0.00692
  34        4PY         0.00000  -0.00000  -0.00000  -0.00000   0.01175
  35        4PZ         0.12981  -0.01544   0.26068   0.09994   0.00000
  36        5S         -0.00001  -0.00002  -0.00001   0.00000   0.65987
  37        5PX         0.00000   0.00000  -0.00003  -0.00002   0.12210
  38        5PY         0.00000  -0.00001  -0.00014  -0.00010   0.30928
  39        5PZ         0.04014  -0.00877   0.20638   0.11004   0.00001
  40        6D 0        0.00000   0.00000  -0.00000   0.00000  -0.00317
  41        6D+1        0.00164  -0.01262   0.00401   0.01337   0.00000
  42        6D-1        0.00156  -0.02342  -0.00627   0.01876   0.00000
  43        6D+2       -0.00000  -0.00000   0.00000   0.00000  -0.00202
  44        6D-2        0.00000   0.00000  -0.00000  -0.00000   0.00336
  45 3   C  1S         -0.00000  -0.00000   0.00000   0.00000  -0.00338
  46        2S         -0.00000  -0.00000   0.00000   0.00000  -0.00559
  47        2PX        -0.00000  -0.00000  -0.00000   0.00000   0.00611
  48        2PY        -0.00000  -0.00000   0.00000   0.00000   0.00011
  49        2PZ         0.01380  -0.10102  -0.05088   0.06868  -0.00000
  50        3S          0.00000   0.00000  -0.00000  -0.00000   0.01583
  51        3PX        -0.00000  -0.00000  -0.00000  -0.00000   0.01142
  52        3PY        -0.00000  -0.00000   0.00000   0.00000   0.00100
  53        3PZ         0.02339  -0.15832  -0.08089   0.10747  -0.00000
  54        4S          0.00000   0.00001   0.00001   0.00000   0.05500
  55        4PX        -0.00000  -0.00000  -0.00000  -0.00000   0.01148
  56        4PY        -0.00000  -0.00000  -0.00000  -0.00000   0.01971
  57        4PZ         0.01742  -0.26738  -0.13808   0.18068  -0.00000
  58        5S          0.00001   0.00003   0.00024   0.00017   0.09496
  59        5PX        -0.00000  -0.00000   0.00001   0.00001  -0.01011
  60        5PY         0.00000  -0.00001  -0.00009  -0.00007   0.32147
  61        5PZ         0.00378  -0.19922  -0.10105   0.17625  -0.00000
  62        6D 0        0.00000   0.00000   0.00000  -0.00000  -0.00348
  63        6D+1        0.00853  -0.00991   0.00777   0.01340   0.00000
  64        6D-1       -0.01209   0.00630  -0.01824  -0.01302  -0.00000
  65        6D+2        0.00000   0.00000   0.00000   0.00000  -0.00201
  66        6D-2        0.00000  -0.00000  -0.00000   0.00000  -0.00302
  67 4   C  1S         -0.00000  -0.00000   0.00000  -0.00000  -0.00556
  68        2S         -0.00000  -0.00000   0.00000  -0.00000  -0.00934
  69        2PX        -0.00000  -0.00000  -0.00000  -0.00000   0.00403
  70        2PY        -0.00000  -0.00000  -0.00000  -0.00000   0.01503
  71        2PZ        -0.06934   0.08675  -0.05424  -0.10247  -0.00000
  72        3S          0.00000   0.00000  -0.00000  -0.00000   0.02754
  73        3PX        -0.00000  -0.00000   0.00000  -0.00000   0.00430
  74        3PY        -0.00000  -0.00000   0.00000  -0.00000   0.02021
  75        3PZ        -0.11212   0.13216  -0.08605  -0.16291  -0.00000
  76        4S          0.00000  -0.00000  -0.00001  -0.00000   0.19758
  77        4PX        -0.00000  -0.00000   0.00000   0.00000  -0.04643
  78        4PY        -0.00000   0.00000   0.00001   0.00000   0.01881
  79        4PZ        -0.12713   0.25183  -0.16304  -0.27382  -0.00000
  80        5S          0.00001  -0.00002  -0.00002  -0.00001   1.84206
  81        5PX        -0.00001   0.00001   0.00005   0.00004  -0.75732
  82        5PY         0.00000   0.00000   0.00001   0.00000   0.52992
  83        5PZ        -0.02768   0.22064  -0.18942  -0.28868  -0.00000
  84        6D 0        0.00000   0.00000  -0.00000   0.00000  -0.00523
  85        6D+1        0.00210  -0.01653  -0.01966   0.00468  -0.00000
  86        6D-1        0.00372   0.00712  -0.00216  -0.00781  -0.00000
  87        6D+2        0.00000   0.00000  -0.00000  -0.00000   0.00043
  88        6D-2       -0.00000  -0.00000   0.00000   0.00000   0.00211
  89 5   C  1S          0.00000   0.00000  -0.00000   0.00000  -0.00774
  90        2S          0.00000   0.00000  -0.00000   0.00000  -0.01305
  91        2PX        -0.00000  -0.00000   0.00000  -0.00000  -0.00368
  92        2PY         0.00000   0.00000  -0.00000  -0.00000   0.01967
  93        2PZ        -0.08677   0.08040  -0.00342   0.11192   0.00000
  94        3S         -0.00000  -0.00000   0.00000  -0.00000   0.03958
  95        3PX        -0.00000  -0.00000   0.00000  -0.00000  -0.00383
  96        3PY         0.00000   0.00000  -0.00000  -0.00000   0.02705
  97        3PZ        -0.14092   0.12342  -0.00444   0.17779   0.00000
  98        4S          0.00000  -0.00000  -0.00001  -0.00000   0.21030
  99        4PX        -0.00000  -0.00000  -0.00000  -0.00000   0.04925
 100        4PY        -0.00000   0.00000   0.00001   0.00000   0.04990
 101        4PZ        -0.16587   0.25268  -0.01288   0.32354   0.00000
 102        5S         -0.00000   0.00001  -0.00013  -0.00007   1.52478
 103        5PX         0.00000  -0.00002  -0.00009  -0.00007   0.96875
 104        5PY        -0.00000   0.00000   0.00001   0.00000   0.76797
 105        5PZ        -0.04324   0.25330   0.04336   0.38684   0.00000
 106        6D 0       -0.00000  -0.00000   0.00000   0.00000  -0.00607
 107        6D+1       -0.00031   0.00397  -0.03016   0.00486  -0.00000
 108        6D-1        0.00350   0.00703   0.00007   0.01097   0.00000
 109        6D+2       -0.00000  -0.00000   0.00000  -0.00000   0.00205
 110        6D-2       -0.00000  -0.00000   0.00000  -0.00000  -0.00235
 111 6   C  1S          0.00000   0.00000  -0.00000   0.00000  -0.00537
 112        2S          0.00000   0.00000  -0.00000   0.00000  -0.00892
 113        2PX         0.00000  -0.00000   0.00000   0.00000  -0.01055
 114        2PY         0.00000   0.00000  -0.00000   0.00000   0.00193
 115        2PZ         0.00648  -0.04707   0.10559  -0.07076   0.00000
 116        3S         -0.00000  -0.00000   0.00000  -0.00000   0.02621
 117        3PX         0.00000  -0.00000   0.00000   0.00000  -0.01721
 118        3PY         0.00000   0.00000   0.00000   0.00000   0.00402
 119        3PZ         0.01295  -0.07392   0.16785  -0.11124   0.00000
 120        4S         -0.00000  -0.00000   0.00001   0.00000   0.10020
 121        4PX        -0.00000  -0.00000   0.00000   0.00000  -0.02291
 122        4PY         0.00000   0.00000  -0.00000  -0.00000   0.02390
 123        4PZ         0.00611  -0.14022   0.28984  -0.20867   0.00000
 124        5S         -0.00003   0.00007   0.00014   0.00010   0.36762
 125        5PX        -0.00000  -0.00001  -0.00002  -0.00002  -0.00862
 126        5PY         0.00001  -0.00003  -0.00009  -0.00007   0.52895
 127        5PZ        -0.00020  -0.10784   0.23575  -0.21924   0.00000
 128        6D 0       -0.00000  -0.00000   0.00000   0.00000  -0.00460
 129        6D+1       -0.01103   0.00997  -0.00050   0.01497   0.00000
 130        6D-1       -0.01773   0.01322   0.01390   0.01738   0.00000
 131        6D+2       -0.00000  -0.00000   0.00000   0.00000  -0.00331
 132        6D-2        0.00000  -0.00000   0.00000  -0.00000   0.00467
 133 7   C  1S          0.00000   0.00000   0.00000   0.00000  -0.00625
 134        2S          0.00000   0.00000   0.00000   0.00000  -0.01040
 135        2PX        -0.00000   0.00000  -0.00000   0.00000  -0.01016
 136        2PY         0.00000   0.00000   0.00000  -0.00000  -0.00176
 137        2PZ         0.10197  -0.04529  -0.09623  -0.04797  -0.00000
 138        3S         -0.00000  -0.00000  -0.00000  -0.00000   0.03065
 139        3PX        -0.00000   0.00000  -0.00000   0.00000  -0.01619
 140        3PY         0.00000   0.00000   0.00000  -0.00000  -0.00456
 141        3PZ         0.16690  -0.07107  -0.15313  -0.07548  -0.00000
 142        4S          0.00000   0.00001  -0.00000   0.00000   0.13523
 143        4PX         0.00000   0.00000  -0.00000   0.00000  -0.00926
 144        4PY         0.00000  -0.00000  -0.00000  -0.00000   0.00943
 145        4PZ         0.19704  -0.12735  -0.25884  -0.13671  -0.00000
 146        5S          0.00000   0.00005   0.00007   0.00006   0.14630
 147        5PX        -0.00000   0.00003   0.00006   0.00005  -0.42852
 148        5PY         0.00001  -0.00006  -0.00013  -0.00010   0.47761
 149        5PZ         0.06360  -0.10525  -0.21898  -0.14514  -0.00001
 150        6D 0       -0.00000  -0.00000   0.00000  -0.00000  -0.00441
 151        6D+1       -0.00222   0.01109  -0.00218   0.01617   0.00000
 152        6D-1        0.00034  -0.01421   0.01731  -0.02141  -0.00000
 153        6D+2        0.00000   0.00000  -0.00000   0.00000  -0.00244
 154        6D-2        0.00000   0.00000  -0.00000   0.00000  -0.00502
 155 8   C  1S         -0.00000   0.00000  -0.00000   0.00000  -0.00732
 156        2S         -0.00000   0.00000  -0.00000   0.00000  -0.01240
 157        2PX         0.00000   0.00000   0.00000   0.00000  -0.00357
 158        2PY         0.00000   0.00000  -0.00000   0.00000  -0.01701
 159        2PZ        -0.00507   0.08562  -0.01135   0.11699   0.00000
 160        3S         -0.00000  -0.00000   0.00000  -0.00000   0.03983
 161        3PX         0.00000  -0.00000  -0.00000  -0.00000  -0.00330
 162        3PY         0.00000   0.00000  -0.00000   0.00000  -0.02476
 163        3PZ        -0.00713   0.13173  -0.01745   0.18601   0.00000
 164        4S         -0.00000  -0.00001   0.00001   0.00000   0.05093
 165        4PX         0.00000   0.00001   0.00000   0.00001  -0.02625
 166        4PY        -0.00000  -0.00000   0.00001   0.00000  -0.08532
 167        4PZ        -0.00512   0.25285  -0.04800   0.34095   0.00000
 168        5S         -0.00001   0.00005   0.00016   0.00015  -1.93927
 169        5PX        -0.00002   0.00012   0.00023   0.00019  -1.24458
 170        5PY         0.00000  -0.00002  -0.00003  -0.00002  -0.50882
 171        5PZ         0.01179   0.18886  -0.06513   0.39585   0.00001
 172        6D 0       -0.00000  -0.00000   0.00000  -0.00000  -0.00624
 173        6D+1       -0.02101   0.00070   0.02728  -0.00381   0.00000
 174        6D-1       -0.00186  -0.00824   0.00038  -0.01019   0.00000
 175        6D+2       -0.00000  -0.00000  -0.00000  -0.00000   0.00194
 176        6D-2        0.00000   0.00000   0.00000   0.00000   0.00167
 177 9   C  1S         -0.00000   0.00000   0.00000   0.00000  -0.01393
 178        2S         -0.00000   0.00000   0.00000   0.00000  -0.02341
 179        2PX         0.00000  -0.00000   0.00000  -0.00000   0.00172
 180        2PY        -0.00000   0.00000   0.00000   0.00000  -0.03056
 181        2PZ         0.02868  -0.01275   0.00524  -0.00179   0.00000
 182        3S          0.00000   0.00000  -0.00000   0.00000   0.06124
 183        3PX         0.00000  -0.00000   0.00000  -0.00000   0.00285
 184        3PY         0.00000   0.00000   0.00000   0.00000  -0.04629
 185        3PZ         0.03828  -0.01961   0.00744  -0.00276   0.00000
 186        4S          0.00000  -0.00002  -0.00007  -0.00002   0.42963
 187        4PX        -0.00000   0.00000  -0.00001  -0.00000   0.01699
 188        4PY        -0.00000   0.00000   0.00001   0.00000  -0.02391
 189        4PZ         0.07547  -0.10319   0.04844  -0.00076   0.00000
 190        5S          0.00001  -0.00007  -0.00025  -0.00022   0.87749
 191        5PX        -0.00002   0.00004   0.00002   0.00002  -0.30920
 192        5PY         0.00000  -0.00001  -0.00003  -0.00004  -0.46270
 193        5PZ         0.12956  -0.41670   0.16660  -0.02121   0.00001
 194        6D 0        0.00000   0.00000   0.00000  -0.00000  -0.00869
 195        6D+1        0.00277  -0.00617  -0.02355   0.01336  -0.00000
 196        6D-1       -0.01939  -0.02866   0.00509  -0.00211  -0.00000
 197        6D+2       -0.00000  -0.00000   0.00000   0.00000   0.00244
 198        6D-2        0.00000   0.00000  -0.00000   0.00000  -0.00045
 199 10  C  1S         -0.00000  -0.00000   0.00000   0.00000  -0.01054
 200        2S         -0.00000  -0.00000   0.00000   0.00000  -0.01795
 201        2PX        -0.00000  -0.00000   0.00000  -0.00000   0.00128
 202        2PY        -0.00000   0.00000   0.00000  -0.00000   0.02354
 203        2PZ         0.17111   0.01885   0.02501   0.01235   0.00000
 204        3S          0.00000  -0.00000  -0.00000  -0.00000   0.05978
 205        3PX        -0.00000  -0.00000   0.00000  -0.00000   0.00204
 206        3PY         0.00000  -0.00000  -0.00000  -0.00000   0.03299
 207        3PZ         0.27835   0.02789   0.04121   0.01948   0.00000
 208        4S         -0.00000   0.00001   0.00003   0.00001   0.06889
 209        4PX        -0.00000  -0.00000   0.00000   0.00000  -0.00676
 210        4PY         0.00000  -0.00000  -0.00001  -0.00000   0.20531
 211        4PZ         0.34547   0.07994   0.06805   0.04294   0.00000
 212        5S          0.00001  -0.00005  -0.00020  -0.00016   1.55648
 213        5PX         0.00000   0.00003  -0.00005  -0.00002  -0.32586
 214        5PY         0.00000  -0.00000  -0.00002  -0.00000   1.93858
 215        5PZ         0.09755   0.33081   0.00130   0.08993   0.00000
 216        6D 0        0.00000  -0.00000  -0.00000  -0.00000  -0.00742
 217        6D+1       -0.00099   0.00640   0.02980   0.00688   0.00000
 218        6D-1        0.00081   0.01303  -0.00091   0.00284   0.00000
 219        6D+2       -0.00000   0.00000   0.00000  -0.00000   0.00103
 220        6D-2        0.00000   0.00000  -0.00000  -0.00000   0.00026
 221 11  C  1S         -0.00000  -0.00000   0.00000  -0.00000  -0.00550
 222        2S         -0.00000  -0.00000   0.00000  -0.00000  -0.00948
 223        2PX        -0.00000  -0.00000   0.00000  -0.00000   0.00294
 224        2PY        -0.00000  -0.00000   0.00000  -0.00000   0.00917
 225        2PZ        -0.07803  -0.10919  -0.07211   0.06917  -0.00000
 226        3S          0.00000   0.00000  -0.00000   0.00000   0.03817
 227        3PX        -0.00000  -0.00000   0.00000  -0.00000   0.00446
 228        3PY        -0.00000  -0.00000   0.00000  -0.00000   0.01273
 229        3PZ        -0.12574  -0.16930  -0.11291   0.11280  -0.00000
 230        4S          0.00001   0.00001   0.00001   0.00000  -0.02939
 231        4PX        -0.00000  -0.00001  -0.00002  -0.00001   0.12728
 232        4PY        -0.00001  -0.00001  -0.00001  -0.00000   0.01416
 233        4PZ        -0.16211  -0.28927  -0.23180   0.18078  -0.00000
 234        5S         -0.00001   0.00010   0.00034   0.00024  -3.41400
 235        5PX         0.00000  -0.00005  -0.00006  -0.00007   0.64983
 236        5PY        -0.00002   0.00002   0.00042   0.00031  -2.12043
 237        5PZ        -0.09718  -0.04826  -0.38552   0.24470  -0.00001
 238        6D 0        0.00000   0.00000   0.00000  -0.00000  -0.00744
 239        6D+1       -0.00411   0.01802  -0.00461  -0.01272  -0.00000
 240        6D-1       -0.00531  -0.00952   0.01934   0.01313   0.00000
 241        6D+2        0.00000   0.00000   0.00000  -0.00000  -0.00545
 242        6D-2       -0.00000  -0.00000   0.00000   0.00000   0.00149
 243 12  C  1S          0.00000   0.00000   0.00000   0.00000  -0.00617
 244        2S          0.00000   0.00000   0.00000   0.00000  -0.01050
 245        2PX         0.00000   0.00000   0.00000   0.00000   0.00031
 246        2PY         0.00000   0.00000   0.00000   0.00000  -0.01037
 247        2PZ        -0.02168   0.00871   0.09789   0.03873   0.00000
 248        3S         -0.00000  -0.00000  -0.00000  -0.00000   0.03637
 249        3PX         0.00000   0.00000  -0.00000  -0.00000   0.00317
 250        3PY         0.00000   0.00000   0.00000   0.00000  -0.01431
 251        3PZ        -0.03427   0.01944   0.15335   0.06686   0.00000
 252        4S          0.00000  -0.00000   0.00000  -0.00000   0.11764
 253        4PX         0.00000   0.00001   0.00002   0.00001  -0.15178
 254        4PY         0.00000   0.00000  -0.00000   0.00000  -0.07894
 255        4PZ        -0.04341  -0.00334   0.30543   0.09141   0.00000
 256        5S          0.00002  -0.00011  -0.00055  -0.00041   5.19357
 257        5PX        -0.00000   0.00004  -0.00009  -0.00005  -0.71132
 258        5PY        -0.00002   0.00003   0.00027   0.00019  -3.31844
 259        5PZ        -0.00677  -0.19467   0.43926   0.05986   0.00001
 260        6D 0       -0.00000  -0.00000   0.00000   0.00000  -0.00785
 261        6D+1       -0.02487   0.01271  -0.01264  -0.01474  -0.00000
 262        6D-1        0.01497   0.02791   0.00948  -0.01789   0.00000
 263        6D+2        0.00000  -0.00000  -0.00000   0.00000  -0.00421
 264        6D-2        0.00000   0.00000   0.00000   0.00000  -0.00291
 265 13  C  1S          0.00000   0.00000  -0.00000   0.00000  -0.00657
 266        2S          0.00000   0.00000  -0.00000   0.00000  -0.01129
 267        2PX        -0.00000  -0.00000   0.00000  -0.00000  -0.00168
 268        2PY         0.00000   0.00000  -0.00000   0.00000   0.00989
 269        2PZ        -0.09698  -0.04909   0.10835  -0.07909   0.00000
 270        3S         -0.00000  -0.00000  -0.00000  -0.00000   0.04446
 271        3PX        -0.00000  -0.00000   0.00000  -0.00000  -0.00191
 272        3PY         0.00000   0.00000  -0.00000   0.00000   0.01499
 273        3PZ        -0.15625  -0.07589   0.16984  -0.12878   0.00000
 274        4S         -0.00001  -0.00001   0.00001  -0.00000   0.00944
 275        4PX        -0.00001  -0.00000   0.00002   0.00001  -0.10581
 276        4PY         0.00001  -0.00000  -0.00001   0.00000  -0.00737
 277        4PZ        -0.20461  -0.12685   0.31789  -0.22735   0.00000
 278        5S         -0.00002   0.00005   0.00036   0.00025  -4.14871
 279        5PX        -0.00000  -0.00001   0.00015   0.00010  -1.22485
[...]
 188        4PY         0.27359
 189        4PZ         0.39770
 190        5S          0.34543
 191        5PX        -0.26236
 192        5PY         0.03676
 193        5PZ        -0.02788
 194        6D 0        0.00830
 195        6D+1        0.00845
 196        6D-1        0.01214
 197        6D+2        0.01200
 198        6D-2        0.01360
 199 10  C  1S          1.10550
 200        2S          0.88522
 201        2PX         0.24236
 202        2PY         0.24075
 203        2PZ         0.11467
 204        3S          0.80006
 205        3PX         0.55177
 206        3PY         0.54967
 207        3PZ         0.31057
 208        4S          0.41266
 209        4PX         0.15747
 210        4PY         0.34506
 211        4PZ         0.25625
 212        5S          0.03197
 213        5PX        -0.37687
 214        5PY         0.19831
 215        5PZ         0.04222
 216        6D 0        0.00298
 217        6D+1        0.01275
 218        6D-1        0.00359
 219        6D+2        0.02116
 220        6D-2        0.01512
 221 11  C  1S          1.10531
 222        2S          0.88559
 223        2PX         0.22689
 224        2PY         0.23612
 225        2PZ         0.15465
 226        3S          0.76533
 227        3PX         0.52900
 228        3PY         0.53102
 229        3PZ         0.40550
 230        4S          0.41631
 231        4PX         0.27392
 232        4PY         0.21368
 233        4PZ         0.33386
 234        5S          0.11589
 235        5PX        -0.29605
 236        5PY         0.62373
 237        5PZ         0.01661
 238        6D 0        0.00396
 239        6D+1        0.00898
 240        6D-1        0.01124
 241        6D+2        0.02034
 242        6D-2        0.02090
 243 12  C  1S          1.10520
 244        2S          0.88561
 245        2PX         0.22878
 246        2PY         0.23660
 247        2PZ         0.17508
 248        3S          0.75245
 249        3PX         0.52372
 250        3PY         0.53407
 251        3PZ         0.46184
 252        4S          0.36386
 253        4PX         0.14263
 254        4PY         0.19159
 255        4PZ         0.39489
 256        5S         -0.49802
 257        5PX        -0.47231
 258        5PY         0.29109
 259        5PZ        -0.06196
 260        6D 0        0.00445
 261        6D+1        0.00747
 262        6D-1        0.00973
 263        6D+2        0.02287
 264        6D-2        0.02284
 265 13  C  1S          1.10533
 266        2S          0.88549
 267        2PX         0.23753
 268        2PY         0.23174
 269        2PZ         0.15008
 270        3S          0.77054
 271        3PX         0.53692
 272        3PY         0.53136
 273        3PZ         0.39632
 274        4S          0.39688
 275        4PX         0.26302
 276        4PY         0.22527
 277        4PZ         0.31544
 278        5S          0.15645
 279        5PX        -0.26270
 280        5PY         0.61806
 281        5PZ         0.01137
 282        6D 0        0.00385
 283        6D+1        0.01067
 284        6D-1        0.00998
 285        6D+2        0.02262
 286        6D-2        0.02051
 287 14  C  1S          1.10521
 288        2S          0.88565
 289        2PX         0.23314
 290        2PY         0.22980
 291        2PZ         0.17368
 292        3S          0.75268
 293        3PX         0.52879
 294        3PY         0.52927
 295        3PZ         0.45815
 296        4S          0.38159
 297        4PX         0.15823
 298        4PY         0.19607
 299        4PZ         0.39655
 300        5S         -0.58338
 301        5PX        -0.46498
 302        5PY         0.30718
 303        5PZ        -0.05952
 304        6D 0        0.00447
 305        6D+1        0.00729
 306        6D-1        0.00822
 307        6D+2        0.02275
 308        6D-2        0.02212
 309 15  H  1S          0.27367
 310        2S          0.46414
 311        3S          0.03545
 312        4S         -0.03244
 313        5PX         0.00331
 314        5PY         0.01463
 315        5PZ         0.00474
 316 16  H  1S          0.27379
 317        2S          0.46337
 318        3S          0.01572
 319        4S         -0.02710
 320        5PX         0.01260
 321        5PY         0.00641
 322        5PZ         0.00400
 323 17  H  1S          0.27311
 324        2S          0.46326
 325        3S          0.02181
 326        4S         -0.02733
 327        5PX         0.01158
 328        5PY         0.00675
 329        5PZ         0.00453
 330 18  H  1S          0.27331
 331        2S          0.46516
 332        3S          0.03833
 333        4S         -0.01962
 334        5PX         0.00343
 335        5PY         0.01492
 336        5PZ         0.00458
 337 19  H  1S          0.27260
 338        2S          0.45404
 339        3S          0.01748
 340        4S          0.04261
 341        5PX         0.00339
 342        5PY         0.01637
 343        5PZ         0.00290
 344 20  H  1S          0.27368
 345        2S          0.46479
 346        3S          0.03190
 347        4S         -0.01988
 348        5PX         0.00347
 349        5PY         0.01530
 350        5PZ         0.00424
 351 21  H  1S          0.27330
 352        2S          0.46268
 353        3S          0.01769
 354        4S         -0.02967
 355        5PX         0.01241
 356        5PY         0.00624
 357        5PZ         0.00444
 358 22  H  1S          0.27312
 359        2S          0.46119
 360        3S          0.00932
 361        4S         -0.02948
 362        5PX         0.01251
 363        5PY         0.00652
 364        5PZ         0.00361
 365 23  H  1S          0.27314
 366        2S          0.46339
 367        3S          0.03052
 368        4S         -0.03074
 369        5PX         0.00339
 370        5PY         0.01506
 371        5PZ         0.00455
 372 24  H  1S          0.26327
 373        2S          0.42803
 374        3S          0.01142
 375        4S          0.02742
 376        5PX         0.00343
 377        5PY         0.00769
 378        5PZ         0.00922
 379 25  H  1S          0.26326
 380        2S          0.42803
 381        3S          0.01142
 382        4S          0.02742
 383        5PX         0.00343
 384        5PY         0.00769
 385        5PZ         0.00921
          Condensed to atoms (all electrons):
               1          2          3          4          5          6
     1  C    8.925042  -0.014464  -0.363232   2.193179  -0.085703  -0.104585
     2  C   -0.014464   7.189032   0.168238  -1.159992   0.024596  -0.013336
     3  C   -0.363232   0.168238   6.590174   0.860630  -0.145461   0.016313
     4  C    2.193179  -1.159992   0.860630  10.307505  -0.389219  -0.108588
     5  C   -0.085703   0.024596  -0.145461  -0.389219  11.849487   0.731029
     6  C   -0.104585  -0.013336   0.016313  -0.108588   0.731029   6.622094
     7  C   -0.000681  -0.001240  -0.013273  -0.036495  -1.070936   0.445935
     8  C    0.399645  -0.028451  -0.083031  -0.017096   1.790386  -0.615100
     9  C   -1.115167  -0.766304   0.307495  -0.413602   0.134647   0.287640
    10  C   -1.368447   0.368070  -0.464839  -2.330562  -2.753385  -0.252447
    11  C    0.340626  -1.069787   1.202607  -0.157986  -1.601813  -0.256320
    12  C   -2.594213   1.820787  -1.550896  -1.569114  -0.566462  -0.081152
    13  C    0.276636  -0.339664  -0.064214  -1.332689  -0.531286   0.806195
    14  C   -0.985803  -0.046555  -0.329596  -0.175298  -1.766360  -1.361552
    15  H    0.370198  -0.110607   0.003792   0.028466   0.004205   0.000997
    16  H   -0.017353   0.375419  -0.014236   0.009927  -0.001302  -0.000303
    17  H   -0.035036  -0.005138   0.366424  -0.065103   0.000371   0.000391
    18  H    0.052814   0.003086  -0.083683   0.445768   0.005895  -0.005230
    19  H   -0.047160  -0.008943   0.053069  -0.051941  -0.088975   0.049036
    20  H    0.006954   0.002167  -0.005136   0.005399   0.474226  -0.084156
    21  H   -0.001359  -0.000368   0.000400   0.000156  -0.068018   0.381156
    22  H    0.001141   0.000398  -0.000340  -0.001606   0.016855  -0.022036
    23  H    0.004538  -0.002887   0.001172   0.006219   0.026511  -0.003484
    24  H    0.027602   0.012510  -0.001720  -0.012278  -0.011432  -0.001453
    25  H    0.027594   0.012507  -0.001722  -0.012274  -0.011435  -0.001454
               7          8          9         10         11         12
     1  C   -0.000681   0.399645  -1.115167  -1.368447   0.340626  -2.594213
     2  C   -0.001240  -0.028451  -0.766304   0.368070  -1.069787   1.820787
     3  C   -0.013273  -0.083031   0.307495  -0.464839   1.202607  -1.550896
     4  C   -0.036495  -0.017096  -0.413602  -2.330562  -0.157986  -1.569114
     5  C   -1.070936   1.790386   0.134647  -2.753385  -1.601813  -0.566462
     6  C    0.445935  -0.615100   0.287640  -0.252447  -0.256320  -0.081152
     7  C    7.209715   0.467430  -0.910125   0.167916  -0.199569  -0.286071
     8  C    0.467430   8.309237  -1.062302  -1.185141   0.239966  -1.189128
     9  C   -0.910125  -1.062302   9.598511   0.221418   1.439862  -1.583993
    10  C    0.167916  -1.185141   0.221418   9.037139  -0.589138   2.475724
    11  C   -0.199569   0.239966   1.439862  -0.589138  14.022113  -3.298545
    12  C   -0.286071  -1.189128  -1.583993   2.475724  -3.298545  15.710377
    13  C   -0.714690   0.366245   1.481747  -0.211314   1.056556  -4.841560
    14  C    1.061656  -1.884255  -2.182936   2.353461  -4.550346   3.082169
    15  H   -0.002161   0.006678   0.092661  -0.011326  -0.028769  -0.040376
    16  H    0.000308   0.000387   0.002981  -0.007892   0.022790  -0.028659
    17  H   -0.000399  -0.001255  -0.006418   0.020612  -0.030835   0.101572
    18  H    0.002031   0.006620  -0.026202   0.018056  -0.003152  -0.065391
    19  H   -0.007151  -0.042322   0.072215   0.419136   0.083672  -0.032337
    20  H    0.003076   0.047486  -0.020981   0.004972  -0.012227  -0.026544
    21  H   -0.024452  -0.018428  -0.004344   0.018642  -0.006223   0.005253
    22  H    0.380733  -0.019297   0.002681  -0.009799   0.003736  -0.010626
    23  H   -0.106505   0.367607   0.089157  -0.007919  -0.003964   0.008092
    24  H    0.015945   0.038095   0.355384   0.005155  -0.000230  -0.058223
    25  H    0.015942   0.038080   0.355398   0.005157  -0.000237  -0.058214
              13         14         15         16         17         18
     1  C    0.276636  -0.985803   0.370198  -0.017353  -0.035036   0.052814
     2  C   -0.339664  -0.046555  -0.110607   0.375419  -0.005138   0.003086
     3  C   -0.064214  -0.329596   0.003792  -0.014236   0.366424  -0.083683
     4  C   -1.332689  -0.175298   0.028466   0.009927  -0.065103   0.445768
     5  C   -0.531286  -1.766360   0.004205  -0.001302   0.000371   0.005895
     6  C    0.806195  -1.361552   0.000997  -0.000303   0.000391  -0.005230
     7  C   -0.714690   1.061656  -0.002161   0.000308  -0.000399   0.002031
     8  C    0.366245  -1.884255   0.006678   0.000387  -0.001255   0.006620
     9  C    1.481747  -2.182936   0.092661   0.002981  -0.006418  -0.026202
    10  C   -0.211314   2.353461  -0.011326  -0.007892   0.020612   0.018056
    11  C    1.056556  -4.550346  -0.028769   0.022790  -0.030835  -0.003152
    12  C   -4.841560   3.082169  -0.040376  -0.028659   0.101572  -0.065391
    13  C   14.647170  -4.045363   0.009391   0.001973  -0.006151  -0.011874
    14  C   -4.045363  16.354088   0.003553  -0.007081   0.004796  -0.003501
    15  H    0.009391   0.003553   0.445656  -0.009211   0.001335   0.000006
    16  H    0.001973  -0.007081  -0.009211   0.424542  -0.006029   0.001857
    17  H   -0.006151   0.004796   0.001335  -0.006029   0.423791  -0.009968
    18  H   -0.011874  -0.003501   0.000006   0.001857  -0.009968   0.458369
    19  H    0.075428  -0.098438   0.000240  -0.000513   0.001162  -0.006831
    20  H   -0.010447  -0.047152  -0.000104   0.000012  -0.000122   0.001253
    21  H   -0.020070   0.079231   0.000011  -0.000006   0.000010  -0.000164
    22  H    0.026734  -0.032457  -0.000127   0.000007  -0.000007   0.000020
    23  H   -0.033528  -0.010408   0.000548  -0.000124   0.000017  -0.000121
    24  H    0.025751  -0.059464  -0.000776   0.000644  -0.000147   0.000227
    25  H    0.025753  -0.059444  -0.000776   0.000644  -0.000147   0.000227
              19         20         21         22         23         24
     1  C   -0.047160   0.006954  -0.001359   0.001141   0.004538   0.027602
     2  C   -0.008943   0.002167  -0.000368   0.000398  -0.002887   0.012510
     3  C    0.053069  -0.005136   0.000400  -0.000340   0.001172  -0.001720
     4  C   -0.051941   0.005399   0.000156  -0.001606   0.006219  -0.012278
     5  C   -0.088975   0.474226  -0.068018   0.016855   0.026511  -0.011432
     6  C    0.049036  -0.084156   0.381156  -0.022036  -0.003484  -0.001453
     7  C   -0.007151   0.003076  -0.024452   0.380733  -0.106505   0.015945
     8  C   -0.042322   0.047486  -0.018428  -0.019297   0.367607   0.038095
     9  C    0.072215  -0.020981  -0.004344   0.002681   0.089157   0.355384
    10  C    0.419136   0.004972   0.018642  -0.009799  -0.007919   0.005155
    11  C    0.083672  -0.012227  -0.006223   0.003736  -0.003964  -0.000230
    12  C   -0.032337  -0.026544   0.005253  -0.010626   0.008092  -0.058223
    13  C    0.075428  -0.010447  -0.020070   0.026734  -0.033528   0.025751
    14  C   -0.098438  -0.047152   0.079231  -0.032457  -0.010408  -0.059464
    15  H    0.000240  -0.000104   0.000011  -0.000127   0.000548  -0.000776
    16  H   -0.000513   0.000012  -0.000006   0.000007  -0.000124   0.000644
    17  H    0.001162  -0.000122   0.000010  -0.000007   0.000017  -0.000147
    18  H   -0.006831   0.001253  -0.000164   0.000020  -0.000121   0.000227
    19  H    0.443335  -0.005934   0.001682  -0.000555   0.000396   0.000562
    20  H   -0.005934   0.448500  -0.010284   0.001991   0.000273   0.000141
    21  H    0.001682  -0.010284   0.419706  -0.006736   0.001564  -0.000133
    22  H   -0.000555   0.001991  -0.006736   0.413476  -0.008619   0.000618
    23  H    0.000396   0.000273   0.001564  -0.008619   0.432793  -0.001005
    24  H    0.000562   0.000141  -0.000133   0.000618  -0.001005   0.492717
    25  H    0.000562   0.000140  -0.000133   0.000618  -0.001004  -0.078015
              25
     1  C    0.027594
     2  C    0.012507
     3  C   -0.001722
     4  C   -0.012274
     5  C   -0.011435
     6  C   -0.001454
     7  C    0.015942
     8  C    0.038080
     9  C    0.355398
    10  C    0.005157
    11  C   -0.000237
    12  C   -0.058214
    13  C    0.025753
    14  C   -0.059444
    15  H   -0.000776
    16  H    0.000644
    17  H   -0.000147
    18  H    0.000227
    19  H    0.000562
    20  H    0.000140
    21  H   -0.000133
    22  H    0.000618
    23  H   -0.001004
    24  H   -0.078015
    25  H    0.492709
 Mulliken charges:
               1
     1  C    0.107232
     2  C   -0.409073
     3  C   -0.448937
     4  C   -0.023407
     5  C    0.033579
     6  C   -0.429593
     7  C   -0.396939
     8  C    0.067943
     9  C   -0.349425
    10  C    0.076752
    11  C   -0.602788
    12  C    0.677531
    13  C   -0.636730
    14  C    0.707052
    15  H    0.236496
    16  H    0.251217
    17  H    0.246272
    18  H    0.219888
    19  H    0.190603
    20  H    0.226496
    21  H    0.252907
    22  H    0.263196
    23  H    0.240681
    24  H    0.249525
    25  H    0.249521
 Sum of Mulliken charges =   1.00000
 Mulliken charges with hydrogens summed into heavy atoms:
               1
     1  C    0.343728
     2  C   -0.157857
     3  C   -0.202665
     4  C    0.196481
     5  C    0.260075
     6  C   -0.176686
     7  C   -0.133742
     8  C    0.308624
     9  C    0.149621
    10  C    0.267355
    11  C   -0.602788
    12  C    0.677531
    13  C   -0.636730
    14  C    0.707052
 Electronic spatial extent (au):  <R**2>=           2869.1292
 Charge=              1.0000 electrons
 Dipole moment (field-independent basis, Debye):
    X=             -1.2595    Y=              0.1624    Z=              0.0000  Tot=              1.2699
 Quadrupole moment (field-independent basis, Debye-Ang):
   XX=            -30.7135   YY=            -56.2056   ZZ=            -84.2604
   XY=             -0.1013   XZ=             -0.0001   YZ=             -0.0000
 Traceless Quadrupole moment (field-independent basis, Debye-Ang):
   XX=             26.3463   YY=              0.8542   ZZ=            -27.2005
   XY=             -0.1013   XZ=             -0.0001   YZ=             -0.0000
 Octapole moment (field-independent basis, Debye-Ang**2):
  XXX=            -13.9975  YYY=              5.3280  ZZZ=              0.0000  XYY=             -2.9529
  XXY=             -5.4206  XXZ=             -0.0000  XZZ=             -1.8336  YZZ=             -3.1598
  YYZ=              0.0000  XYZ=              0.0003
 Hexadecapole moment (field-independent basis, Debye-Ang**3):
 XXXX=          -2126.1027 YYYY=           -612.0273 ZZZZ=            -99.6817 XXXY=              2.8944
 XXXZ=              0.0006 YYYX=             -1.1498 YYYZ=             -0.0001 ZZZX=              0.0001
 ZZZY=             -0.0000 XXYY=           -509.1797 XXZZ=           -594.3274 YYZZ=           -146.5232
 XXYZ=              0.0001 YYXZ=             -0.0006 ZZXY=             -0.5879
 N-N= 7.793466543270D+02 E-N=-2.794943101096D+03  KE= 5.373758456601D+02
 Orbital energies and kinetic energies (alpha):
                                 1                 2
  43         O                -0.542107          1.568755
  44         O                -0.523324          1.038775
  45         O                -0.474129          1.138089
  46         O                -0.460675          1.148653
  47         O                -0.435862          1.153633
  48         V                -0.261396          1.267865
  49         V                -0.147382          1.110093
  50         V                -0.140785          1.307444
  51         V                -0.128151          1.277649
  52         V                -0.111833          0.204402
 Total kinetic energy from orbitals= 5.373758456601D+02
 Unable to Open any file for archive entry.
 1\1\GINC-GADI-CPU-CLX-1686\SP\RM062X TD-FC\6-311++G(d,p)\C14H11(1+)\TS
 1578\14-Jul-2022\0\\#n M062X/6-311++G(d,p) TD SP pop=reg formcheck\\SP
 _14\\1,1\C,0,2.5244850759,1.3730872384,0.\C,0,3.7376785064,0.693585917
 1,0.\C,0,3.7074363972,-0.6834128314,0.\C,0,2.4380318712,-1.3908132253,
 0.\C,0,-2.4997881288,-1.4146540131,0.\C,0,-3.6778508412,-0.7312380263,
 0.\C,0,-3.682528732,0.6714685597,0.\C,0,-2.4732130201,1.3725127616,0.\
 C,0,0.0119203939,1.4676853344,0.\C,0,-0.0449528108,-1.4246736192,0.\C,
 0,1.2496836028,0.6693775995,0.\C,0,1.2292140829,-0.7204439967,0.\C,0,-
 1.2797000164,0.7048515429,0.\C,0,-1.2517622979,-0.7266196225,0.\H,0,2.
 5030626754,2.458848096,0.\H,0,4.6737095527,1.2332705827,0.\H,0,4.62287
 60033,-1.2638612351,0.\H,0,2.4583663644,-2.4764585597,0.\H,0,-0.038346
 3275,-2.5078572384,0.\H,0,-2.4888136356,-2.4985759171,0.\H,0,-4.617131
 2351,-1.2696060033,0.\H,0,-4.6210013049,1.2128766557,0.\H,0,-2.4869773
 246,2.4575555232,0.\H,0,0.066208453,2.1565363808,-0.8642008576\H,0,0.0
 663520722,2.1565363808,0.8642008576\\Version=ES64L-G16RevC.01\State=1-
 A\HF=-539.7503127\RMSD=3.686e-09\PG=C01 [X(C14H11)]\\@
 The archive entry for this job was punched.


 ONE OF THE BENEFITS OF A COLLEGE EDUCATION
 IS TO SHOW THE BOY ITS LITTLE AVAIL 
                                    EMERSON IN 'CULTURE'
 FChkPn:  Coordinates translated and rotated.
 FChkPn:  Coordinates match /B/ after translation and rotation.
 Job cpu time:       0 days  1 hours 15 minutes 11.4 seconds.
 Elapsed time:       0 days  0 hours  9 minutes 57.8 seconds.
 File lengths (MBytes):  RWF=    532 Int=      0 D2E=      0 Chk=     24 Scr=      1
 Normal termination of Gaussian 16 at Thu Jul 14 14:56:35 2022.
