 Entering Gaussian System, Link 0=g16
 Initial command:
 /apps/gaussian/g16c01/g16/l1.exe "/jobfs/51125639.gadi-pbs/Gau-127136.inp" -scrdir="/jobfs/51125639.gadi-pbs/"
 Entering Link 1 = /apps/gaussian/g16c01/g16/l1.exe PID=    127137.
  
 Copyright (c) 1988-2019, Gaussian, Inc.  All Rights Reserved.
  
 This is part of the Gaussian(R) 16 program.  It is based on
 the Gaussian(R) 09 system (copyright 2009, Gaussian, Inc.),
 the Gaussian(R) 03 system (copyright 2003, Gaussian, Inc.),
 the Gaussian(R) 98 system (copyright 1998, Gaussian, Inc.),
 the Gaussian(R) 94 system (copyright 1995, Gaussian, Inc.),
 the Gaussian 92(TM) system (copyright 1992, Gaussian, Inc.),
 the Gaussian 90(TM) system (copyright 1990, Gaussian, Inc.),
 the Gaussian 88(TM) system (copyright 1988, Gaussian, Inc.),
 the Gaussian 86(TM) system (copyright 1986, Carnegie Mellon
 University), and the Gaussian 82(TM) system (copyright 1983,
 Carnegie Mellon University). Gaussian is a federally registered
 trademark of Gaussian, Inc.
  
 This software contains proprietary and confidential information,
 including trade secrets, belonging to Gaussian, Inc.
  
 This software is provided under written license and may be
 used, copied, transmitted, or stored only in accord with that
 written license.
  
 The following legend is applicable only to US Government
 contracts under FAR:
  
                    RESTRICTED RIGHTS LEGEND
  
 Use, reproduction and disclosure by the US Government is
 subject to restrictions as set forth in subparagraphs (a)
 and (c) of the Commercial Computer Software - Restricted
 Rights clause in FAR 52.227-19.
  
 Gaussian, Inc.
 340 Quinnipiac St., Bldg. 40, Wallingford CT 06492
  
  
 ---------------------------------------------------------------
 Warning -- This program may not be used in any manner that
 competes with the business of Gaussian, Inc. or will provide
 assistance to any competitor of Gaussian, Inc.  The licensee
 of this program is prohibited from giving any competitor of
 Gaussian, Inc. access to this program.  By using this program,
 the user acknowledges that Gaussian, Inc. is engaged in the
 business of creating and licensing software in the field of
 computational chemistry and represents and warrants to the
 licensee that it is not a competitor of Gaussian, Inc. and that
 it will not use this program in any manner prohibited above.
 ---------------------------------------------------------------
  

 Cite this work as:
 Gaussian 16, Revision C.01,
 M. J. Frisch, G. W. Trucks, H. B. Schlegel, G. E. Scuseria, 
 M. A. Robb, J. R. Cheeseman, G. Scalmani, V. Barone, 
 G. A. Petersson, H. Nakatsuji, X. Li, M. Caricato, A. V. Marenich, 
 J. Bloino, B. G. Janesko, R. Gomperts, B. Mennucci, H. P. Hratchian, 
 J. V. Ortiz, A. F. Izmaylov, J. L. Sonnenberg, D. Williams-Young, 
 F. Ding, F. Lipparini, F. Egidi, J. Goings, B. Peng, A. Petrone, 
 T. Henderson, D. Ranasinghe, V. G. Zakrzewski, J. Gao, N. Rega, 
 G. Zheng, W. Liang, M. Hada, M. Ehara, K. Toyota, R. Fukuda, 
 J. Hasegawa, M. Ishida, T. Nakajima, Y. Honda, O. Kitao, H. Nakai, 
 T. Vreven, K. Throssell, J. A. Montgomery, Jr., J. E. Peralta, 
 F. Ogliaro, M. J. Bearpark, J. J. Heyd, E. N. Brothers, K. N. Kudin, 
 V. N. Staroverov, T. A. Keith, R. Kobayashi, J. Normand, 
 K. Raghavachari, A. P. Rendell, J. C. Burant, S. S. Iyengar, 
 J. Tomasi, M. Cossi, J. M. Millam, M. Klene, C. Adamo, R. Cammi, 
 J. W. Ochterski, R. L. Martin, K. Morokuma, O. Farkas, 
 J. B. Foresman, and D. J. Fox, Gaussian, Inc., Wallingford CT, 2019.
 
 ******************************************
 Gaussian 16:  ES64L-G16RevC.01  3-Jul-2019
                14-Jul-2022 
 ******************************************
 %NProcShared=8
 Will use up to    8 processors via shared memory.
 %mem = 32GB
 %Chk=check_sp_6
 ----------------------------------------------
 #n M062X/6-311++G(d,p) TD SP pop=reg formcheck
 ----------------------------------------------
 1/38=1,172=1/1;
 2/12=2,17=6,18=5,40=1/2;
 3/5=4,6=6,7=1111,11=9,25=1,30=1,74=-55/1,2,3,8;
 4//1;
 5/5=2,38=5/2;
 8/6=1,10=2/1;
 9/42=1,70=2/14;
 6//1;
 99/5=1,9=1/99;
 ----
 SP_6
 ----
 Symbolic Z-matrix:
 Charge =  1 Multiplicity = 1
 C                     2.50963   1.37292   0. 
 C                     3.72184   0.6871    0. 
 C                     3.6989   -0.69695   0. 
 C                     2.45568  -1.39754   0. 
 C                    -2.48214  -1.40776   0. 
 C                    -3.68622  -0.71745   0. 
 C                    -3.6982    0.67762   0. 
 C                    -2.48766   1.37268   0. 
 C                     0.00511   1.46711   0. 
 C                    -0.01927  -1.42459   0. 
 C                     1.25822   0.67964   0. 
 C                     1.2357   -0.72217   0. 
 C                    -1.27108   0.69484   0. 
 C                    -1.24536  -0.72481   0. 
 H                     2.49847   2.45844   0. 
 H                     4.65853   1.22736   0. 
 H                     4.62115  -1.26542   0. 
 H                     2.46707  -2.48261   0. 
 H                    -0.01643  -2.50769   0. 
 H                    -2.48011  -2.49209   0. 
 H                    -4.61869  -1.26788   0. 
 H                    -4.63594   1.21862   0. 
 H                    -2.49157   2.45788   0. 
 H                     0.02838   2.15662  -0.86395 
 H                     0.02844   2.15662   0.86395 
 
                          Input orientation:                          
 ---------------------------------------------------------------------
 Center     Atomic      Atomic             Coordinates (Angstroms)
 Number     Number       Type             X           Y           Z
 ---------------------------------------------------------------------
      1          6           0        2.509631    1.372923    0.000000
      2          6           0        3.721839    0.687103    0.000000
      3          6           0        3.698901   -0.696954    0.000000
      4          6           0        2.455677   -1.397543    0.000000
      5          6           0       -2.482143   -1.407760    0.000000
      6          6           0       -3.686222   -0.717451    0.000000
      7          6           0       -3.698204    0.677624    0.000000
      8          6           0       -2.487657    1.372677    0.000000
      9          6           0        0.005109    1.467111    0.000000
     10          6           0       -0.019265   -1.424592    0.000000
     11          6           0        1.258219    0.679636    0.000000
     12          6           0        1.235697   -0.722167    0.000000
     13          6           0       -1.271083    0.694839    0.000000
     14          6           0       -1.245361   -0.724814    0.000000
     15          1           0        2.498467    2.458438    0.000000
     16          1           0        4.658527    1.227362    0.000000
     17          1           0        4.621153   -1.265421    0.000000
     18          1           0        2.467066   -2.482614    0.000000
     19          1           0       -0.016434   -2.507693    0.000000
     20          1           0       -2.480114   -2.492093    0.000000
     21          1           0       -4.618691   -1.267883    0.000000
     22          1           0       -4.635938    1.218621    0.000000
     23          1           0       -2.491573    2.457884    0.000000
     24          1           0        0.028375    2.156618   -0.863955
     25          1           0        0.028437    2.156618    0.863955
 ---------------------------------------------------------------------
                    Distance matrix (angstroms):
                    1          2          3          4          5
     1  C    0.000000
     2  C    1.392767   0.000000
     3  C    2.387207   1.384247   0.000000
     4  C    2.770991   2.439040   1.427036   0.000000
     5  C    5.714019   6.548118   6.221781   4.937831   0.000000
     6  C    6.538979   7.540036   7.385152   6.179437   1.387924
     7  C    6.246651   7.420049   7.523738   6.494348   2.414048
     8  C    4.997288   6.247228   6.523563   5.666627   2.780443
     9  C    2.506292   3.797697   4.281037   3.769817   3.801488
    10  C    3.771128   4.295942   3.788696   2.475090   2.462936
    11  C    1.430622   2.463632   2.802130   2.397619   4.283402
    12  C    2.452001   2.857786   2.463333   1.394446   3.780526
    13  C    3.841041   4.992928   5.161185   4.273967   2.426436
    14  C    4.301217   5.163970   4.944341   3.761681   1.412815
    15  H    1.085572   2.152735   3.376024   3.856218   6.305075
    16  H    2.153821   1.081325   2.150319   3.426758   7.611376
    17  H    3.379258   2.149677   1.083375   2.169503   7.104722
    18  H    3.855772   3.409041   2.169332   1.085131   5.064581
    19  H    4.630355   4.917459   4.133097   2.709938   2.699921
    20  H    6.311569   6.969327   6.434497   5.055697   1.084334
    21  H    7.601764   8.566587   8.337163   7.075555   2.141121
    22  H    7.147234   8.374661   8.552133   7.558790   3.396573
    23  H    5.117537   6.460817   6.948020   6.272128   3.865656
    24  H    2.741756   4.067871   4.728854   4.389792   4.444538
    25  H    2.741700   4.067815   4.728806   4.389758   4.444573
                    6          7          8          9         10
     6  C    0.000000
     7  C    1.395126   0.000000
     8  C    2.409396   1.395895   0.000000
     9  C    4.289316   3.786531   2.494554   0.000000
    10  C    3.734517   4.237204   3.730639   2.891805   0.000000
    11  C    5.138029   4.956423   3.809447   1.480000   2.461654
    12  C    4.921922   5.128625   4.272206   2.511431   1.438170
    13  C    2.797760   2.427182   1.392665   1.491666   2.461510
    14  C    2.440872   2.825468   2.437779   2.523531   1.411736
    15  H    6.952456   6.447482   5.102970   2.683200   4.627839
    16  H    8.568379   8.374793   7.147661   4.659590   5.377230
    17  H    8.325427   8.543249   7.582528   5.364195   4.643147
    18  H    6.401464   6.928033   6.277941   4.654198   2.702083
    19  H    4.083174   4.868436   4.600458   3.974862   1.083105
    20  H    2.145705   3.395709   3.864777   4.674572   2.682412
    21  H    1.082808   2.152276   3.393208   5.372123   4.602094
    22  H    2.156464   1.082600   2.153797   4.647694   5.319797
    23  H    3.392629   2.150647   1.085214   2.686085   4.602817
    24  H    4.775450   4.101370   2.773337   1.105613   3.684257
    25  H    4.775498   4.101426   2.773393   1.105614   3.684258
                   11         12         13         14         15
    11  C    0.000000
    12  C    1.401984   0.000000
    13  C    2.529347   2.879558   0.000000
    14  C    2.870608   2.481060   1.419886   0.000000
    15  H    2.168490   3.422110   4.161705   4.914198   0.000000
    16  H    3.444140   3.939089   5.953474   6.218270   2.486244
    17  H    3.884916   3.428765   6.209755   5.891370   4.286364
    18  H    3.385430   2.148357   4.906115   4.107550   4.941151
    19  H    3.432755   2.180811   3.439529   2.165391   5.566613
    20  H    4.902550   4.115810   3.408561   2.155896   7.020970
    21  H    6.191195   5.879767   3.880561   3.416764   8.033641
    22  H    5.918749   6.184073   3.405377   3.908062   7.241331
    23  H    4.150073   4.899518   2.144277   3.417983   4.990040
    24  H    2.107228   3.239051   2.138178   3.266722   2.634173
    25  H    2.107192   3.239028   2.138216   3.266746   2.634115
                   16         17         18         19         20
    16  H    0.000000
    17  H    2.493062   0.000000
    18  H    4.308877   2.474197   0.000000
    19  H    5.983803   4.801089   2.483626   0.000000
    20  H    8.049506   7.206436   4.947189   2.463730   0.000000
    21  H    9.606925   9.239843   7.189125   4.766329   2.464183
    22  H    9.294469   9.584581   8.009482   5.935085   4.291500
    23  H    7.255213   8.028316   6.999758   5.548267   4.949990
    24  H    4.800859   5.792268   5.311883   4.743862   5.352518
    25  H    4.800799   5.792220   5.311855   4.743863   5.352547
                   21         22         23         24         25
    21  H    0.000000
    22  H    2.486564   0.000000
    23  H    4.290217   2.476706   0.000000
    24  H    5.836852   4.835501   2.680917   0.000000
    25  H    5.836901   4.835560   2.680975   1.727909   0.000000
 Stoichiometry    C14H11(1+)
 Framework group  C1[X(C14H11)]
 Deg. of freedom    69
 Full point group                 C1      NOp   1
 Largest Abelian subgroup         C1      NOp   1
 Largest concise Abelian subgroup C1      NOp   1
                         Standard orientation:                         
 ---------------------------------------------------------------------
 Center     Atomic      Atomic             Coordinates (Angstroms)
 Number     Number       Type             X           Y           Z
 ---------------------------------------------------------------------
      1          6           0        2.514045   -1.355515    0.000000
      2          6           0        3.723860   -0.665481    0.000000
      3          6           0        3.696107    0.718488    0.000000
      4          6           0        2.450452    1.414747    0.000000
      5          6           0       -2.487373    1.407785    0.000000
      6          6           0       -3.689043    0.713290    0.000000
      7          6           0       -3.696171   -0.681818    0.000000
      8          6           0       -2.483213   -1.372655    0.000000
      9          6           0        0.009866   -1.458416    0.000000
     10          6           0       -0.024569    1.433185    0.000000
     11          6           0        1.260229   -0.666586    0.000000
     12          6           0        1.232830    0.735131    0.000000
     13          6           0       -1.269005   -0.690589    0.000000
     14          6           0       -1.248222    0.729145    0.000000
     15          1           0        2.506658   -2.441062    0.000000
     16          1           0        4.662422   -1.202478    0.000000
     17          1           0        4.616375    1.290159    0.000000
     18          1           0        2.458066    2.499851    0.000000
     19          1           0       -0.025506    2.516289    0.000000
     20          1           0       -2.489117    2.492117    0.000000
     21          1           0       -4.623421    1.260474    0.000000
     22          1           0       -4.632017   -1.226075    0.000000
     23          1           0       -2.483354   -2.457869    0.000000
     24          1           0        0.035531   -2.147838    0.863955
     25          1           0        0.035593   -2.147838   -0.863955
 ---------------------------------------------------------------------
 Rotational constants (GHZ):           2.1250705           0.4425390           0.3670659
 Standard basis: 6-311++G(d,p) (5D, 7F)
 There are   399 symmetry adapted cartesian basis functions of A   symmetry.
 There are   385 symmetry adapted basis functions of A   symmetry.
   385 basis functions,   603 primitive gaussians,   399 cartesian basis functions
    47 alpha electrons       47 beta electrons
       nuclear repulsion energy       779.3163466993 Hartrees.
 NAtoms=   25 NActive=   25 NUniq=   25 SFac= 1.00D+00 NAtFMM=   60 NAOKFM=F Big=F
 Integral buffers will be    131072 words long.
 Regular integral format.
 Two-electron integral symmetry is turned on.
 One-electron integrals computed using PRISM.
 NBasis=   385 RedAO= T EigKep=  1.15D-06  NBF=   385
 NBsUse=   379 1.00D-06 EigRej=  8.66D-07 NBFU=   379
 ExpMin= 3.60D-02 ExpMax= 4.56D+03 ExpMxC= 6.82D+02 IAcc=3 IRadAn=         5 AccDes= 0.00D+00
 Harris functional with IExCor= 1009 and IRadAn=       5 diagonalized for initial guess.
 HarFok:  IExCor= 1009 AccDes= 0.00D+00 IRadAn=         5 IDoV= 1 UseB2=F ITyADJ=14
 ICtDFT=  3500011 ScaDFX=  1.000000  1.000000  1.000000  1.000000
 FoFCou: FMM=F IPFlag=           0 FMFlag=      100000 FMFlg1=           0
         NFxFlg=           0 DoJE=T BraDBF=F KetDBF=T FulRan=T
         wScrn=  0.000000 ICntrl=       500 IOpCl=  0 I1Cent=   200000004 NGrid=           0
         NMat0=    1 NMatS0=      1 NMatT0=    0 NMatD0=    1 NMtDS0=    0 NMtDT0=    0
 Petite list used in FoFCou.
 Requested convergence on RMS density matrix=1.00D-08 within 128 cycles.
 Requested convergence on MAX density matrix=1.00D-06.
 Requested convergence on             energy=1.00D-06.
 No special actions if energy rises.
 SCF Done:  E(RM062X) =  -539.757421216     A.U. after   15 cycles
            NFock= 15  Conv=0.74D-08     -V/T= 2.0045
 DoSCS=F DFT=T ScalE2(SS,OS)=  1.000000  1.000000
 ExpMin= 3.60D-02 ExpMax= 4.56D+03 ExpMxC= 6.82D+02 IAcc=3 IRadAn=         5 AccDes= 0.00D+00
 HarFok:  IExCor=  205 AccDes= 0.00D+00 IRadAn=         5 IDoV=-2 UseB2=F ITyADJ=14
 ICtDFT= 12500011 ScaDFX=  1.000000  1.000000  1.000000  1.000000
 Range of M.O.s used for correlation:    15   379
 NBasis=   385 NAE=    47 NBE=    47 NFC=    14 NFV=     0
 NROrb=    365 NOA=    33 NOB=    33 NVA=   332 NVB=   332

 **** Warning!!: The largest alpha MO coefficient is  0.13349784D+03

 Orbital symmetries:
       Occupied  (A) (A) (A) (A) (A) (A) (A) (A) (A) (A) (A) (A)
                 (A) (A) (A) (A) (A) (A) (A) (A) (A) (A) (A) (A)
                 (A) (A) (A) (A) (A) (A) (A) (A) (A) (A) (A) (A)
                 (A) (A) (A) (A) (A) (A) (A) (A) (A) (A) (A)
       Virtual   (A) (A) (A) (A) (A) (A) (A) (A) (A) (A) (A) (A)
                 (A) (A) (A) (A) (A) (A) (A) (A) (A) (A) (A) (A)
                 (A) (A) (A) (A) (A) (A) (A) (A) (A) (A) (A) (A)
                 (A) (A) (A) (A) (A) (A) (A) (A) (A) (A) (A) (A)
                 (A) (A) (A) (A) (A) (A) (A) (A) (A) (A) (A) (A)
                 (A) (A) (A) (A) (A) (A) (A) (A) (A) (A) (A) (A)
                 (A) (A) (A) (A) (A) (A) (A) (A) (A) (A) (A) (A)
                 (A) (A) (A) (A) (A) (A) (A) (A) (A) (A) (A) (A)
                 (A) (A) (A) (A) (A) (A) (A) (A) (A) (A) (A) (A)
                 (A) (A) (A) (A) (A) (A) (A) (A) (A) (A) (A) (A)
                 (A) (A) (A) (A) (A) (A) (A) (A) (A) (A) (A) (A)
                 (A) (A) (A) (A) (A) (A) (A) (A) (A) (A) (A) (A)
                 (A) (A) (A) (A) (A) (A) (A) (A) (A) (A) (A) (A)
                 (A) (A) (A) (A) (A) (A) (A) (A) (A) (A) (A) (A)
                 (A) (A) (A) (A) (A) (A) (A) (A) (A) (A) (A) (A)
                 (A) (A) (A) (A) (A) (A) (A) (A) (A) (A) (A) (A)
                 (A) (A) (A) (A) (A) (A) (A) (A) (A) (A) (A) (A)
                 (A) (A) (A) (A) (A) (A) (A) (A) (A) (A) (A) (A)
                 (A) (A) (A) (A) (A) (A) (A) (A) (A) (A) (A) (A)
                 (A) (A) (A) (A) (A) (A) (A) (A) (A) (A) (A) (A)
                 (A) (A) (A) (A) (A) (A) (A) (A) (A) (A) (A) (A)
                 (A) (A) (A) (A) (A) (A) (A) (A) (A) (A) (A) (A)
                 (A) (A) (A) (A) (A) (A) (A) (A) (A) (A) (A) (A)
                 (A) (A) (A) (A) (A) (A) (A) (A) (A) (A) (A) (A)
                 (A) (A) (A) (A) (A) (A) (A) (A) (A) (A) (A) (A)
                 (A) (A) (A) (A) (A) (A) (A) (A) (A) (A) (A) (A)
                 (A) (A) (A) (A) (A) (A) (A) (A) (A) (A) (A) (A)
                 (A) (A) (A) (A) (A) (A) (A) (A)
    12 initial guesses have been made.
 Convergence on wavefunction:    0.001000000000000
 Iteration     1 Dimension    12 NMult     0 NNew     12
 CISAX will form    12 AO SS matrices at one time.
 New state      2 was old state      3
 New state      3 was old state      2
 Iteration     2 Dimension    18 NMult    12 NNew      6
 Iteration     3 Dimension    24 NMult    18 NNew      6
 Iteration     4 Dimension    30 NMult    24 NNew      6
 Iteration     5 Dimension    36 NMult    30 NNew      6
 Iteration     6 Dimension    40 NMult    36 NNew      4
 ***********************************************************************
 Excited states from <AA,BB:AA,BB> singles matrix:
 ***********************************************************************
 
 Ground to excited state transition densities written to RWF  633
 Ground to excited state transition electric dipole moments (Au):
       state          X           Y           Z        Dip. S.      Osc.
         1         0.0291     -0.6027      0.0000      0.3641      0.0246
         2         0.2603      0.2229      0.0000      0.1175      0.0095
         3         2.5472     -0.0179      0.0000      6.4885      0.5517
 Ground to excited state transition velocity dipole moments (Au):
       state          X           Y           Z        Dip. S.      Osc.
         1        -0.0006      0.0685     -0.0000      0.0047      0.0308
         2        -0.0246     -0.0292     -0.0000      0.0015      0.0081
         3        -0.3274      0.0024     -0.0000      0.1072      0.5605
 Ground to excited state transition magnetic dipole moments (Au):
       state          X           Y           Z
         1         0.0000      0.0000      0.1331
         2         0.0000     -0.0000      0.9924
         3         0.0000      0.0000      1.0501
 Ground to excited state transition velocity quadrupole moments (Au):
       state          XX          YY          ZZ          XY          XZ          YZ
         1         0.2745      0.0323     -0.0092      0.0594      0.0000      0.0000
         2        -0.1111     -0.0166      0.0037      0.2958      0.0000      0.0000
         3         0.0629     -0.0032     -0.0006      0.1068     -0.0000     -0.0000
 <0|del|b> * <b|rxdel|0> + <0|del|b> * <b|delr+rdel|0>
 Rotatory Strengths (R) in cgs (10**-40 erg-esu-cm/Gauss)
       state          XX          YY          ZZ    R(velocity)    E-M Angle
         1        -0.0008     -0.0001      0.0013      0.0001       90.00
         2        -0.0018     -0.0014      0.0003     -0.0010       90.00
         3        -0.0076     -0.0062     -0.0005     -0.0048       90.00
 1/2[<0|r|b>*<b|rxdel|0> + (<0|rxdel|b>*<b|r|0>)*]
 Rotatory Strengths (R) in cgs (10**-40 erg-esu-cm/Gauss)
       state          XX          YY          ZZ     R(length)
         1        -0.0000      0.0006     -0.0001      0.0002
         2        -0.0001      0.0007     -0.0002      0.0002
         3        -0.0005      0.0000     -0.0018     -0.0007
  1/2[<0|del|b>*<b|r|0> + (<0|r|b>*<b|del|0>)*] (Au)
       state          X           Y           Z        Dip. S.   Osc.(frdel)
         1        -0.0000     -0.0413     -0.0000      0.0413      0.0275
         2        -0.0064     -0.0065     -0.0000      0.0129      0.0086
         3        -0.8340     -0.0000     -0.0000      0.8341      0.5560

 Excitation energies and oscillator strengths:
 
 Excited State   1:      Singlet-A      2.7628 eV  448.77 nm  f=0.0246  <S**2>=0.000
      47 -> 48         0.70379
 This state for optimization and/or second-order correction.
 Total Energy, E(TD-HF/TD-DFT) =  -539.655890956    
 Copying the excited state density for this state as the 1-particle RhoCI density.
 
 Excited State   2:      Singlet-A      3.2870 eV  377.19 nm  f=0.0095  <S**2>=0.000
      45 -> 48         0.63988
      46 -> 48         0.28777
 
 Excited State   3:      Singlet-A      3.4702 eV  357.28 nm  f=0.5517  <S**2>=0.000
      45 -> 48        -0.29005
      46 -> 48         0.63558
 SavETr:  write IOETrn=   770 NScale= 10 NData=  16 NLR=1 NState=    3 LETran=      64.

 **********************************************************************

            Population analysis using the SCF Density.

 **********************************************************************

 Orbital symmetries:
       Occupied  (A) (A) (A) (A) (A) (A) (A) (A) (A) (A) (A) (A)
                 (A) (A) (A) (A) (A) (A) (A) (A) (A) (A) (A) (A)
                 (A) (A) (A) (A) (A) (A) (A) (A) (A) (A) (A) (A)
                 (A) (A) (A) (A) (A) (A) (A) (A) (A) (A) (A)
       Virtual   (A) (A) (A) (A) (A) (A) (A) (A) (A) (A) (A) (A)
                 (A) (A) (A) (A) (A) (A) (A) (A) (A) (A) (A) (A)
                 (A) (A) (A) (A) (A) (A) (A) (A) (A) (A) (A) (A)
                 (A) (A) (A) (A) (A) (A) (A) (A) (A) (A) (A) (A)
                 (A) (A) (A) (A) (A) (A) (A) (A) (A) (A) (A) (A)
                 (A) (A) (A) (A) (A) (A) (A) (A) (A) (A) (A) (A)
                 (A) (A) (A) (A) (A) (A) (A) (A) (A) (A) (A) (A)
                 (A) (A) (A) (A) (A) (A) (A) (A) (A) (A) (A) (A)
                 (A) (A) (A) (A) (A) (A) (A) (A) (A) (A) (A) (A)
                 (A) (A) (A) (A) (A) (A) (A) (A) (A) (A) (A) (A)
                 (A) (A) (A) (A) (A) (A) (A) (A) (A) (A) (A) (A)
                 (A) (A) (A) (A) (A) (A) (A) (A) (A) (A) (A) (A)
                 (A) (A) (A) (A) (A) (A) (A) (A) (A) (A) (A) (A)
                 (A) (A) (A) (A) (A) (A) (A) (A) (A) (A) (A) (A)
                 (A) (A) (A) (A) (A) (A) (A) (A) (A) (A) (A) (A)
                 (A) (A) (A) (A) (A) (A) (A) (A) (A) (A) (A) (A)
                 (A) (A) (A) (A) (A) (A) (A) (A) (A) (A) (A) (A)
                 (A) (A) (A) (A) (A) (A) (A) (A) (A) (A) (A) (A)
                 (A) (A) (A) (A) (A) (A) (A) (A) (A) (A) (A) (A)
                 (A) (A) (A) (A) (A) (A) (A) (A) (A) (A) (A) (A)
                 (A) (A) (A) (A) (A) (A) (A) (A) (A) (A) (A) (A)
                 (A) (A) (A) (A) (A) (A) (A) (A) (A) (A) (A) (A)
                 (A) (A) (A) (A) (A) (A) (A) (A) (A) (A) (A) (A)
                 (A) (A) (A) (A) (A) (A) (A) (A) (A) (A) (A) (A)
                 (A) (A) (A) (A) (A) (A) (A) (A) (A) (A) (A) (A)
                 (A) (A) (A) (A) (A) (A) (A) (A) (A) (A) (A) (A)
                 (A) (A) (A) (A) (A) (A) (A) (A) (A) (A) (A) (A)
                 (A) (A) (A) (A) (A) (A) (A) (A)
 The electronic state is 1-A.
 Alpha  occ. eigenvalues --  -10.77753 -10.73612 -10.73080 -10.72767 -10.72323
 Alpha  occ. eigenvalues --  -10.71707 -10.71644 -10.71224 -10.71074 -10.70589
 Alpha  occ. eigenvalues --  -10.70198 -10.69966 -10.69876 -10.69601  -1.16244
 Alpha  occ. eigenvalues --   -1.12262  -1.06763  -1.05596  -1.01173  -1.00107
 Alpha  occ. eigenvalues --   -0.95629  -0.90936  -0.86293  -0.85778  -0.83729
 Alpha  occ. eigenvalues --   -0.78315  -0.75886  -0.74273  -0.69558  -0.69175
 Alpha  occ. eigenvalues --   -0.68377  -0.68060  -0.68001  -0.64813  -0.64196
 Alpha  occ. eigenvalues --   -0.62855  -0.61735  -0.60066  -0.59395  -0.59093
 Alpha  occ. eigenvalues --   -0.56857  -0.55290  -0.54638  -0.52330  -0.46745
 Alpha  occ. eigenvalues --   -0.46020  -0.44250
 Alpha virt. eigenvalues --   -0.26111  -0.14714  -0.14136  -0.12838  -0.11170
 Alpha virt. eigenvalues --   -0.10086  -0.09236  -0.08004  -0.07979  -0.07482
 Alpha virt. eigenvalues --   -0.07199  -0.07158  -0.05658  -0.05590  -0.05360
 Alpha virt. eigenvalues --   -0.03821  -0.03630  -0.03298  -0.03159  -0.02168
 Alpha virt. eigenvalues --   -0.01354  -0.00933   0.00177   0.00581   0.00630
 Alpha virt. eigenvalues --    0.01059   0.01505   0.01919   0.02158   0.02294
 Alpha virt. eigenvalues --    0.02434   0.02650   0.02674   0.03265   0.03392
 Alpha virt. eigenvalues --    0.04227   0.04479   0.04690   0.04992   0.05337
 Alpha virt. eigenvalues --    0.06036   0.06246   0.06577   0.07025   0.07245
 Alpha virt. eigenvalues --    0.07869   0.08057   0.08327   0.08510   0.08890
 Alpha virt. eigenvalues --    0.09488   0.09524   0.09937   0.10719   0.10902
 Alpha virt. eigenvalues --    0.11100   0.12100   0.12201   0.12786   0.12959
 Alpha virt. eigenvalues --    0.13369   0.13512   0.13972   0.14250   0.15983
 Alpha virt. eigenvalues --    0.16266   0.16293   0.17312   0.17528   0.17718
 Alpha virt. eigenvalues --    0.18038   0.18962   0.19222   0.19537   0.19701
 Alpha virt. eigenvalues --    0.21439   0.21525   0.22568   0.23002   0.23475
 Alpha virt. eigenvalues --    0.23746   0.24546   0.25276   0.26827   0.27470
 Alpha virt. eigenvalues --    0.28707   0.29234   0.29755   0.31254   0.35478
 Alpha virt. eigenvalues --    0.36108   0.38119   0.39212   0.41083   0.41413
 Alpha virt. eigenvalues --    0.41821   0.42237   0.43017   0.43557   0.44343
 Alpha virt. eigenvalues --    0.44649   0.44851   0.45868   0.46062   0.47953
 Alpha virt. eigenvalues --    0.48527   0.48777   0.49068   0.50466   0.51009
 Alpha virt. eigenvalues --    0.51213   0.51708   0.52125   0.52652   0.53936
 Alpha virt. eigenvalues --    0.54083   0.54533   0.55654   0.55762   0.57497
 Alpha virt. eigenvalues --    0.58191   0.58735   0.61372   0.62090   0.62210
 Alpha virt. eigenvalues --    0.63043   0.63437   0.64714   0.65025   0.67113
 Alpha virt. eigenvalues --    0.70238   0.70490   0.70814   0.72314   0.72727
 Alpha virt. eigenvalues --    0.75648   0.75869   0.76240   0.76815   0.77103
 Alpha virt. eigenvalues --    0.77722   0.77838   0.78138   0.79919   0.80268
 Alpha virt. eigenvalues --    0.81125   0.81567   0.82103   0.82842   0.85062
 Alpha virt. eigenvalues --    0.86989   0.88009   0.88458   0.89050   0.90402
 Alpha virt. eigenvalues --    0.90909   0.91248   0.93132   0.94429   0.96318
 Alpha virt. eigenvalues --    0.96575   1.00283   1.01112   1.01525   1.02593
 Alpha virt. eigenvalues --    1.03042   1.03489   1.04593   1.05426   1.08579
 Alpha virt. eigenvalues --    1.19438   1.23068   1.23900   1.24914   1.28084
 Alpha virt. eigenvalues --    1.29578   1.31840   1.34147   1.35638   1.35823
 Alpha virt. eigenvalues --    1.39168   1.39818   1.40696   1.42896   1.43164
 Alpha virt. eigenvalues --    1.43287   1.44360   1.45518   1.46156   1.46475
 Alpha virt. eigenvalues --    1.47456   1.47683   1.51430   1.53388   1.55251
 Alpha virt. eigenvalues --    1.55514   1.56072   1.56342   1.57559   1.61066
 Alpha virt. eigenvalues --    1.63079   1.63330   1.63862   1.65935   1.67923
 Alpha virt. eigenvalues --    1.68122   1.68491   1.69533   1.74099   1.75595
 Alpha virt. eigenvalues --    1.76795   1.77894   1.79619   1.79759   1.80558
 Alpha virt. eigenvalues --    1.82726   1.82864   1.83359   1.83640   1.83870
 Alpha virt. eigenvalues --    1.84089   1.85501   1.85944   1.88103   1.91094
 Alpha virt. eigenvalues --    1.91819   1.93733   1.95038   1.97322   1.97778
 Alpha virt. eigenvalues --    1.99531   2.01946   2.03926   2.06898   2.11395
 Alpha virt. eigenvalues --    2.11622   2.13782   2.14737   2.18552   2.20673
 Alpha virt. eigenvalues --    2.22243   2.28086   2.29533   2.33935   2.34346
 Alpha virt. eigenvalues --    2.35651   2.38261   2.39283   2.41788   2.44320
 Alpha virt. eigenvalues --    2.45669   2.45696   2.48770   2.52365   2.53039
 Alpha virt. eigenvalues --    2.54093   2.56689   2.57712   2.58370   2.59446
 Alpha virt. eigenvalues --    2.59851   2.61273   2.61901   2.63491   2.63570
 Alpha virt. eigenvalues --    2.64732   2.64979   2.65201   2.65496   2.67478
 Alpha virt. eigenvalues --    2.67765   2.70501   2.70807   2.73185   2.74658
 Alpha virt. eigenvalues --    2.76133   2.77703   2.79543   2.81993   2.82911
 Alpha virt. eigenvalues --    2.83927   2.86055   2.91771   2.96792   2.99165
 Alpha virt. eigenvalues --    2.99759   3.04277   3.09294   3.10501   3.12582
 Alpha virt. eigenvalues --    3.19989   3.22310   3.25867   3.27673   3.29929
 Alpha virt. eigenvalues --    3.31935   3.33163   3.42845   3.45243   3.45769
 Alpha virt. eigenvalues --    3.47391   3.48897   3.55792   3.65885   3.66093
 Alpha virt. eigenvalues --    3.66937   3.93563   3.93901   3.94830   3.95815
 Alpha virt. eigenvalues --    4.03423   4.06269   4.07099   4.12014   4.35058
 Alpha virt. eigenvalues --    4.60406   4.68985   4.70850  23.45109  23.59965
 Alpha virt. eigenvalues --   23.80788  23.83379  23.85916  23.88268  23.90261
 Alpha virt. eigenvalues --   23.92838  23.95363  23.96775  24.00046  24.01632
 Alpha virt. eigenvalues --   24.09380  24.09956
     Molecular Orbital Coefficients:
                          43        44        45        46        47
                           O         O         O         O         O
     Eigenvalues --    -0.54638  -0.52330  -0.46745  -0.46020  -0.44250
   1 1   C  1S         -0.00301  -0.00000   0.00000   0.00000  -0.00000
   2        2S         -0.00495  -0.00000   0.00000   0.00000  -0.00000
   3        2PX        -0.09067  -0.00000   0.00000   0.00000  -0.00000
   4        2PY         0.01934  -0.00000  -0.00000  -0.00000   0.00000
   5        2PZ        -0.00000   0.07518   0.06814  -0.04799   0.11564
   6        3S          0.01536   0.00000  -0.00000  -0.00000   0.00000
   7        3PX        -0.12970  -0.00000   0.00000   0.00000  -0.00000
   8        3PY         0.02768  -0.00000  -0.00000  -0.00000   0.00000
   9        3PZ        -0.00000   0.12080   0.11073  -0.07794   0.18952
  10        4S         -0.01918   0.00000  -0.00000  -0.00000  -0.00000
  11        4PX        -0.07342   0.00000   0.00000   0.00000  -0.00000
  12        4PY         0.01705   0.00000  -0.00000  -0.00000  -0.00000
  13        4PZ        -0.00000   0.09955   0.09715  -0.07080   0.17071
  14        5S          0.10180  -0.00000  -0.00002  -0.00002  -0.00001
  15        5PX         0.13389   0.00000   0.00002   0.00002   0.00001
  16        5PY         0.01775   0.00000   0.00000   0.00000   0.00000
  17        5PZ        -0.00000  -0.00024   0.03311  -0.00367   0.03451
  18        6D 0        0.00031   0.00000  -0.00000  -0.00000  -0.00000
  19        6D+1        0.00000   0.00845  -0.00361  -0.01532  -0.00862
  20        6D-1       -0.00000   0.00773   0.00380  -0.00364   0.00713
  21        6D+2        0.00500  -0.00000   0.00000   0.00000  -0.00000
  22        6D-2       -0.01054  -0.00000   0.00000   0.00000  -0.00000
  23 2   C  1S          0.00264   0.00000  -0.00000  -0.00000   0.00000
  24        2S          0.00439   0.00000  -0.00000  -0.00000   0.00000
  25        2PX         0.07538   0.00000  -0.00000  -0.00000   0.00000
  26        2PY        -0.01299   0.00000  -0.00000  -0.00000   0.00000
  27        2PZ         0.00000   0.10240   0.01870  -0.10617   0.00717
  28        3S         -0.01492  -0.00000   0.00000   0.00000  -0.00000
  29        3PX         0.10897   0.00000  -0.00000  -0.00000   0.00000
  30        3PY        -0.01872   0.00000  -0.00000  -0.00000   0.00000
  31        3PZ         0.00000   0.16858   0.03138  -0.17447   0.01200
  32        4S          0.01215  -0.00000   0.00000   0.00000   0.00000
  33        4PX         0.08185   0.00000  -0.00000  -0.00000  -0.00000
  34        4PY        -0.02206   0.00000   0.00000   0.00000   0.00000
  35        4PZ         0.00000   0.12656   0.02467  -0.14782   0.01098
  36        5S         -0.12755   0.00000   0.00000  -0.00000   0.00000
  37        5PX         0.05343  -0.00000   0.00000   0.00000   0.00000
  38        5PY         0.07577   0.00000   0.00001   0.00001   0.00001
  39        5PZ         0.00000   0.00201  -0.01789  -0.00739  -0.00017
  40        6D 0        0.00015   0.00000   0.00000   0.00000  -0.00000
  41        6D+1        0.00000  -0.00944  -0.00662   0.00603  -0.01134
  42        6D-1        0.00000   0.00564  -0.00894  -0.00547  -0.01913
  43        6D+2        0.00741   0.00000  -0.00000  -0.00000   0.00000
  44        6D-2       -0.01759  -0.00000   0.00000   0.00000  -0.00000
  45 3   C  1S          0.00000  -0.00000  -0.00000   0.00000   0.00000
  46        2S          0.00000  -0.00000  -0.00000   0.00000   0.00000
  47        2PX        -0.06928  -0.00000   0.00000   0.00000  -0.00000
  48        2PY         0.02150  -0.00000  -0.00000  -0.00000  -0.00000
  49        2PZ         0.00000   0.07758  -0.04588  -0.06726  -0.10896
  50        3S          0.00208   0.00000   0.00000   0.00000  -0.00000
  51        3PX        -0.09988  -0.00000   0.00000   0.00000  -0.00000
  52        3PY         0.03051  -0.00000  -0.00000  -0.00000  -0.00000
  53        3PZ         0.00000   0.12615  -0.07572  -0.10905  -0.17909
  54        4S         -0.02609   0.00000  -0.00000  -0.00000  -0.00000
  55        4PX        -0.06800  -0.00000   0.00000   0.00000   0.00000
  56        4PY         0.00767  -0.00000   0.00000   0.00000   0.00000
  57        4PZ         0.00000   0.09839  -0.06553  -0.09573  -0.15956
  58        5S          0.01290  -0.00000  -0.00003  -0.00002  -0.00001
  59        5PX        -0.03643   0.00000  -0.00000  -0.00000  -0.00000
  60        5PY         0.06350   0.00000   0.00001   0.00001   0.00001
  61        5PZ        -0.00000   0.00765   0.01398  -0.01592  -0.01550
  62        6D 0       -0.00008  -0.00000   0.00000   0.00000  -0.00000
  63        6D+1       -0.00000  -0.00323   0.00719  -0.00239   0.01143
  64        6D-1        0.00000  -0.01135  -0.00547   0.01396  -0.00604
  65        6D+2        0.00133  -0.00000  -0.00000  -0.00000  -0.00000
  66        6D-2       -0.01462  -0.00000   0.00000   0.00000  -0.00000
  67 4   C  1S         -0.00185   0.00000  -0.00000   0.00000   0.00000
  68        2S         -0.00306   0.00000  -0.00000   0.00000   0.00000
  69        2PX         0.07249   0.00000  -0.00000  -0.00000   0.00000
  70        2PY        -0.02104   0.00000  -0.00000   0.00000   0.00000
  71        2PZ         0.00000   0.01335  -0.07325   0.03718  -0.11484
  72        3S          0.00910  -0.00000   0.00000   0.00000  -0.00000
  73        3PX         0.10296   0.00000  -0.00000  -0.00000   0.00000
  74        3PY        -0.03018   0.00000  -0.00000   0.00000   0.00000
  75        3PZ         0.00000   0.02067  -0.12039   0.06018  -0.18720
  76        4S          0.03335  -0.00000   0.00000   0.00000   0.00000
  77        4PX         0.07141   0.00000  -0.00000  -0.00000   0.00000
  78        4PY        -0.03620   0.00000  -0.00000  -0.00000  -0.00000
  79        4PZ         0.00000   0.02483  -0.10115   0.04591  -0.18253
  80        5S          0.20172  -0.00000   0.00000   0.00000   0.00001
  81        5PX        -0.11541   0.00000  -0.00000  -0.00000  -0.00001
  82        5PY        -0.04035   0.00000  -0.00000  -0.00000  -0.00000
  83        5PZ         0.00000  -0.01342  -0.03167   0.02811  -0.02502
  84        6D 0       -0.00009   0.00000   0.00000   0.00000  -0.00000
  85        6D+1       -0.00000   0.01266  -0.00067  -0.01715  -0.01035
  86        6D-1       -0.00000  -0.00328   0.00439  -0.00168   0.00619
  87        6D+2        0.00496  -0.00000  -0.00000  -0.00000  -0.00000
  88        6D-2       -0.00945  -0.00000   0.00000   0.00000   0.00000
  89 5   C  1S         -0.00302  -0.00000   0.00000   0.00000  -0.00000
  90        2S         -0.00500  -0.00000   0.00000   0.00000  -0.00000
  91        2PX         0.07823   0.00000  -0.00000  -0.00000   0.00000
  92        2PY        -0.03423  -0.00000   0.00000   0.00000  -0.00000
  93        2PZ         0.00000   0.00910   0.12351  -0.01339  -0.06337
  94        3S          0.01655   0.00000  -0.00000  -0.00000   0.00000
  95        3PX         0.11135   0.00000  -0.00000  -0.00000   0.00000
  96        3PY        -0.04952  -0.00000   0.00000   0.00000  -0.00000
  97        3PZ         0.00000   0.01346   0.20238  -0.02180  -0.10275
  98        4S         -0.03505   0.00000   0.00000   0.00000   0.00000
  99        4PX         0.05271   0.00000  -0.00000   0.00000   0.00000
 100        4PY        -0.03225  -0.00000  -0.00000  -0.00000  -0.00000
 101        4PZ         0.00000   0.01876   0.17875  -0.01228  -0.10394
 102        5S         -0.20965   0.00001   0.00001   0.00001  -0.00000
 103        5PX        -0.08253   0.00000   0.00001   0.00001   0.00000
 104        5PY         0.04840  -0.00000  -0.00000  -0.00000   0.00000
 105        5PZ         0.00000  -0.01647   0.03857  -0.02519  -0.00845
 106        6D 0        0.00052  -0.00000   0.00000  -0.00000   0.00000
 107        6D+1        0.00000  -0.01395  -0.00595  -0.01820   0.00501
 108        6D-1       -0.00000  -0.00300  -0.00762   0.00004   0.00351
 109        6D+2        0.01006   0.00000  -0.00000  -0.00000   0.00000
 110        6D-2       -0.00881  -0.00000  -0.00000  -0.00000   0.00000
 111 6   C  1S          0.00116   0.00000   0.00000   0.00000  -0.00000
 112        2S          0.00194   0.00000   0.00000   0.00000  -0.00000
 113        2PX        -0.06218  -0.00000   0.00000   0.00000  -0.00000
 114        2PY         0.03163   0.00000  -0.00000  -0.00000   0.00000
 115        2PZ         0.00000   0.07511   0.09541   0.07976  -0.05280
 116        3S         -0.00766  -0.00000  -0.00000  -0.00000   0.00000
 117        3PX        -0.08954  -0.00000   0.00000   0.00000  -0.00000
 118        3PY         0.04565   0.00000  -0.00000  -0.00000  -0.00000
 119        3PZ         0.00000   0.12228   0.15699   0.13003  -0.08679
 120        4S          0.01902  -0.00000  -0.00000  -0.00000  -0.00000
 121        4PX        -0.07238  -0.00000  -0.00000  -0.00000  -0.00000
 122        4PY         0.03637   0.00000   0.00000   0.00000   0.00000
 123        4PZ         0.00000   0.09672   0.13461   0.11547  -0.07656
 124        5S          0.04352   0.00000  -0.00002  -0.00001  -0.00001
 125        5PX        -0.01602   0.00000   0.00000   0.00000   0.00000
 126        5PY        -0.04863  -0.00000   0.00001   0.00001   0.00000
 127        5PZ        -0.00000   0.00965  -0.00586   0.01956  -0.01666
 128        6D 0        0.00041   0.00000   0.00000   0.00000   0.00000
 129        6D+1        0.00000   0.00297   0.01273  -0.00008  -0.00640
 130        6D-1        0.00000  -0.01121   0.00856  -0.01179  -0.00497
 131        6D+2        0.00892   0.00000  -0.00000  -0.00000   0.00000
 132        6D-2       -0.01619  -0.00000   0.00000   0.00000  -0.00000
 133 7   C  1S         -0.00186  -0.00000   0.00000   0.00000  -0.00000
 134        2S         -0.00308  -0.00000   0.00000   0.00000  -0.00000
 135        2PX         0.06883   0.00000  -0.00000  -0.00000   0.00000
 136        2PY        -0.04235  -0.00000   0.00000   0.00000  -0.00000
 137        2PZ         0.00000   0.10145  -0.02425   0.09718   0.01747
 138        3S          0.01043   0.00000  -0.00000  -0.00000   0.00000
 139        3PX         0.09850   0.00000  -0.00000  -0.00000   0.00000
 140        3PY        -0.05998  -0.00000   0.00000   0.00000  -0.00000
 141        3PZ         0.00000   0.16727  -0.04038   0.15988   0.02848
 142        4S         -0.02418   0.00000   0.00000   0.00000  -0.00000
 143        4PX         0.06221   0.00000   0.00000   0.00000   0.00000
 144        4PY        -0.03151  -0.00000   0.00000   0.00000   0.00000
 145        4PZ         0.00000   0.12722  -0.03322   0.13675   0.02660
 146        5S          0.06756  -0.00000  -0.00000  -0.00000  -0.00000
 147        5PX         0.03052  -0.00000  -0.00001  -0.00000  -0.00000
 148        5PY        -0.06140  -0.00000   0.00002   0.00001   0.00001
 149        5PZ         0.00000   0.00025   0.01440   0.00526   0.01199
 150        6D 0        0.00014  -0.00000  -0.00000  -0.00000   0.00000
 151        6D+1       -0.00000   0.00912  -0.01196   0.00334   0.00695
 152        6D-1        0.00000   0.00538   0.01737   0.00812  -0.00979
 153        6D+2        0.00240  -0.00000   0.00000   0.00000  -0.00000
 154        6D-2       -0.01291  -0.00000   0.00000   0.00000  -0.00000
 155 8   C  1S          0.00071   0.00000  -0.00000   0.00000   0.00000
 156        2S          0.00116   0.00000  -0.00000   0.00000   0.00000
 157        2PX        -0.07368  -0.00000   0.00000   0.00000  -0.00000
 158        2PY         0.03321   0.00000   0.00000   0.00000  -0.00000
 159        2PZ        -0.00000   0.07354  -0.12111   0.02337   0.06722
 160        3S         -0.00222  -0.00000   0.00000  -0.00000  -0.00000
 161        3PX        -0.10369  -0.00000   0.00000   0.00000  -0.00000
 162        3PY         0.04826   0.00000  -0.00000  -0.00000  -0.00000
 163        3PZ        -0.00000   0.11839  -0.19784   0.03810   0.11078
 164        4S          0.01485  -0.00000  -0.00000  -0.00000  -0.00000
 165        4PX        -0.07629   0.00000  -0.00000  -0.00000  -0.00000
 166        4PY         0.05817  -0.00000  -0.00000  -0.00000  -0.00000
 167        4PZ        -0.00000   0.09807  -0.17215   0.03629   0.09963
 168        5S         -0.10428   0.00000  -0.00002  -0.00001  -0.00001
 169        5PX         0.09047   0.00000  -0.00003  -0.00002  -0.00001
 170        5PY        -0.00312  -0.00000   0.00000   0.00000   0.00000
 171        5PZ        -0.00000   0.00147  -0.04479  -0.00060   0.01036
 172        6D 0       -0.00027  -0.00000  -0.00000  -0.00000   0.00000
 173        6D+1       -0.00000  -0.00874  -0.00720  -0.01587   0.00201
 174        6D-1       -0.00000   0.00744  -0.00787   0.00184   0.00484
 175        6D+2        0.01126   0.00000  -0.00000  -0.00000   0.00000
 176        6D-2       -0.01021  -0.00000   0.00000  -0.00000  -0.00000
 177 9   C  1S         -0.00308  -0.00000  -0.00000  -0.00000  -0.00000
 178        2S         -0.00513  -0.00000  -0.00000  -0.00000  -0.00000
 179        2PX        -0.09240  -0.00000   0.00000   0.00000  -0.00000
 180        2PY         0.02980  -0.00000  -0.00000  -0.00000  -0.00000
 181        2PZ        -0.00000  -0.00650   0.01847   0.00511  -0.05799
 182        3S          0.01644   0.00000   0.00000   0.00000   0.00000
 183        3PX        -0.13876  -0.00000   0.00000   0.00000  -0.00000
 184        3PY         0.04420  -0.00000  -0.00000  -0.00000  -0.00000
 185        3PZ        -0.00001  -0.00745   0.02805   0.00792  -0.08850
 186        4S          0.00009  -0.00000   0.00001   0.00001   0.00001
 187        4PX        -0.09650   0.00000   0.00000   0.00000   0.00000
 188        4PY         0.04411  -0.00000  -0.00000  -0.00000  -0.00000
 189        4PZ        -0.00001  -0.04329   0.02707   0.00779  -0.08938
 190        5S         -0.00693  -0.00000   0.00003   0.00002   0.00001
 191        5PX         0.33558  -0.00000  -0.00000  -0.00000   0.00000
 192        5PY         0.00466  -0.00000   0.00001   0.00000   0.00000
 193        5PZ        -0.00000  -0.06948  -0.02851  -0.00888   0.08843
 194        6D 0       -0.00309  -0.00000   0.00000  -0.00000  -0.00000
 195        6D+1        0.00000   0.00026   0.01393   0.01124   0.00518
 196        6D-1        0.00000   0.00035  -0.00497  -0.00123   0.01750
 197        6D+2        0.00739   0.00000  -0.00000  -0.00000   0.00000
 198        6D-2       -0.00968  -0.00000   0.00000   0.00000  -0.00000
 199 10  C  1S         -0.00449  -0.00000  -0.00000  -0.00000  -0.00000
 200        2S         -0.00745  -0.00000  -0.00000  -0.00000  -0.00000
 201        2PX         0.07270   0.00000  -0.00000  -0.00000   0.00000
 202        2PY        -0.02467  -0.00000   0.00000   0.00000  -0.00000
 203        2PZ         0.00000  -0.10337  -0.00455  -0.00479   0.01614
 204        3S          0.02285   0.00000   0.00000   0.00000   0.00000
 205        3PX         0.10458   0.00000  -0.00000  -0.00000   0.00000
 206        3PY        -0.03547  -0.00000   0.00000   0.00000   0.00000
 207        3PZ         0.00000  -0.16849  -0.00778  -0.00776   0.02741
 208        4S          0.02215   0.00000  -0.00000  -0.00000  -0.00000
 209        4PX         0.08374  -0.00000  -0.00000  -0.00000   0.00000
 210        4PY        -0.04251  -0.00000   0.00000   0.00000   0.00000
 211        4PZ         0.00000  -0.13978  -0.00549  -0.00568   0.01968
 212        5S         -0.00214  -0.00000   0.00002   0.00002   0.00001
 213        5PX        -0.27360   0.00001   0.00000   0.00000  -0.00001
 214        5PY        -0.00354   0.00000   0.00000   0.00000   0.00000
 215        5PZ         0.00000  -0.01429   0.01649   0.00645  -0.05710
 216        6D 0        0.00067  -0.00000   0.00000   0.00000   0.00000
 217        6D+1       -0.00000   0.00158  -0.00755   0.02289   0.00026
 218        6D-1       -0.00000   0.00926   0.00115   0.00059  -0.00405
 219        6D+2        0.00912  -0.00000  -0.00000  -0.00000  -0.00000
 220        6D-2       -0.00934  -0.00000   0.00000   0.00000  -0.00000
 221 11  C  1S         -0.00055   0.00000  -0.00000  -0.00000   0.00000
 222        2S         -0.00094   0.00000  -0.00000  -0.00000   0.00000
 223        2PX         0.08110   0.00000  -0.00000  -0.00000   0.00000
 224        2PY        -0.03188   0.00000  -0.00000   0.00000   0.00000
 225        2PZ        -0.00000   0.00577   0.05512   0.06227   0.10557
 226        3S          0.00349  -0.00000   0.00000   0.00000  -0.00000
 227        3PX         0.11865   0.00000  -0.00000  -0.00000   0.00000
 228        3PY        -0.04552   0.00000  -0.00000   0.00000   0.00000
 229        3PZ        -0.00000   0.00881   0.08947   0.10334   0.17230
 230        4S          0.00288  -0.00000  -0.00000  -0.00000  -0.00000
 231        4PX         0.11411   0.00000   0.00000   0.00000   0.00000
 232        4PY        -0.04851   0.00000   0.00000   0.00000   0.00000
 233        4PZ        -0.00000   0.02127   0.09546   0.08582   0.17726
 234        5S          0.07216  -0.00000  -0.00004  -0.00003  -0.00002
 235        5PX         0.16326  -0.00001   0.00001   0.00001   0.00001
 236        5PY         0.21806  -0.00001  -0.00004  -0.00003  -0.00001
 237        5PZ         0.00000   0.01718  -0.01521   0.01841  -0.07234
 238        6D 0       -0.00036   0.00000  -0.00000  -0.00000  -0.00000
 239        6D+1        0.00000   0.00943   0.00502  -0.00601   0.01398
 240        6D-1        0.00000  -0.00995  -0.00884   0.01344  -0.00082
 241        6D+2        0.00724   0.00000  -0.00000  -0.00000  -0.00000
 242        6D-2       -0.01664  -0.00000   0.00000  -0.00000  -0.00000
 243 12  C  1S          0.00216  -0.00000   0.00000  -0.00000  -0.00000
 244        2S          0.00367  -0.00000   0.00000  -0.00000  -0.00000
 245        2PX        -0.06549  -0.00000   0.00000   0.00000  -0.00000
 246        2PY         0.02977  -0.00000  -0.00000  -0.00000  -0.00000
 247        2PZ         0.00000  -0.05802  -0.03244   0.10947   0.00943
 248        3S         -0.01071  -0.00000  -0.00000   0.00000   0.00000
 249        3PX        -0.09426  -0.00000   0.00000   0.00000  -0.00000
 250        3PY         0.04315  -0.00000  -0.00000  -0.00000  -0.00000
 251        3PZ         0.00000  -0.09543  -0.05088   0.18004   0.01467
 252        4S         -0.01460   0.00000  -0.00000  -0.00000  -0.00000
 253        4PX        -0.08141  -0.00000  -0.00000  -0.00000  -0.00000
 254        4PY         0.01475   0.00000   0.00000   0.00000  -0.00000
 255        4PZ         0.00000  -0.08697  -0.06324   0.17531   0.01706
 256        5S         -0.21764   0.00000   0.00006   0.00004   0.00002
 257        5PX        -0.29555   0.00001   0.00001   0.00000  -0.00001
 258        5PY         0.15947  -0.00000  -0.00003  -0.00002  -0.00001
 259        5PZ        -0.00000   0.01378   0.01878  -0.02856   0.07491
 260        6D 0       -0.00005   0.00000  -0.00000  -0.00000   0.00000
 261        6D+1       -0.00000   0.01243  -0.00586   0.00238  -0.01333
 262        6D-1        0.00000  -0.00470  -0.01052  -0.00333  -0.01806
 263        6D+2        0.00668  -0.00000   0.00000   0.00000  -0.00000
 264        6D-2       -0.01693  -0.00000   0.00000   0.00000  -0.00000
 265 13  C  1S         -0.00183  -0.00000   0.00000   0.00000  -0.00000
 266        2S         -0.00303  -0.00000   0.00000   0.00000  -0.00000
 267        2PX         0.07843   0.00000  -0.00000  -0.00000   0.00000
 268        2PY        -0.05203  -0.00000   0.00000   0.00000  -0.00000
 269        2PZ        -0.00000   0.00202  -0.10055  -0.07458   0.04374
 270        3S          0.00859   0.00000  -0.00000  -0.00000   0.00000
 271        3PX         0.11567   0.00000  -0.00000  -0.00000   0.00000
 272        3PY        -0.07677  -0.00000   0.00000   0.00000  -0.00000
 273        3PZ        -0.00000   0.00206  -0.16349  -0.12387   0.07122
 274        4S          0.02464   0.00000  -0.00000  -0.00000   0.00000
 275        4PX         0.11176   0.00000  -0.00000  -0.00000   0.00000
 276        4PY        -0.05210  -0.00000   0.00000   0.00000  -0.00000
 277        4PZ        -0.00000   0.01609  -0.16591  -0.10747   0.07114
 278        5S         -0.08119   0.00000  -0.00004  -0.00003  -0.00002
 279        5PX         0.13413  -0.00001  -0.00001  -0.00001  -0.00000
 280        5PY        -0.27147   0.00001  -0.00004  -0.00003  -0.00003
 281        5PZ         0.00000   0.01521   0.05740  -0.00360  -0.05937
 282        6D 0        0.00038  -0.00000  -0.00000  -0.00000   0.00000
 283        6D+1       -0.00000  -0.00972   0.01289  -0.00313  -0.01037
 284        6D-1        0.00000  -0.01132   0.00836  -0.01256   0.00119
 285        6D+2        0.00760  -0.00000  -0.00000  -0.00000   0.00000
 286        6D-2       -0.01785  -0.00000   0.00000   0.00000  -0.00000
 287 14  C  1S          0.00065  -0.00000  -0.00000  -0.00000   0.00000
 288        2S          0.00108  -0.00000  -0.00000  -0.00000   0.00000
 289        2PX        -0.06949  -0.00000   0.00000   0.00000  -0.00000
 290        2PY         0.04844   0.00000  -0.00000  -0.00000   0.00000
 291        2PZ         0.00000  -0.07120   0.02601  -0.10706   0.00317
 292        3S         -0.00318   0.00000   0.00000   0.00000  -0.00000
 293        3PX        -0.10024  -0.00000   0.00000   0.00000  -0.00000
 294        3PY         0.07026   0.00000  -0.00000  -0.00000   0.00000
 295        3PZ         0.00000  -0.11680   0.04121  -0.17605   0.00300
 296        4S          0.02143  -0.00000   0.00000  -0.00000   0.00000
 297        4PX        -0.10609  -0.00000   0.00000   0.00000   0.00000
 298        4PY         0.07580  -0.00000  -0.00000   0.00000   0.00000
 299        4PZ         0.00000  -0.10615   0.05049  -0.17358   0.01368
 300        5S          0.25605  -0.00001   0.00005   0.00004   0.00003
 301        5PX        -0.26297   0.00001   0.00001   0.00000  -0.00001
 302        5PY        -0.19467   0.00000  -0.00003  -0.00002  -0.00002
 303        5PZ        -0.00000   0.01665  -0.05734   0.01333   0.06072
 304        6D 0        0.00008  -0.00000  -0.00000  -0.00000  -0.00000
 305        6D+1       -0.00000  -0.01242  -0.01169  -0.00071   0.00820
 306        6D-1        0.00000  -0.00508   0.01750   0.00545  -0.00801
 307        6D+2        0.00755   0.00000  -0.00000  -0.00000   0.00000
 308        6D-2       -0.01620  -0.00000   0.00000   0.00000  -0.00000
 309 15  H  1S         -0.01630   0.00000   0.00000  -0.00000   0.00000
 310        2S         -0.02419   0.00000   0.00000  -0.00000   0.00000
 311        3S         -0.01042   0.00000  -0.00000  -0.00000  -0.00000
 312        4S         -0.01260   0.00000   0.00000   0.00000   0.00000
 313        5PX        -0.00438  -0.00000  -0.00000   0.00000  -0.00000
 314        5PY        -0.00058   0.00000  -0.00000  -0.00000  -0.00000
 315        5PZ        -0.00000   0.00481   0.00495  -0.00333   0.00805
 316 16  H  1S          0.06758   0.00000  -0.00000  -0.00000   0.00000
 317        2S          0.09835   0.00000  -0.00000   0.00000   0.00000
 318        3S          0.03769  -0.00000   0.00000   0.00000   0.00000
 319        4S          0.00670   0.00000   0.00000   0.00000   0.00000
 320        5PX        -0.00331  -0.00000  -0.00000  -0.00000   0.00000
 321        5PY         0.00355   0.00000  -0.00000  -0.00000   0.00000
 322        5PZ         0.00000   0.00658   0.00136  -0.00727   0.00050
 323 17  H  1S         -0.04667  -0.00000   0.00000   0.00000  -0.00000
 324        2S         -0.06693  -0.00000   0.00000  -0.00000  -0.00000
 325        3S         -0.02639  -0.00000   0.00000   0.00000  -0.00000
 326        4S         -0.00568   0.00000  -0.00000  -0.00000  -0.00000
 327        5PX         0.00120   0.00000  -0.00000   0.00000   0.00000
 328        5PY         0.00444   0.00000  -0.00000  -0.00000   0.00000
 329        5PZ         0.00000   0.00494  -0.00319  -0.00453  -0.00780
 330 18  H  1S         -0.01885   0.00000  -0.00000   0.00000   0.00000
 331        2S         -0.02752   0.00000   0.00000   0.00000   0.00000
 332        3S         -0.01150   0.00000   0.00000   0.00000   0.00000
 333        4S          0.01523   0.00000   0.00000   0.00000   0.00000
 334        5PX         0.00431   0.00000  -0.00000   0.00000   0.00000
 335        5PY         0.00136  -0.00000  -0.00000  -0.00000  -0.00000
 336        5PZ         0.00000   0.00035  -0.00534   0.00270  -0.00808
 337 19  H  1S         -0.02284   0.00000   0.00000   0.00000   0.00000
 338        2S         -0.03303  -0.00000   0.00000   0.00000  -0.00000
 339        3S         -0.01597   0.00000  -0.00000  -0.00000  -0.00000
 340        4S         -0.00240  -0.00000  -0.00000   0.00000  -0.00000
 341        5PX         0.00398   0.00000  -0.00000  -0.00000   0.00000
 342        5PY         0.00059   0.00000   0.00000   0.00000   0.00000
 343        5PZ         0.00000  -0.00645  -0.00016  -0.00026   0.00055
 344 20  H  1S         -0.03252  -0.00000   0.00000   0.00000  -0.00000
 345        2S         -0.04802  -0.00000   0.00000   0.00000  -0.00000
 346        3S         -0.02445  -0.00000   0.00000   0.00000  -0.00000
 347        4S         -0.01930  -0.00000   0.00000   0.00000   0.00000
 348        5PX         0.00383   0.00000  -0.00000  -0.00000   0.00000
 349        5PY         0.00162   0.00000  -0.00000  -0.00000  -0.00000
 350        5PZ         0.00000   0.00003   0.00871  -0.00110  -0.00429
 351 21  H  1S          0.06732   0.00000  -0.00000  -0.00000   0.00000
 352        2S          0.09792   0.00000  -0.00000  -0.00000   0.00000
 353        3S          0.03699  -0.00000  -0.00000  -0.00000   0.00000
 354        4S          0.00540  -0.00000  -0.00000  -0.00000  -0.00000
 355        5PX         0.00397   0.00000  -0.00000  -0.00000   0.00000
 356        5PY        -0.00263  -0.00000   0.00000   0.00000  -0.00000
 357        5PZ         0.00000   0.00479   0.00662   0.00544  -0.00380
 358 22  H  1S         -0.03560  -0.00000   0.00000   0.00000  -0.00000
 359        2S         -0.05188  -0.00000   0.00000   0.00000  -0.00000
 360        3S         -0.02233   0.00000   0.00000   0.00000  -0.00000
 361        4S         -0.00819  -0.00000   0.00000   0.00000  -0.00000
 362        5PX        -0.00010  -0.00000   0.00000   0.00000   0.00000
 363        5PY        -0.00463  -0.00000   0.00000   0.00000  -0.00000
 364        5PZ         0.00000   0.00649  -0.00170   0.00663   0.00116
 365 23  H  1S         -0.03594  -0.00000   0.00000   0.00000  -0.00000
 366        2S         -0.05044  -0.00000   0.00000  -0.00000  -0.00000
 367        3S         -0.02036   0.00000  -0.00000  -0.00000  -0.00000
 368        4S          0.01138  -0.00000   0.00000   0.00000   0.00000
 369        5PX        -0.00417  -0.00000   0.00000   0.00000  -0.00000
 370        5PY        -0.00224  -0.00000  -0.00000  -0.00000   0.00000
 371        5PZ        -0.00000   0.00472  -0.00845   0.00168   0.00450
 372 24  H  1S         -0.01759  -0.00349   0.01698   0.00464  -0.05429
 373        2S         -0.02515   0.00401   0.02650   0.00715  -0.08637
 374        3S         -0.01112   0.02558   0.02134   0.00560  -0.07222
 375        4S          0.00099   0.04563   0.01163   0.00287  -0.03911
 376        5PX        -0.00456   0.00003   0.00227   0.00085   0.00112
 377        5PY         0.00028   0.00087   0.00114   0.00030  -0.00315
 378        5PZ         0.00164   0.00012  -0.00049  -0.00010   0.00158
 379 25  H  1S         -0.01758   0.00349  -0.01698  -0.00464   0.05429
 380        2S         -0.02514  -0.00401  -0.02651  -0.00715   0.08637
 381        3S         -0.01112  -0.02558  -0.02135  -0.00560   0.07222
 382        4S          0.00099  -0.04563  -0.01164  -0.00288   0.03911
 383        5PX        -0.00456  -0.00003  -0.00227  -0.00085  -0.00112
 384        5PY         0.00028  -0.00087  -0.00114  -0.00030   0.00315
 385        5PZ        -0.00164   0.00012  -0.00049  -0.00010   0.00158
                          48        49        50        51        52
                           V         V         V         V         V
     Eigenvalues --    -0.26111  -0.14714  -0.14136  -0.12838  -0.11170
   1 1   C  1S         -0.00000  -0.00000   0.00000   0.00000  -0.00583
   2        2S         -0.00000  -0.00000   0.00000   0.00000  -0.00988
   3        2PX         0.00000  -0.00000  -0.00000  -0.00000   0.00347
   4        2PY        -0.00000  -0.00000   0.00000   0.00000  -0.01485
   5        2PZ        -0.00433   0.09928  -0.01177  -0.10419  -0.00000
   6        3S          0.00000   0.00000  -0.00000  -0.00000   0.03229
   7        3PX         0.00000  -0.00000   0.00000   0.00000   0.00340
   8        3PY        -0.00000  -0.00000   0.00000   0.00000  -0.02185
   9        3PZ        -0.00677   0.15253  -0.01753  -0.16469  -0.00000
  10        4S          0.00000   0.00000   0.00000   0.00000   0.02342
  11        4PX         0.00000   0.00000  -0.00000  -0.00000   0.02577
  12        4PY         0.00000   0.00000   0.00000   0.00000  -0.07851
  13        4PZ        -0.00658   0.28501  -0.02888  -0.29092  -0.00000
  14        5S         -0.00000  -0.00000   0.00009   0.00008  -1.66583
  15        5PX         0.00000   0.00001  -0.00011  -0.00009   0.85310
  16        5PY         0.00000   0.00000  -0.00001  -0.00001  -0.44800
  17        5PZ         0.00993   0.21310   0.01134  -0.33738  -0.00001
  18        6D 0        0.00000   0.00000   0.00000  -0.00000  -0.00538
  19        6D+1        0.01625   0.00817   0.02451  -0.00262   0.00000
  20        6D-1       -0.00187  -0.00861   0.00177   0.00834  -0.00000
  21        6D+2        0.00000   0.00000  -0.00000  -0.00000   0.00144
  22        6D-2        0.00000  -0.00000  -0.00000  -0.00000  -0.00115
  23 2   C  1S         -0.00000   0.00000   0.00000   0.00000  -0.00457
  24        2S         -0.00000   0.00000   0.00000   0.00000  -0.00757
  25        2PX        -0.00000   0.00000   0.00000  -0.00000   0.00654
  26        2PY        -0.00000   0.00000   0.00000  -0.00000  -0.00056
  27        2PZ         0.07784  -0.01407   0.10038   0.04257   0.00000
  28        3S          0.00000   0.00000  -0.00000  -0.00000   0.02175
  29        3PX        -0.00000   0.00000   0.00000  -0.00000   0.01106
  30        3PY        -0.00000   0.00000   0.00000  -0.00000  -0.00253
  31        3PZ         0.12752  -0.02115   0.15981   0.06704   0.00000
  32        4S         -0.00000  -0.00000  -0.00000   0.00000   0.10765
  33        4PX         0.00000   0.00000   0.00000   0.00000  -0.00288
  34        4PY         0.00000  -0.00000  -0.00000  -0.00000   0.01152
  35        4PZ         0.14777  -0.04338   0.26523   0.11721   0.00000
  36        5S         -0.00000  -0.00001   0.00001   0.00001   0.50690
  37        5PX         0.00000   0.00000  -0.00002  -0.00001   0.21362
  38        5PY        -0.00000   0.00000  -0.00006  -0.00005   0.37606
  39        5PZ         0.04632  -0.03189   0.21354   0.12532   0.00000
  40        6D 0        0.00000   0.00000  -0.00000   0.00000  -0.00352
  41        6D+1        0.00176  -0.01256   0.00202   0.01427   0.00000
  42        6D-1        0.00123  -0.02162  -0.01020   0.01931   0.00000
  43        6D+2       -0.00000  -0.00000   0.00000   0.00000  -0.00213
  44        6D-2        0.00000   0.00000  -0.00000  -0.00000   0.00377
  45 3   C  1S         -0.00000  -0.00000   0.00000   0.00000  -0.00389
  46        2S         -0.00000  -0.00000   0.00000   0.00000  -0.00643
  47        2PX        -0.00000  -0.00000  -0.00000   0.00000   0.00719
  48        2PY        -0.00000  -0.00000   0.00000   0.00000   0.00054
  49        2PZ         0.01204  -0.09028  -0.07018   0.06812  -0.00000
  50        3S          0.00000   0.00000  -0.00000  -0.00000   0.01840
  51        3PX        -0.00000  -0.00000  -0.00000  -0.00000   0.01284
  52        3PY        -0.00000  -0.00000   0.00000   0.00000   0.00171
  53        3PZ         0.02089  -0.14166  -0.11134   0.10668  -0.00000
  54        4S          0.00000   0.00000   0.00000   0.00000   0.06668
  55        4PX        -0.00000  -0.00000  -0.00000  -0.00000   0.01387
  56        4PY        -0.00000  -0.00000  -0.00000  -0.00000   0.02073
  57        4PZ         0.01459  -0.24414  -0.18883   0.18452  -0.00000
  58        5S          0.00001  -0.00000   0.00009   0.00007   0.17849
  59        5PX        -0.00000  -0.00000   0.00001   0.00001  -0.02126
  60        5PY        -0.00000  -0.00000  -0.00004  -0.00003   0.39394
  61        5PZ         0.00283  -0.18469  -0.14409   0.18419  -0.00000
  62        6D 0        0.00000   0.00000   0.00000  -0.00000  -0.00381
  63        6D+1        0.00931  -0.01045   0.00541   0.01405   0.00000
  64        6D-1       -0.01366   0.00833  -0.01738  -0.01470  -0.00000
  65        6D+2        0.00000   0.00000   0.00000   0.00000  -0.00234
  66        6D-2        0.00000  -0.00000  -0.00000   0.00000  -0.00345
  67 4   C  1S         -0.00000  -0.00000  -0.00000   0.00000  -0.00620
  68        2S         -0.00000  -0.00000  -0.00000   0.00000  -0.01043
  69        2PX        -0.00000  -0.00000  -0.00000  -0.00000   0.00396
  70        2PY        -0.00000  -0.00000  -0.00000  -0.00000   0.01645
  71        2PZ        -0.07485   0.08848  -0.03647  -0.10663  -0.00000
  72        3S          0.00000   0.00000  -0.00000  -0.00000   0.03104
  73        3PX        -0.00000  -0.00000   0.00000   0.00000   0.00425
  74        3PY        -0.00000  -0.00000   0.00000  -0.00000   0.02225
  75        3PZ        -0.12122   0.13527  -0.05829  -0.16949  -0.00000
  76        4S          0.00000  -0.00000  -0.00001  -0.00000   0.20254
  77        4PX        -0.00000  -0.00000   0.00000   0.00000  -0.04755
  78        4PY         0.00000   0.00000   0.00000   0.00000   0.02782
  79        4PZ        -0.13925   0.26315  -0.11221  -0.29188  -0.00000
  80        5S          0.00000  -0.00001  -0.00002  -0.00001   1.78048
  81        5PX        -0.00000   0.00000   0.00003   0.00002  -0.85080
  82        5PY         0.00000   0.00000   0.00000   0.00000   0.61179
  83        5PZ        -0.03237   0.23868  -0.14882  -0.32058  -0.00000
  84        6D 0        0.00000   0.00000   0.00000   0.00000  -0.00553
  85        6D+1        0.00168  -0.01403  -0.02323   0.00420  -0.00000
  86        6D-1        0.00371   0.00720  -0.00148  -0.00874  -0.00000
  87        6D+2        0.00000   0.00000   0.00000  -0.00000   0.00082
  88        6D-2       -0.00000  -0.00000  -0.00000   0.00000   0.00219
  89 5   C  1S          0.00000   0.00000  -0.00000   0.00000  -0.00715
  90        2S          0.00000   0.00000  -0.00000   0.00000  -0.01204
  91        2PX        -0.00000  -0.00000   0.00000   0.00000  -0.00381
  92        2PY         0.00000   0.00000  -0.00000  -0.00000   0.01846
  93        2PZ        -0.08237   0.08613   0.00922   0.11031   0.00000
  94        3S         -0.00000  -0.00000   0.00000  -0.00000   0.03626
  95        3PX        -0.00000  -0.00000   0.00000  -0.00000  -0.00405
  96        3PY         0.00000   0.00000   0.00000  -0.00000   0.02522
  97        3PZ        -0.13365   0.13217   0.01559   0.17528   0.00000
  98        4S          0.00000  -0.00000  -0.00001  -0.00000   0.20815
  99        4PX        -0.00000  -0.00000  -0.00000  -0.00000   0.04873
 100        4PY        -0.00000   0.00000   0.00000   0.00000   0.04128
 101        4PZ        -0.15601   0.26509   0.02895   0.31210   0.00000
 102        5S         -0.00000   0.00001  -0.00004  -0.00002   1.65236
 103        5PX        -0.00000  -0.00000  -0.00003  -0.00003   0.94637
 104        5PY        -0.00000   0.00000   0.00000   0.00000   0.71311
 105        5PZ        -0.03911   0.25547   0.07880   0.36191   0.00000
 106        6D 0       -0.00000  -0.00000   0.00000   0.00000  -0.00589
 107        6D+1       -0.00091   0.00799  -0.02810   0.00417  -0.00000
 108        6D-1        0.00362   0.00717   0.00039   0.01010   0.00000
 109        6D+2       -0.00000  -0.00000   0.00000  -0.00000   0.00152
 110        6D-2       -0.00000  -0.00000   0.00000  -0.00000  -0.00229
 111 6   C  1S          0.00000   0.00000  -0.00000   0.00000  -0.00474
 112        2S          0.00000   0.00000  -0.00000   0.00000  -0.00787
 113        2PX         0.00000  -0.00000   0.00000   0.00000  -0.00909
 114        2PY         0.00000   0.00000  -0.00000   0.00000   0.00132
 115        2PZ         0.00892  -0.06477   0.09592  -0.06857   0.00000
 116        3S         -0.00000  -0.00000  -0.00000  -0.00000   0.02287
 117        3PX        -0.00000  -0.00000   0.00000   0.00000  -0.01532
 118        3PY         0.00000   0.00000   0.00000   0.00000   0.00302
 119        3PZ         0.01644  -0.10173   0.15223  -0.10760   0.00000
 120        4S         -0.00000  -0.00000   0.00000   0.00000   0.08617
 121        4PX        -0.00000  -0.00000   0.00000   0.00000  -0.01873
 122        4PY         0.00000   0.00000  -0.00000  -0.00000   0.02251
 123        4PZ         0.00977  -0.18356   0.26041  -0.19533   0.00000
 124        5S         -0.00001   0.00002   0.00007   0.00005   0.30028
 125        5PX        -0.00000  -0.00000  -0.00001  -0.00001   0.01515
 126        5PY         0.00000  -0.00001  -0.00004  -0.00003   0.48595
 127        5PZ         0.00112  -0.14103   0.20706  -0.20139   0.00000
 128        6D 0       -0.00000  -0.00000   0.00000   0.00000  -0.00430
 129        6D+1       -0.01039   0.01057   0.00155   0.01467   0.00000
 130        6D-1       -0.01609   0.01173   0.01525   0.01656   0.00000
 131        6D+2       -0.00000  -0.00000   0.00000   0.00000  -0.00289
 132        6D-2        0.00000  -0.00000   0.00000  -0.00000   0.00416
 133 7   C  1S          0.00000   0.00000   0.00000   0.00000  -0.00552
 134        2S          0.00000   0.00000   0.00000   0.00000  -0.00917
 135        2PX        -0.00000   0.00000  -0.00000   0.00000  -0.00857
 136        2PY         0.00000   0.00000   0.00000  -0.00000  -0.00117
 137        2PZ         0.09208  -0.03459  -0.09866  -0.04753  -0.00000
 138        3S         -0.00000  -0.00000  -0.00000  -0.00000   0.02675
 139        3PX        -0.00000   0.00000  -0.00000   0.00000  -0.01394
 140        3PY         0.00000   0.00000   0.00000  -0.00000  -0.00362
 141        3PZ         0.15077  -0.05398  -0.15709  -0.07484  -0.00000
 142        4S          0.00000   0.00000  -0.00000   0.00000   0.12317
 143        4PX         0.00000   0.00000  -0.00000   0.00000  -0.00403
 144        4PY         0.00000  -0.00000  -0.00000  -0.00000   0.01056
 145        4PZ         0.17671  -0.09807  -0.26297  -0.13337  -0.00000
 146        5S          0.00000   0.00001   0.00002   0.00002   0.27770
 147        5PX         0.00000   0.00001   0.00002   0.00002  -0.34863
 148        5PY         0.00000  -0.00002  -0.00006  -0.00005   0.45160
 149        5PZ         0.05644  -0.07865  -0.21790  -0.14088  -0.00001
 150        6D 0       -0.00000  -0.00000   0.00000   0.00000  -0.00405
 151        6D+1       -0.00201   0.01189  -0.00098   0.01544   0.00000
 152        6D-1        0.00070  -0.01727   0.01548  -0.02037  -0.00000
 153        6D+2        0.00000   0.00000  -0.00000   0.00000  -0.00230
 154        6D-2        0.00000   0.00000   0.00000   0.00000  -0.00448
 155 8   C  1S          0.00000   0.00000  -0.00000   0.00000  -0.00672
 156        2S          0.00000   0.00000  -0.00000   0.00000  -0.01139
 157        2PX         0.00000   0.00000   0.00000   0.00000  -0.00352
 158        2PY         0.00000   0.00000  -0.00000   0.00000  -0.01611
 159        2PZ        -0.00445   0.09183  -0.00630   0.11215   0.00000
 160        3S         -0.00000  -0.00000   0.00000  -0.00000   0.03677
 161        3PX         0.00000  -0.00000  -0.00000  -0.00000  -0.00333
 162        3PY         0.00000   0.00000   0.00000   0.00000  -0.02358
 163        3PZ        -0.00651   0.14118  -0.00998   0.17787   0.00000
 164        4S         -0.00000  -0.00000   0.00000   0.00000   0.03935
 165        4PX         0.00000   0.00000   0.00000   0.00000  -0.02623
 166        4PY        -0.00000  -0.00000   0.00000   0.00000  -0.08257
 167        4PZ        -0.00520   0.26862  -0.02871   0.32092   0.00000
 168        5S         -0.00000   0.00002   0.00008   0.00007  -1.83549
 169        5PX        -0.00000   0.00004   0.00010   0.00009  -1.11372
 170        5PY         0.00000  -0.00000  -0.00001  -0.00001  -0.48090
 171        5PZ         0.01133   0.19975  -0.05304   0.37055   0.00001
 172        6D 0       -0.00000  -0.00000   0.00000  -0.00000  -0.00592
 173        6D+1       -0.01907  -0.00257   0.02680  -0.00286   0.00000
 174        6D-1       -0.00187  -0.00847  -0.00017  -0.00945   0.00000
 175        6D+2       -0.00000  -0.00000  -0.00000  -0.00000   0.00170
 176        6D-2        0.00000   0.00000   0.00000   0.00000   0.00145
 177 9   C  1S         -0.00000   0.00000   0.00000   0.00000  -0.01410
 178        2S         -0.00000   0.00000   0.00000   0.00000  -0.02371
 179        2PX         0.00000  -0.00000   0.00000  -0.00000   0.00074
 180        2PY        -0.00000   0.00000   0.00000   0.00000  -0.03078
 181        2PZ         0.02876  -0.01343   0.00245  -0.00072   0.00000
 182        3S          0.00000   0.00000  -0.00000   0.00000   0.06194
 183        3PX         0.00000  -0.00000   0.00000  -0.00000   0.00122
 184        3PY         0.00000   0.00000   0.00000   0.00000  -0.04665
 185        3PZ         0.03834  -0.02049   0.00348  -0.00112   0.00000
 186        4S          0.00000  -0.00000  -0.00003  -0.00001   0.43605
 187        4PX        -0.00000   0.00000  -0.00000  -0.00000   0.00731
 188        4PY        -0.00000   0.00000   0.00001   0.00000  -0.02390
 189        4PZ         0.07626  -0.11025   0.02248   0.00010   0.00000
 190        5S          0.00000  -0.00001  -0.00011  -0.00009   0.83174
 191        5PX        -0.00001   0.00001   0.00000   0.00000  -0.14184
 192        5PY         0.00000  -0.00000  -0.00001  -0.00002  -0.46895
 193        5PZ         0.13108  -0.44208   0.07805  -0.00791   0.00000
 194        6D 0        0.00000   0.00000   0.00000  -0.00000  -0.00877
 195        6D+1        0.00120  -0.00300  -0.02476   0.01270  -0.00000
 196        6D-1       -0.01956  -0.02898   0.00255  -0.00088  -0.00000
 197        6D+2       -0.00000  -0.00000   0.00000   0.00000   0.00243
 198        6D-2        0.00000   0.00000  -0.00000   0.00000  -0.00020
 199 10  C  1S         -0.00000  -0.00000   0.00000   0.00000  -0.01073
 200        2S         -0.00000  -0.00000   0.00000   0.00000  -0.01829
 201        2PX        -0.00000  -0.00000   0.00000  -0.00000   0.00055
 202        2PY        -0.00000   0.00000   0.00000  -0.00000   0.02384
 203        2PZ         0.17288   0.01419   0.01082   0.00562   0.00000
 204        3S          0.00000  -0.00000  -0.00000  -0.00000   0.06101
 205        3PX        -0.00000  -0.00000   0.00000  -0.00000   0.00088
 206        3PY         0.00000  -0.00000  -0.00000  -0.00000   0.03340
 207        3PZ         0.28128   0.02023   0.01786   0.00888   0.00000
 208        4S         -0.00000   0.00000   0.00001   0.00000   0.06869
 209        4PX        -0.00000  -0.00000   0.00000   0.00000  -0.00291
 210        4PY         0.00000  -0.00000  -0.00000  -0.00000   0.20815
 211        4PZ         0.34968   0.06735   0.02900   0.01938   0.00000
 212        5S          0.00000  -0.00001  -0.00009  -0.00007   1.55399
 213        5PX         0.00000   0.00002  -0.00001  -0.00000  -0.13443
 214        5PY         0.00000  -0.00000  -0.00001  -0.00000   1.96310
 215        5PZ         0.09878   0.32893  -0.00367   0.03939   0.00000
 216        6D 0        0.00000  -0.00000  -0.00000  -0.00000  -0.00748
 217        6D+1       -0.00043   0.00312   0.03032   0.00768   0.00000
 218        6D-1        0.00088   0.01307  -0.00056   0.00124   0.00000
 219        6D+2       -0.00000   0.00000   0.00000  -0.00000   0.00106
 220        6D-2        0.00000   0.00000  -0.00000  -0.00000   0.00011
 221 11  C  1S         -0.00000  -0.00000   0.00000  -0.00000  -0.00584
 222        2S         -0.00000  -0.00000   0.00000  -0.00000  -0.01005
 223        2PX        -0.00000  -0.00000   0.00000  -0.00000   0.00261
 224        2PY        -0.00000  -0.00000   0.00000  -0.00000   0.00948
 225        2PZ        -0.08352  -0.09509  -0.08743   0.07002  -0.00000
 226        3S          0.00000   0.00000  -0.00000  -0.00000   0.04024
 227        3PX        -0.00000  -0.00000  -0.00000  -0.00000   0.00381
 228        3PY        -0.00000  -0.00000   0.00000  -0.00000   0.01345
 229        3PZ        -0.13458  -0.14749  -0.13698   0.11424  -0.00000
 230        4S          0.00000   0.00000   0.00000   0.00000  -0.01923
 231        4PX        -0.00000  -0.00000  -0.00001  -0.00000   0.12331
 232        4PY        -0.00000  -0.00000  -0.00001   0.00000   0.00787
 233        4PZ        -0.17469  -0.25058  -0.26963   0.18667  -0.00000
 234        5S          0.00000   0.00003   0.00015   0.00011  -3.72357
 235        5PX         0.00000  -0.00002  -0.00004  -0.00003   0.81374
 236        5PY        -0.00000  -0.00001   0.00017   0.00013  -2.25671
 237        5PZ        -0.10546   0.00839  -0.38622   0.23184  -0.00000
 238        6D 0        0.00000   0.00000   0.00000  -0.00000  -0.00770
 239        6D+1       -0.00418   0.01788  -0.00174  -0.01386  -0.00000
 240        6D-1       -0.00493  -0.01163   0.01873   0.01520   0.00000
 241        6D+2        0.00000   0.00000   0.00000  -0.00000  -0.00549
 242        6D-2       -0.00000  -0.00000   0.00000   0.00000   0.00150
 243 12  C  1S          0.00000   0.00000   0.00000   0.00000  -0.00647
 244        2S          0.00000   0.00000   0.00000   0.00000  -0.01102
 245        2PX         0.00000   0.00000   0.00000   0.00000   0.00065
 246        2PY         0.00000   0.00000   0.00000   0.00000  -0.01041
 247        2PZ        -0.01951  -0.00186   0.10448   0.04594   0.00000
 248        3S         -0.00000  -0.00000  -0.00000  -0.00000   0.03819
 249        3PX         0.00000   0.00000  -0.00000  -0.00000   0.00360
 250        3PY         0.00000   0.00000   0.00000   0.00000  -0.01438
 251        3PZ        -0.03123   0.00318   0.16452   0.07804   0.00000
 252        4S          0.00000  -0.00000   0.00000  -0.00000   0.13267
 253        4PX         0.00000   0.00000   0.00001   0.00000  -0.14642
 254        4PY         0.00000   0.00000  -0.00000   0.00000  -0.08292
 255        4PZ        -0.03957  -0.03807   0.31963   0.11525   0.00000
 256        5S          0.00000  -0.00002  -0.00023  -0.00018   5.23593
 257        5PX        -0.00000   0.00002  -0.00002  -0.00001  -0.61021
 258        5PY        -0.00000  -0.00000   0.00012   0.00009  -3.63543
 259        5PZ        -0.00187  -0.25006   0.43049   0.11284   0.00000
 260        6D 0       -0.00000  -0.00000   0.00000   0.00000  -0.00824
 261        6D+1       -0.02591   0.01374  -0.00785  -0.01471  -0.00000
 262        6D-1        0.01582   0.02543   0.01255  -0.01884   0.00000
 263        6D+2        0.00000  -0.00000  -0.00000   0.00000  -0.00450
 264        6D-2        0.00000   0.00000   0.00000   0.00000  -0.00264
 265 13  C  1S          0.00000   0.00000  -0.00000   0.00000  -0.00630
 266        2S          0.00000   0.00000  -0.00000   0.00000  -0.01084
 267        2PX        -0.00000  -0.00000   0.00000   0.00000  -0.00207
 268        2PY         0.00000   0.00000  -0.00000   0.00000   0.00980
 269        2PZ        -0.09172  -0.06645   0.10513  -0.07405   0.00000
 270        3S         -0.00000  -0.00000  -0.00000  -0.00000   0.04297
 271        3PX        -0.00000  -0.00000   0.00000   0.00000  -0.00272
 272        3PY         0.00000   0.00000  -0.00000  -0.00000   0.01444
 273        3PZ        -0.14777  -0.10295   0.16476  -0.12071   0.00000
 274        4S         -0.00000  -0.00000   0.00000  -0.00000  -0.00240
 275        4PX        -0.00000  -0.00000   0.00001   0.00000  -0.11402
 276        4PY         0.00000   0.00000  -0.00000   0.00000  -0.00139
 277        4PZ        -0.19311  -0.17252   0.31228  -0.20610   0.00000
 278        5S         -0.00001   0.00000   0.00015   0.00011  -4.03283
 279        5PX         0.00000  -0.00001   0.00005   0.00004  -1.07622
[...]
 191        5PX        -0.26919
 192        5PY         0.03754
 193        5PZ        -0.02763
 194        6D 0        0.00832
 195        6D+1        0.00843
 196        6D-1        0.01218
 197        6D+2        0.01205
 198        6D-2        0.01354
 199 10  C  1S          1.10550
 200        2S          0.88523
 201        2PX         0.24233
 202        2PY         0.24070
 203        2PZ         0.11403
 204        3S          0.80060
 205        3PX         0.55220
 206        3PY         0.55013
 207        3PZ         0.30924
 208        4S          0.41201
 209        4PX         0.15669
 210        4PY         0.34597
 211        4PZ         0.25604
 212        5S          0.03447
 213        5PX        -0.38486
 214        5PY         0.19905
 215        5PZ         0.04217
 216        6D 0        0.00298
 217        6D+1        0.01277
 218        6D-1        0.00356
 219        6D+2        0.02115
 220        6D-2        0.01516
 221 11  C  1S          1.10531
 222        2S          0.88558
 223        2PX         0.22987
 224        2PY         0.23460
 225        2PZ         0.15321
 226        3S          0.76692
 227        3PX         0.53166
 228        3PY         0.53126
 229        3PZ         0.40283
 230        4S          0.41084
 231        4PX         0.27054
 232        4PY         0.21716
 233        4PZ         0.32880
 234        5S          0.13009
 235        5PX        -0.28742
 236        5PY         0.62948
 237        5PZ         0.01500
 238        6D 0        0.00393
 239        6D+1        0.00945
 240        6D-1        0.01084
 241        6D+2        0.02093
 242        6D-2        0.02077
 243 12  C  1S          1.10520
 244        2S          0.88563
 245        2PX         0.22996
 246        2PY         0.23448
 247        2PZ         0.17448
 248        3S          0.75256
 249        3PX         0.52537
 250        3PY         0.53293
 251        3PZ         0.46053
 252        4S          0.37009
 253        4PX         0.14626
 254        4PY         0.19292
 255        4PZ         0.39590
 256        5S         -0.52894
 257        5PX        -0.46967
 258        5PY         0.30288
 259        5PZ        -0.06128
 260        6D 0        0.00446
 261        6D+1        0.00738
 262        6D-1        0.00927
 263        6D+2        0.02275
 264        6D-2        0.02265
 265 13  C  1S          1.10532
 266        2S          0.88554
 267        2PX         0.23443
 268        2PY         0.23272
 269        2PZ         0.15123
 270        3S          0.76919
 271        3PX         0.53507
 272        3PY         0.53141
 273        3PZ         0.39886
 274        4S          0.40249
 275        4PX         0.26583
 276        4PY         0.22209
 277        4PZ         0.32086
 278        5S          0.14827
 279        5PX        -0.27346
 280        5PY         0.62474
 281        5PZ         0.01277
 282        6D 0        0.00388
 283        6D+1        0.01017
 284        6D-1        0.01030
 285        6D+2        0.02191
 286        6D-2        0.02060
 287 14  C  1S          1.10521
 288        2S          0.88565
 289        2PX         0.23184
 290        2PY         0.23157
 291        2PZ         0.17387
 292        3S          0.75266
 293        3PX         0.52755
 294        3PY         0.53088
 295        3PZ         0.45894
 296        4S          0.37772
 297        4PX         0.15299
 298        4PY         0.19484
 299        4PZ         0.39659
 300        5S         -0.56488
 301        5PX        -0.46670
 302        5PY         0.30777
 303        5PZ        -0.06024
 304        6D 0        0.00447
 305        6D+1        0.00730
 306        6D-1        0.00862
 307        6D+2        0.02270
 308        6D-2        0.02235
 309 15  H  1S          0.27357
 310        2S          0.46391
 311        3S          0.03405
 312        4S         -0.03180
 313        5PX         0.00333
 314        5PY         0.01475
 315        5PZ         0.00469
 316 16  H  1S          0.27361
 317        2S          0.46280
 318        3S          0.01398
 319        4S         -0.02782
 320        5PX         0.01257
 321        5PY         0.00644
 322        5PZ         0.00390
 323 17  H  1S          0.27323
 324        2S          0.46307
 325        3S          0.02057
 326        4S         -0.02804
 327        5PX         0.01182
 328        5PY         0.00660
 329        5PZ         0.00451
 330 18  H  1S          0.27349
 331        2S          0.46501
 332        3S          0.03643
 333        4S         -0.01945
 334        5PX         0.00343
 335        5PY         0.01503
 336        5PZ         0.00449
 337 19  H  1S          0.27264
 338        2S          0.45384
 339        3S          0.01707
 340        4S          0.04244
 341        5PX         0.00338
 342        5PY         0.01638
 343        5PZ         0.00289
 344 20  H  1S          0.27364
 345        2S          0.46485
 346        3S          0.03364
 347        4S         -0.01961
 348        5PX         0.00345
 349        5PY         0.01520
 350        5PZ         0.00434
 351 21  H  1S          0.27331
 352        2S          0.46282
 353        3S          0.01879
 354        4S         -0.02905
 355        5PX         0.01218
 356        5PY         0.00638
 357        5PZ         0.00447
 358 22  H  1S          0.27333
 359        2S          0.46186
 360        3S          0.01122
 361        4S         -0.02884
 362        5PX         0.01253
 363        5PY         0.00649
 364        5PZ         0.00373
 365 23  H  1S          0.27334
 366        2S          0.46359
 367        3S          0.03192
 368        4S         -0.03110
 369        5PX         0.00337
 370        5PY         0.01494
 371        5PZ         0.00461
 372 24  H  1S          0.26358
 373        2S          0.42804
 374        3S          0.01131
 375        4S          0.02740
 376        5PX         0.00341
 377        5PY         0.00769
 378        5PZ         0.00922
 379 25  H  1S          0.26358
 380        2S          0.42804
 381        3S          0.01131
 382        4S          0.02740
 383        5PX         0.00341
 384        5PY         0.00769
 385        5PZ         0.00922
          Condensed to atoms (all electrons):
               1          2          3          4          5          6
     1  C    8.689388   0.178758  -0.466194   2.065962  -0.053465  -0.098385
     2  C    0.178758   7.133799   0.277018  -1.110567  -0.000002  -0.013752
     3  C   -0.466194   0.277018   6.567663   0.810138  -0.130808   0.016353
     4  C    2.065962  -1.110567   0.810138  10.656643  -0.373205  -0.115512
     5  C   -0.053465  -0.000002  -0.130808  -0.373205  11.313886   0.754640
     6  C   -0.098385  -0.013752   0.016353  -0.115512   0.754640   6.584872
     7  C   -0.009364   0.000482  -0.013734  -0.025330  -1.073666   0.392066
     8  C    0.398942  -0.021007  -0.089045  -0.025544   1.891966  -0.570133
     9  C   -1.120982  -0.780618   0.298777  -0.298137  -0.064171   0.290569
    10  C   -1.309543   0.299277  -0.398081  -2.453577  -2.636881  -0.307698
    11  C    0.313877  -0.969664   1.086154  -0.222665  -1.529676  -0.208612
    12  C   -2.292862   1.544320  -1.452380  -1.585531  -0.423519  -0.147108
    13  C    0.234569  -0.278375  -0.126709  -1.411106  -0.378718   0.913173
    14  C   -1.026053  -0.131867  -0.252660  -0.256711  -1.664170  -1.369979
    15  H    0.368654  -0.108043   0.000990   0.028018   0.005114   0.001039
    16  H   -0.018279   0.377299  -0.016075   0.011760  -0.001437  -0.000313
    17  H   -0.028963  -0.012494   0.371052  -0.066182   0.000361   0.000392
    18  H    0.050976   0.003285  -0.084067   0.450851   0.005921  -0.005105
    19  H   -0.046663  -0.008092   0.051528  -0.060220  -0.075901   0.049845
    20  H    0.007042   0.002068  -0.005055   0.005792   0.462718  -0.084502
    21  H   -0.001322  -0.000381   0.000395   0.000245  -0.067329   0.377383
    22  H    0.000911   0.000378  -0.000329  -0.001557   0.014764  -0.019489
    23  H    0.005094  -0.002750   0.001113   0.005930   0.027173  -0.002057
    24  H    0.030739   0.013591  -0.001638  -0.012096  -0.011776  -0.001527
    25  H    0.030738   0.013590  -0.001638  -0.012094  -0.011778  -0.001527
               7          8          9         10         11         12
     1  C   -0.009364   0.398942  -1.120982  -1.309543   0.313877  -2.292862
     2  C    0.000482  -0.021007  -0.780618   0.299277  -0.969664   1.544320
     3  C   -0.013734  -0.089045   0.298777  -0.398081   1.086154  -1.452380
     4  C   -0.025330  -0.025544  -0.298137  -2.453577  -0.222665  -1.585531
     5  C   -1.073666   1.891966  -0.064171  -2.636881  -1.529676  -0.423519
     6  C    0.392066  -0.570133   0.290569  -0.307698  -0.208612  -0.147108
     7  C    7.150680   0.376436  -0.843154   0.215170  -0.220758  -0.232802
     8  C    0.376436   8.438622  -1.098331  -1.231049   0.225838  -1.119292
     9  C   -0.843154  -1.098331   9.541312   0.240478   1.525953  -1.776982
    10  C    0.215170  -1.231049   0.240478   9.063559  -0.487476   2.420414
    11  C   -0.220758   0.225838   1.525953  -0.487476  14.219196  -3.551450
    12  C   -0.232802  -1.119292  -1.776982   2.420414  -3.551450  15.845225
    13  C   -0.817526   0.324219   1.548312  -0.320038   1.074383  -4.796311
    14  C    1.224394  -1.994697  -2.035017   2.364320  -4.672209   3.094448
    15  H   -0.002458   0.005996   0.091594  -0.010425  -0.029585  -0.031539
    16  H    0.000340   0.000588   0.003404  -0.008642   0.024959  -0.031236
    17  H   -0.000395  -0.001278  -0.006033   0.020520  -0.029009   0.096141
    18  H    0.002024   0.006879  -0.025231   0.015404  -0.005719  -0.058197
    19  H   -0.007382  -0.044456   0.073472   0.420065   0.078867  -0.050981
    20  H    0.003186   0.048720  -0.023049   0.009914  -0.011778  -0.018930
    21  H   -0.020654  -0.021867  -0.005087   0.019486  -0.006211   0.005170
    22  H    0.379524  -0.019083   0.003303  -0.009411   0.003337  -0.009680
    23  H   -0.106432   0.367658   0.090173  -0.008978  -0.000816   0.007346
    24  H    0.015094   0.035322   0.355645   0.005153   0.007359  -0.059224
    25  H    0.015093   0.035318   0.355647   0.005153   0.007356  -0.059224
              13         14         15         16         17         18
     1  C    0.234569  -1.026053   0.368654  -0.018279  -0.028963   0.050976
     2  C   -0.278375  -0.131867  -0.108043   0.377299  -0.012494   0.003285
     3  C   -0.126709  -0.252660   0.000990  -0.016075   0.371052  -0.084067
     4  C   -1.411106  -0.256711   0.028018   0.011760  -0.066182   0.450851
     5  C   -0.378718  -1.664170   0.005114  -0.001437   0.000361   0.005921
     6  C    0.913173  -1.369979   0.001039  -0.000313   0.000392  -0.005105
     7  C   -0.817526   1.224394  -0.002458   0.000340  -0.000395   0.002024
     8  C    0.324219  -1.994697   0.005996   0.000588  -0.001278   0.006879
     9  C    1.548312  -2.035017   0.091594   0.003404  -0.006033  -0.025231
    10  C   -0.320038   2.364320  -0.010425  -0.008642   0.020520   0.015404
    11  C    1.074383  -4.672209  -0.029585   0.024959  -0.029009  -0.005719
    12  C   -4.796311   3.094448  -0.031539  -0.031236   0.096141  -0.058197
    13  C   14.458586  -3.853951   0.004734   0.002625  -0.006212  -0.011596
    14  C   -3.853951  16.096804   0.005523  -0.008193   0.005050  -0.009199
    15  H    0.004734   0.005523   0.441588  -0.009113   0.001414   0.000112
    16  H    0.002625  -0.008193  -0.009113   0.421613  -0.006351   0.001884
    17  H   -0.006212   0.005050   0.001414  -0.006351   0.422988  -0.010131
    18  H   -0.011596  -0.009199   0.000112   0.001884  -0.010131   0.455340
    19  H    0.074838  -0.079362   0.000269  -0.000521   0.001294  -0.006402
    20  H   -0.008901  -0.050025  -0.000106   0.000013  -0.000132   0.001252
    21  H   -0.023975   0.086126   0.000012  -0.000007   0.000010  -0.000151
    22  H    0.026601  -0.032819  -0.000126   0.000007  -0.000007   0.000017
    23  H   -0.031690  -0.018818   0.000561  -0.000124   0.000015  -0.000113
    24  H    0.018637  -0.059627  -0.000859   0.000638  -0.000143   0.000200
    25  H    0.018639  -0.059622  -0.000859   0.000638  -0.000143   0.000200
              19         20         21         22         23         24
     1  C   -0.046663   0.007042  -0.001322   0.000911   0.005094   0.030739
     2  C   -0.008092   0.002068  -0.000381   0.000378  -0.002750   0.013591
     3  C    0.051528  -0.005055   0.000395  -0.000329   0.001113  -0.001638
     4  C   -0.060220   0.005792   0.000245  -0.001557   0.005930  -0.012096
     5  C   -0.075901   0.462718  -0.067329   0.014764   0.027173  -0.011776
     6  C    0.049845  -0.084502   0.377383  -0.019489  -0.002057  -0.001527
     7  C   -0.007382   0.003186  -0.020654   0.379524  -0.106432   0.015094
     8  C   -0.044456   0.048720  -0.021867  -0.019083   0.367658   0.035322
     9  C    0.073472  -0.023049  -0.005087   0.003303   0.090173   0.355645
    10  C    0.420065   0.009914   0.019486  -0.009411  -0.008978   0.005153
    11  C    0.078867  -0.011778  -0.006211   0.003337  -0.000816   0.007359
    12  C   -0.050981  -0.018930   0.005170  -0.009680   0.007346  -0.059224
    13  C    0.074838  -0.008901  -0.023975   0.026601  -0.031690   0.018637
    14  C   -0.079362  -0.050025   0.086126  -0.032819  -0.018818  -0.059627
    15  H    0.000269  -0.000106   0.000012  -0.000126   0.000561  -0.000859
    16  H   -0.000521   0.000013  -0.000007   0.000007  -0.000124   0.000638
    17  H    0.001294  -0.000132   0.000010  -0.000007   0.000015  -0.000143
    18  H   -0.006402   0.001252  -0.000151   0.000017  -0.000113   0.000200
    19  H    0.442021  -0.006020   0.001518  -0.000540   0.000339   0.000565
    20  H   -0.006020   0.451060  -0.010242   0.001942   0.000226   0.000162
    21  H    0.001518  -0.010242   0.421185  -0.006646   0.001509  -0.000137
    22  H   -0.000540   0.001942  -0.006646   0.416821  -0.008858   0.000627
    23  H    0.000339   0.000226   0.001509  -0.008858   0.436069  -0.000958
    24  H    0.000565   0.000162  -0.000137   0.000627  -0.000958   0.493414
    25  H    0.000565   0.000162  -0.000137   0.000627  -0.000957  -0.078492
              25
     1  C    0.030738
     2  C    0.013590
     3  C   -0.001638
     4  C   -0.012094
     5  C   -0.011778
     6  C   -0.001527
     7  C    0.015093
     8  C    0.035318
     9  C    0.355647
    10  C    0.005153
    11  C    0.007356
    12  C   -0.059224
    13  C    0.018639
    14  C   -0.059622
    15  H   -0.000859
    16  H    0.000638
    17  H   -0.000143
    18  H    0.000200
    19  H    0.000565
    20  H    0.000162
    21  H   -0.000137
    22  H    0.000627
    23  H   -0.000957
    24  H   -0.078492
    25  H    0.493413
 Mulliken charges:
               1
     1  C    0.096425
     2  C   -0.406254
     3  C   -0.442770
     4  C   -0.005305
     5  C    0.019959
     6  C   -0.434633
     7  C   -0.400834
     8  C    0.079277
     9  C   -0.341845
    10  C    0.082885
    11  C   -0.621653
    12  C    0.684183
    13  C   -0.634207
    14  C    0.698315
    15  H    0.237495
    16  H    0.254522
    17  H    0.248237
    18  H    0.221567
    19  H    0.191355
    20  H    0.224483
    21  H    0.251105
    22  H    0.259686
    23  H    0.239345
    24  H    0.249332
    25  H    0.249331
 Sum of Mulliken charges =   1.00000
 Mulliken charges with hydrogens summed into heavy atoms:
               1
     1  C    0.333920
     2  C   -0.151732
     3  C   -0.194533
     4  C    0.216262
     5  C    0.244442
     6  C   -0.183528
     7  C   -0.141148
     8  C    0.318622
     9  C    0.156818
    10  C    0.274240
    11  C   -0.621653
    12  C    0.684183
    13  C   -0.634207
    14  C    0.698315
 Electronic spatial extent (au):  <R**2>=           2868.8241
 Charge=              1.0000 electrons
 Dipole moment (field-independent basis, Debye):
    X=             -0.5431    Y=              0.1922    Z=              0.0000  Tot=              0.5761
 Quadrupole moment (field-independent basis, Debye-Ang):
   XX=            -30.8562   YY=            -56.1823   ZZ=            -84.2753
   XY=             -0.0446   XZ=             -0.0001   YZ=             -0.0000
 Traceless Quadrupole moment (field-independent basis, Debye-Ang):
   XX=             26.2484   YY=              0.9223   ZZ=            -27.1707
   XY=             -0.0446   XZ=             -0.0001   YZ=             -0.0000
 Octapole moment (field-independent basis, Debye-Ang**2):
  XXX=             -6.0409  YYY=              5.3798  ZZZ=              0.0000  XYY=             -1.2719
  XXY=             -5.2314  XXZ=             -0.0000  XZZ=             -0.7889  YZZ=             -3.1409
  YYZ=              0.0000  XYZ=              0.0001
 Hexadecapole moment (field-independent basis, Debye-Ang**3):
 XXXX=          -2127.6481 YYYY=           -611.7392 ZZZZ=            -99.7051 XXXY=              1.2441
 XXXZ=              0.0002 YYYX=             -0.5010 YYYZ=             -0.0000 ZZZX=              0.0001
 ZZZY=             -0.0000 XXYY=           -509.3148 XXZZ=           -594.4404 YYZZ=           -146.4999
 XXYZ=              0.0000 YYXZ=             -0.0003 ZZXY=             -0.2528
 N-N= 7.793163466993D+02 E-N=-2.794861300813D+03  KE= 5.373443883249D+02
 Orbital energies and kinetic energies (alpha):
                                 1                 2
  43         O                -0.546383          1.590589
  44         O                -0.523300          1.038036
  45         O                -0.467454          1.124318
  46         O                -0.460197          1.152400
  47         O                -0.442502          1.162087
  48         V                -0.261114          1.267077
  49         V                -0.147140          1.099144
  50         V                -0.141355          1.317554
  51         V                -0.128380          1.281321
  52         V                -0.111699          0.204294
 Total kinetic energy from orbitals= 5.373443883249D+02
 Unable to Open any file for archive entry.
 1\1\GINC-GADI-CPU-CLX-1686\SP\RM062X TD-FC\6-311++G(d,p)\C14H11(1+)\TS
 1578\14-Jul-2022\0\\#n M062X/6-311++G(d,p) TD SP pop=reg formcheck\\SP
 _6\\1,1\C,0,2.5096307468,1.3729231022,0.\C,0,3.7218393599,0.6871025359
 ,0.\C,0,3.6989013131,-0.6969540706,0.\C,0,2.4556765162,-1.3975428108,0
 .\C,0,-2.4821434838,-1.4077602913,0.\C,0,-3.6862217891,-0.7174505827,0
 .\C,0,-3.6982037423,0.6776236684,0.\C,0,-2.4876570086,1.3726768978,0.\
 C,0,0.0051087403,1.4671108576,0.\C,0,-0.0192654904,-1.4245915511,0.\C,
 0,1.2582186869,0.6796361141,0.\C,0,1.2356974641,-0.7221674272,0.\C,0,-
 1.2710828642,0.6948392327,0.\C,0,-1.2453609848,-0.7248141239,0.\H,0,2.
 4984668609,2.4584377554,0.\H,0,4.6585269512,1.2273616783,0.\H,0,4.6211
 525728,-1.2654205293,0.\H,0,2.4670655847,-2.4826136684,0.\H,0,-0.01643
 41403,-2.5076931022,0.\H,0,-2.4801144153,-2.4920925359,0.\H,0,-4.61869
 05293,-1.2678825728,0.\H,0,-4.6359377021,1.2186214239,0.\H,0,-2.491573
 1391,2.4578837957,0.\H,0,0.0283750513,2.1566184489,-0.8639546533\H,0,0
 .0284366024,2.1566184489,0.8639546533\\Version=ES64L-G16RevC.01\State=
 1-A\HF=-539.7574212\RMSD=7.405e-09\PG=C01 [X(C14H11)]\\@
 The archive entry for this job was punched.


 EVANS BOLDLY PUT 50 ATM. OF ETHYLENE IN A CELL WITH 25 ATM. OF OXYGEN.
 THE APPARATUS SUBSEQUENTLY BLEW UP, BUT LUCKILY NOT BEFORE HE
 OBTAINED THE SPECTRA SHOWN IN FIGURE 8.
 A.J.MERER AND R.S.MULLIKEN, CHEM.REV. 69, 645 (1969)
 FChkPn:  Coordinates translated and rotated.
 FChkPn:  Coordinates match /B/ after translation and rotation.
 Job cpu time:       0 days  1 hours 12 minutes 34.9 seconds.
 Elapsed time:       0 days  0 hours 10 minutes  1.6 seconds.
 File lengths (MBytes):  RWF=    532 Int=      0 D2E=      0 Chk=     24 Scr=      1
 Normal termination of Gaussian 16 at Thu Jul 14 13:38:27 2022.
