 Entering Gaussian System, Link 0=g16
 Initial command:
 /apps/gaussian/g16c01/g16/l1.exe "/jobfs/51125639.gadi-pbs/Gau-151650.inp" -scrdir="/jobfs/51125639.gadi-pbs/"
 Entering Link 1 = /apps/gaussian/g16c01/g16/l1.exe PID=    151651.
  
 Copyright (c) 1988-2019, Gaussian, Inc.  All Rights Reserved.
  
 This is part of the Gaussian(R) 16 program.  It is based on
 the Gaussian(R) 09 system (copyright 2009, Gaussian, Inc.),
 the Gaussian(R) 03 system (copyright 2003, Gaussian, Inc.),
 the Gaussian(R) 98 system (copyright 1998, Gaussian, Inc.),
 the Gaussian(R) 94 system (copyright 1995, Gaussian, Inc.),
 the Gaussian 92(TM) system (copyright 1992, Gaussian, Inc.),
 the Gaussian 90(TM) system (copyright 1990, Gaussian, Inc.),
 the Gaussian 88(TM) system (copyright 1988, Gaussian, Inc.),
 the Gaussian 86(TM) system (copyright 1986, Carnegie Mellon
 University), and the Gaussian 82(TM) system (copyright 1983,
 Carnegie Mellon University). Gaussian is a federally registered
 trademark of Gaussian, Inc.
  
 This software contains proprietary and confidential information,
 including trade secrets, belonging to Gaussian, Inc.
  
 This software is provided under written license and may be
 used, copied, transmitted, or stored only in accord with that
 written license.
  
 The following legend is applicable only to US Government
 contracts under FAR:
  
                    RESTRICTED RIGHTS LEGEND
  
 Use, reproduction and disclosure by the US Government is
 subject to restrictions as set forth in subparagraphs (a)
 and (c) of the Commercial Computer Software - Restricted
 Rights clause in FAR 52.227-19.
  
 Gaussian, Inc.
 340 Quinnipiac St., Bldg. 40, Wallingford CT 06492
  
  
 ---------------------------------------------------------------
 Warning -- This program may not be used in any manner that
 competes with the business of Gaussian, Inc. or will provide
 assistance to any competitor of Gaussian, Inc.  The licensee
 of this program is prohibited from giving any competitor of
 Gaussian, Inc. access to this program.  By using this program,
 the user acknowledges that Gaussian, Inc. is engaged in the
 business of creating and licensing software in the field of
 computational chemistry and represents and warrants to the
 licensee that it is not a competitor of Gaussian, Inc. and that
 it will not use this program in any manner prohibited above.
 ---------------------------------------------------------------
  

 Cite this work as:
 Gaussian 16, Revision C.01,
 M. J. Frisch, G. W. Trucks, H. B. Schlegel, G. E. Scuseria, 
 M. A. Robb, J. R. Cheeseman, G. Scalmani, V. Barone, 
 G. A. Petersson, H. Nakatsuji, X. Li, M. Caricato, A. V. Marenich, 
 J. Bloino, B. G. Janesko, R. Gomperts, B. Mennucci, H. P. Hratchian, 
 J. V. Ortiz, A. F. Izmaylov, J. L. Sonnenberg, D. Williams-Young, 
 F. Ding, F. Lipparini, F. Egidi, J. Goings, B. Peng, A. Petrone, 
 T. Henderson, D. Ranasinghe, V. G. Zakrzewski, J. Gao, N. Rega, 
 G. Zheng, W. Liang, M. Hada, M. Ehara, K. Toyota, R. Fukuda, 
 J. Hasegawa, M. Ishida, T. Nakajima, Y. Honda, O. Kitao, H. Nakai, 
 T. Vreven, K. Throssell, J. A. Montgomery, Jr., J. E. Peralta, 
 F. Ogliaro, M. J. Bearpark, J. J. Heyd, E. N. Brothers, K. N. Kudin, 
 V. N. Staroverov, T. A. Keith, R. Kobayashi, J. Normand, 
 K. Raghavachari, A. P. Rendell, J. C. Burant, S. S. Iyengar, 
 J. Tomasi, M. Cossi, J. M. Millam, M. Klene, C. Adamo, R. Cammi, 
 J. W. Ochterski, R. L. Martin, K. Morokuma, O. Farkas, 
 J. B. Foresman, and D. J. Fox, Gaussian, Inc., Wallingford CT, 2019.
 
 ******************************************
 Gaussian 16:  ES64L-G16RevC.01  3-Jul-2019
                14-Jul-2022 
 ******************************************
 %NProcShared=8
 Will use up to    8 processors via shared memory.
 %mem = 32GB
 %Chk=check_sp_11
 ----------------------------------------------
 #n M062X/6-311++G(d,p) TD SP pop=reg formcheck
 ----------------------------------------------
 1/38=1,172=1/1;
 2/12=2,17=6,18=5,40=1/2;
 3/5=4,6=6,7=1111,11=9,25=1,30=1,74=-55/1,2,3,8;
 4//1;
 5/5=2,38=5/2;
 8/6=1,10=2/1;
 9/42=1,70=2/14;
 6//1;
 99/5=1,9=1/99;
 -----
 SP_11
 -----
 Symbolic Z-matrix:
 Charge =  1 Multiplicity = 1
 C                     2.51891   1.37303   0. 
 C                     3.73174   0.69115   0. 
 C                     3.70424  -0.68849   0. 
 C                     2.44465  -1.39334   0. 
 C                    -2.49317  -1.41207   0. 
 C                    -3.68099  -0.72607   0. 
 C                    -3.68841   0.67378   0. 
 C                    -2.47863   1.37257   0. 
 C                     0.00937   1.46747   0. 
 C                    -0.03532  -1.42464   0. 
 C                     1.25288   0.67322   0. 
 C                     1.23165  -0.72109   0. 
 C                    -1.27647   0.7011    0. 
 C                    -1.24936  -0.72594   0. 
 H                     2.50134   2.45869   0. 
 H                     4.66802   1.23105   0. 
 H                     4.62223  -1.26445   0. 
 H                     2.46163  -2.47877   0. 
 H                    -0.03013  -2.5078    0. 
 H                    -2.48555  -2.49614   0. 
 H                    -4.61772  -1.26896   0. 
 H                    -4.6266    1.21503   0. 
 H                    -2.4887    2.45768   0. 
 H                     0.05202   2.15657  -0.86411 
 H                     0.05213   2.15657   0.86411 
 
                          Input orientation:                          
 ---------------------------------------------------------------------
 Center     Atomic      Atomic             Coordinates (Angstroms)
 Number     Number       Type             X           Y           Z
 ---------------------------------------------------------------------
      1          6           0        2.518915    1.373026    0.000000
      2          6           0        3.731739    0.691155    0.000000
      3          6           0        3.704236   -0.688491    0.000000
      4          6           0        2.444649   -1.393337    0.000000
      5          6           0       -2.493171   -1.412069    0.000000
      6          6           0       -3.680990   -0.726068    0.000000
      7          6           0       -3.688407    0.673777    0.000000
      8          6           0       -2.478630    1.372574    0.000000
      9          6           0        0.009366    1.467470    0.000000
     10          6           0       -0.035320   -1.424643    0.000000
     11          6           0        1.252884    0.673225    0.000000
     12          6           0        1.231645   -0.721090    0.000000
     13          6           0       -1.276469    0.701097    0.000000
     14          6           0       -1.249362   -0.725943    0.000000
     15          1           0        2.501339    2.458694    0.000000
     16          1           0        4.668016    1.231055    0.000000
     17          1           0        4.622230   -1.264446    0.000000
     18          1           0        2.461629   -2.478767    0.000000
     19          1           0       -0.030129   -2.507796    0.000000
     20          1           0       -2.485551   -2.496145    0.000000
     21          1           0       -4.617716   -1.268960    0.000000
     22          1           0       -4.626602    1.215031    0.000000
     23          1           0       -2.488701    2.457679    0.000000
     24          1           0        0.052021    2.156567   -0.864109
     25          1           0        0.052134    2.156567    0.864109
 ---------------------------------------------------------------------
                    Distance matrix (angstroms):
                    1          2          3          4          5
     1  C    0.000000
     2  C    1.391363   0.000000
     3  C    2.377990   1.379920   0.000000
     4  C    2.767359   2.449838   1.443388   0.000000
     5  C    5.733913   6.570621   6.239505   4.937856   0.000000
     6  C    6.545610   7.546991   7.385321   6.161874   1.371682
     7  C    6.246582   7.420166   7.517110   6.472042   2.404026
     8  C    4.997544   6.247640   6.517347   5.647029   2.784681
     9  C    2.511325   3.802463   4.277877   3.756969   3.815028
    10  C    3.788280   4.320571   3.811325   2.480166   2.457883
    11  C    1.446567   2.478919   2.804174   2.385577   4.287351
    12  C    2.458126   2.871394   2.472805   1.386828   3.788365
    13  C    3.854403   5.008217   5.170916   4.270055   2.438408
    14  C    4.313418   5.178757   4.953739   3.753815   1.420504
    15  H    1.085811   2.153620   3.369233   3.852448   6.318856
    16  H    2.153786   1.080790   2.147912   3.439592   7.633394
    17  H    3.373454   2.148801   1.083715   2.181392   7.116932
    18  H    3.852218   3.414906   2.179257   1.085563   5.068322
    19  H    4.643102   4.938110   4.153956   2.714138   2.695773
    20  H    6.325754   6.986671   6.448339   5.052035   1.084103
    21  H    7.609966   8.576447   8.342171   7.063460   2.129359
    22  H    7.147264   8.374743   8.545540   7.536987   3.384255
    23  H    5.123737   6.466411   6.946283   6.258455   3.869750
    24  H    2.728770   4.053941   4.709534   4.367284   4.467645
    25  H    2.728668   4.053839   4.709447   4.367222   4.467709
                    6          7          8          9         10
     6  C    0.000000
     7  C    1.399864   0.000000
     8  C    2.418671   1.397097   0.000000
     9  C    4.293057   3.781993   2.489805   0.000000
    10  C    3.711996   4.212886   3.714052   2.892458   0.000000
    11  C    5.128463   4.941291   3.796483   1.475521   2.461812
    12  C    4.912638   5.113958   4.260231   2.506743   1.449202
    13  C    2.796162   2.412093   1.376980   1.496896   2.461548
    14  C    2.431628   2.812144   2.432051   2.528923   1.400742
    15  H    6.954416   6.441963   5.097033   2.681875   4.638421
    16  H    8.575327   8.374984   7.148047   4.664645   5.401305
    17  H    8.320655   8.533662   7.574700   5.361145   4.660304
    18  H    6.387779   6.910967   6.264102   4.646114   2.710338
    19  H    4.062430   4.848237   4.588292   3.975462   1.083165
    20  H    2.135941   3.390466   3.868725   4.683466   2.674276
    21  H    1.082676   2.153565   3.399028   5.375680   4.585040
    22  H    2.159177   1.083128   2.153743   4.642836   5.296013
    23  H    3.399676   2.149791   1.085151   2.687164   4.592548
    24  H    4.794960   4.115356   2.786668   1.106055   3.685021
    25  H    4.795047   4.115458   2.786771   1.106060   3.685023
                   11         12         13         14         15
    11  C    0.000000
    12  C    1.394477   0.000000
    13  C    2.529506   2.883271   0.000000
    14  C    2.866863   2.481012   1.427297   0.000000
    15  H    2.178656   3.423909   4.166651   4.920332   0.000000
    16  H    3.460390   3.952153   5.968061   6.232592   2.490299
    17  H    3.886780   3.433846   6.217556   5.896234   4.284851
    18  H    3.375813   2.145294   4.907637   4.104125   4.937621
    19  H    3.430017   2.187325   3.442434   2.159057   5.574438
    20  H    4.901102   4.119268   3.418221   2.159116   7.029901
    21  H    6.183529   5.874963   3.878796   3.411844   8.035941
    22  H    5.904398   6.169897   3.389325   3.895271   7.235624
    23  H    4.145327   4.893419   2.134265   3.416344   4.990040
    24  H    2.095009   3.227865   2.151735   3.278589   2.614790
    25  H    2.094944   3.227823   2.151804   3.278633   2.614684
                   16         17         18         19         20
    16  H    0.000000
    17  H    2.495921   0.000000
    18  H    4.316355   2.478462   0.000000
    19  H    6.004296   4.815637   2.491927   0.000000
    20  H    8.066322   7.213712   4.947211   2.455450   0.000000
    21  H    9.616387   9.239947   7.181974   4.751912   2.460103
    22  H    9.294632   9.575422   7.992944   5.914981   4.284498
    23  H    7.261074   8.026179   6.991012   5.540804   4.953824
    24  H    4.786509   5.773805   5.295207   4.744440   5.369701
    25  H    4.786400   5.773716   5.295155   4.744442   5.369754
                   21         22         23         24         25
    21  H    0.000000
    22  H    2.484007   0.000000
    23  H    4.291916   2.472812   0.000000
    24  H    5.855541   4.850020   2.700485   0.000000
    25  H    5.855631   4.850129   2.700591   1.728217   0.000000
 Stoichiometry    C14H11(1+)
 Framework group  C1[X(C14H11)]
 Deg. of freedom    69
 Full point group                 C1      NOp   1
 Largest Abelian subgroup         C1      NOp   1
 Largest concise Abelian subgroup C1      NOp   1
                         Standard orientation:                         
 ---------------------------------------------------------------------
 Center     Atomic      Atomic             Coordinates (Angstroms)
 Number     Number       Type             X           Y           Z
 ---------------------------------------------------------------------
      1          6           0        2.526985   -1.348267    0.000000
      2          6           0        3.735435   -0.658674    0.000000
      3          6           0        3.699133    0.720768    0.000000
      4          6           0        2.435076    1.417566    0.000000
      5          6           0       -2.502763    1.404804    0.000000
      6          6           0       -3.686182    0.711241    0.000000
      7          6           0       -3.684671   -0.688623    0.000000
      8          6           0       -2.470461   -1.379690    0.000000
      9          6           0        0.018089   -1.458715    0.000000
     10          6           0       -0.045042    1.433054    0.000000
     11          6           0        1.256517   -0.656554    0.000000
     12          6           0        1.226385    0.737597    0.000000
     13          6           0       -1.272607   -0.700559    0.000000
     14          6           0       -1.254603    0.726625    0.000000
     15          1           0        2.516334   -2.434025    0.000000
     16          1           0        4.675137   -1.192591    0.000000
     17          1           0        4.613435    1.302567    0.000000
     18          1           0        2.445133    2.503082    0.000000
     19          1           0       -0.046760    2.516218    0.000000
     20          1           0       -2.502058    2.488906    0.000000
     21          1           0       -4.626352    1.248147    0.000000
     22          1           0       -4.619395   -1.235850    0.000000
     23          1           0       -2.473611   -2.464836    0.000000
     24          1           0        0.065139   -2.147526    0.864109
     25          1           0        0.065251   -2.147525   -0.864109
 ---------------------------------------------------------------------
 Rotational constants (GHZ):           2.1249591           0.4424971           0.3670340
 Standard basis: 6-311++G(d,p) (5D, 7F)
 There are   399 symmetry adapted cartesian basis functions of A   symmetry.
 There are   385 symmetry adapted basis functions of A   symmetry.
   385 basis functions,   603 primitive gaussians,   399 cartesian basis functions
    47 alpha electrons       47 beta electrons
       nuclear repulsion energy       779.3291858673 Hartrees.
 NAtoms=   25 NActive=   25 NUniq=   25 SFac= 1.00D+00 NAtFMM=   60 NAOKFM=F Big=F
 Integral buffers will be    131072 words long.
 Regular integral format.
 Two-electron integral symmetry is turned on.
 One-electron integrals computed using PRISM.
 NBasis=   385 RedAO= T EigKep=  1.15D-06  NBF=   385
 NBsUse=   379 1.00D-06 EigRej=  8.65D-07 NBFU=   379
 ExpMin= 3.60D-02 ExpMax= 4.56D+03 ExpMxC= 6.82D+02 IAcc=3 IRadAn=         5 AccDes= 0.00D+00
 Harris functional with IExCor= 1009 and IRadAn=       5 diagonalized for initial guess.
 HarFok:  IExCor= 1009 AccDes= 0.00D+00 IRadAn=         5 IDoV= 1 UseB2=F ITyADJ=14
 ICtDFT=  3500011 ScaDFX=  1.000000  1.000000  1.000000  1.000000
 FoFCou: FMM=F IPFlag=           0 FMFlag=      100000 FMFlg1=           0
         NFxFlg=           0 DoJE=T BraDBF=F KetDBF=T FulRan=T
         wScrn=  0.000000 ICntrl=       500 IOpCl=  0 I1Cent=   200000004 NGrid=           0
         NMat0=    1 NMatS0=      1 NMatT0=    0 NMatD0=    1 NMtDS0=    0 NMtDT0=    0
 Petite list used in FoFCou.
 Requested convergence on RMS density matrix=1.00D-08 within 128 cycles.
 Requested convergence on MAX density matrix=1.00D-06.
 Requested convergence on             energy=1.00D-06.
 No special actions if energy rises.
 SCF Done:  E(RM062X) =  -539.753652069     A.U. after   15 cycles
            NFock= 15  Conv=0.95D-08     -V/T= 2.0045
 DoSCS=F DFT=T ScalE2(SS,OS)=  1.000000  1.000000
 ExpMin= 3.60D-02 ExpMax= 4.56D+03 ExpMxC= 6.82D+02 IAcc=3 IRadAn=         5 AccDes= 0.00D+00
 HarFok:  IExCor=  205 AccDes= 0.00D+00 IRadAn=         5 IDoV=-2 UseB2=F ITyADJ=14
 ICtDFT= 12500011 ScaDFX=  1.000000  1.000000  1.000000  1.000000
 Range of M.O.s used for correlation:    15   379
 NBasis=   385 NAE=    47 NBE=    47 NFC=    14 NFV=     0
 NROrb=    365 NOA=    33 NOB=    33 NVA=   332 NVB=   332

 **** Warning!!: The largest alpha MO coefficient is  0.13781476D+03

 Orbital symmetries:
       Occupied  (A) (A) (A) (A) (A) (A) (A) (A) (A) (A) (A) (A)
                 (A) (A) (A) (A) (A) (A) (A) (A) (A) (A) (A) (A)
                 (A) (A) (A) (A) (A) (A) (A) (A) (A) (A) (A) (A)
                 (A) (A) (A) (A) (A) (A) (A) (A) (A) (A) (A)
       Virtual   (A) (A) (A) (A) (A) (A) (A) (A) (A) (A) (A) (A)
                 (A) (A) (A) (A) (A) (A) (A) (A) (A) (A) (A) (A)
                 (A) (A) (A) (A) (A) (A) (A) (A) (A) (A) (A) (A)
                 (A) (A) (A) (A) (A) (A) (A) (A) (A) (A) (A) (A)
                 (A) (A) (A) (A) (A) (A) (A) (A) (A) (A) (A) (A)
                 (A) (A) (A) (A) (A) (A) (A) (A) (A) (A) (A) (A)
                 (A) (A) (A) (A) (A) (A) (A) (A) (A) (A) (A) (A)
                 (A) (A) (A) (A) (A) (A) (A) (A) (A) (A) (A) (A)
                 (A) (A) (A) (A) (A) (A) (A) (A) (A) (A) (A) (A)
                 (A) (A) (A) (A) (A) (A) (A) (A) (A) (A) (A) (A)
                 (A) (A) (A) (A) (A) (A) (A) (A) (A) (A) (A) (A)
                 (A) (A) (A) (A) (A) (A) (A) (A) (A) (A) (A) (A)
                 (A) (A) (A) (A) (A) (A) (A) (A) (A) (A) (A) (A)
                 (A) (A) (A) (A) (A) (A) (A) (A) (A) (A) (A) (A)
                 (A) (A) (A) (A) (A) (A) (A) (A) (A) (A) (A) (A)
                 (A) (A) (A) (A) (A) (A) (A) (A) (A) (A) (A) (A)
                 (A) (A) (A) (A) (A) (A) (A) (A) (A) (A) (A) (A)
                 (A) (A) (A) (A) (A) (A) (A) (A) (A) (A) (A) (A)
                 (A) (A) (A) (A) (A) (A) (A) (A) (A) (A) (A) (A)
                 (A) (A) (A) (A) (A) (A) (A) (A) (A) (A) (A) (A)
                 (A) (A) (A) (A) (A) (A) (A) (A) (A) (A) (A) (A)
                 (A) (A) (A) (A) (A) (A) (A) (A) (A) (A) (A) (A)
                 (A) (A) (A) (A) (A) (A) (A) (A) (A) (A) (A) (A)
                 (A) (A) (A) (A) (A) (A) (A) (A) (A) (A) (A) (A)
                 (A) (A) (A) (A) (A) (A) (A) (A) (A) (A) (A) (A)
                 (A) (A) (A) (A) (A) (A) (A) (A) (A) (A) (A) (A)
                 (A) (A) (A) (A) (A) (A) (A) (A) (A) (A) (A) (A)
                 (A) (A) (A) (A) (A) (A) (A) (A)
    12 initial guesses have been made.
 Convergence on wavefunction:    0.001000000000000
 Iteration     1 Dimension    12 NMult     0 NNew     12
 CISAX will form    12 AO SS matrices at one time.
 New state      2 was old state      3
 New state      3 was old state      2
 Iteration     2 Dimension    18 NMult    12 NNew      6
 Iteration     3 Dimension    24 NMult    18 NNew      6
 Iteration     4 Dimension    30 NMult    24 NNew      6
 Iteration     5 Dimension    36 NMult    30 NNew      6
 Iteration     6 Dimension    42 NMult    36 NNew      6
 ***********************************************************************
 Excited states from <AA,BB:AA,BB> singles matrix:
 ***********************************************************************
 
 Ground to excited state transition densities written to RWF  633
 Ground to excited state transition electric dipole moments (Au):
       state          X           Y           Z        Dip. S.      Osc.
         1         0.0574     -0.5517     -0.0000      0.3077      0.0202
         2         0.6189      0.3271      0.0000      0.4901      0.0404
         3         2.4729     -0.0727      0.0000      6.1204      0.5216
 Ground to excited state transition velocity dipole moments (Au):
       state          X           Y           Z        Dip. S.      Osc.
         1        -0.0022      0.0611      0.0000      0.0037      0.0253
         2        -0.0707     -0.0437      0.0000      0.0069      0.0373
         3        -0.3197      0.0099     -0.0000      0.1023      0.5335
 Ground to excited state transition magnetic dipole moments (Au):
       state          X           Y           Z
         1        -0.0000     -0.0000      0.1648
         2         0.0000      0.0000      1.1556
         3        -0.0000      0.0000      0.8680
 Ground to excited state transition velocity quadrupole moments (Au):
       state          XX          YY          ZZ          XY          XZ          YZ
         1         0.2435      0.0273     -0.0083      0.0809      0.0000     -0.0000
         2        -0.1496     -0.0260      0.0054      0.3082     -0.0000      0.0000
         3         0.1337     -0.0015     -0.0016      0.0590     -0.0000     -0.0000
 <0|del|b> * <b|rxdel|0> + <0|del|b> * <b|delr+rdel|0>
 Rotatory Strengths (R) in cgs (10**-40 erg-esu-cm/Gauss)
       state          XX          YY          ZZ    R(velocity)    E-M Angle
         1        -0.0014      0.0001      0.0008     -0.0002       90.00
         2        -0.0018     -0.0038      0.0009     -0.0016       90.00
         3        -0.0003      0.0047      0.0009      0.0018       90.00
 1/2[<0|r|b>*<b|rxdel|0> + (<0|rxdel|b>*<b|r|0>)*]
 Rotatory Strengths (R) in cgs (10**-40 erg-esu-cm/Gauss)
       state          XX          YY          ZZ     R(length)
         1         0.0001     -0.0008      0.0001     -0.0002
         2        -0.0038     -0.0013     -0.0015     -0.0022
         3         0.0059      0.0004     -0.0017      0.0015
  1/2[<0|del|b>*<b|r|0> + (<0|r|b>*<b|del|0>)*] (Au)
       state          X           Y           Z        Dip. S.   Osc.(frdel)
         1        -0.0001     -0.0337     -0.0000      0.0338      0.0226
         2        -0.0438     -0.0143      0.0000      0.0581      0.0387
         3        -0.7906     -0.0007     -0.0000      0.7913      0.5275

 Excitation energies and oscillator strengths:
 
 Excited State   1:      Singlet-A      2.6750 eV  463.49 nm  f=0.0202  <S**2>=0.000
      47 -> 48         0.70346
 This state for optimization and/or second-order correction.
 Total Energy, E(TD-HF/TD-DFT) =  -539.655347705    
 Copying the excited state density for this state as the 1-particle RhoCI density.
 
 Excited State   2:      Singlet-A      3.3677 eV  368.16 nm  f=0.0404  <S**2>=0.000
      45 -> 48         0.62096
      46 -> 48         0.32479
 
 Excited State   3:      Singlet-A      3.4788 eV  356.40 nm  f=0.5216  <S**2>=0.000
      45 -> 48        -0.32797
      46 -> 48         0.61710
 SavETr:  write IOETrn=   770 NScale= 10 NData=  16 NLR=1 NState=    3 LETran=      64.

 **********************************************************************

            Population analysis using the SCF Density.

 **********************************************************************

 Orbital symmetries:
       Occupied  (A) (A) (A) (A) (A) (A) (A) (A) (A) (A) (A) (A)
                 (A) (A) (A) (A) (A) (A) (A) (A) (A) (A) (A) (A)
                 (A) (A) (A) (A) (A) (A) (A) (A) (A) (A) (A) (A)
                 (A) (A) (A) (A) (A) (A) (A) (A) (A) (A) (A)
       Virtual   (A) (A) (A) (A) (A) (A) (A) (A) (A) (A) (A) (A)
                 (A) (A) (A) (A) (A) (A) (A) (A) (A) (A) (A) (A)
                 (A) (A) (A) (A) (A) (A) (A) (A) (A) (A) (A) (A)
                 (A) (A) (A) (A) (A) (A) (A) (A) (A) (A) (A) (A)
                 (A) (A) (A) (A) (A) (A) (A) (A) (A) (A) (A) (A)
                 (A) (A) (A) (A) (A) (A) (A) (A) (A) (A) (A) (A)
                 (A) (A) (A) (A) (A) (A) (A) (A) (A) (A) (A) (A)
                 (A) (A) (A) (A) (A) (A) (A) (A) (A) (A) (A) (A)
                 (A) (A) (A) (A) (A) (A) (A) (A) (A) (A) (A) (A)
                 (A) (A) (A) (A) (A) (A) (A) (A) (A) (A) (A) (A)
                 (A) (A) (A) (A) (A) (A) (A) (A) (A) (A) (A) (A)
                 (A) (A) (A) (A) (A) (A) (A) (A) (A) (A) (A) (A)
                 (A) (A) (A) (A) (A) (A) (A) (A) (A) (A) (A) (A)
                 (A) (A) (A) (A) (A) (A) (A) (A) (A) (A) (A) (A)
                 (A) (A) (A) (A) (A) (A) (A) (A) (A) (A) (A) (A)
                 (A) (A) (A) (A) (A) (A) (A) (A) (A) (A) (A) (A)
                 (A) (A) (A) (A) (A) (A) (A) (A) (A) (A) (A) (A)
                 (A) (A) (A) (A) (A) (A) (A) (A) (A) (A) (A) (A)
                 (A) (A) (A) (A) (A) (A) (A) (A) (A) (A) (A) (A)
                 (A) (A) (A) (A) (A) (A) (A) (A) (A) (A) (A) (A)
                 (A) (A) (A) (A) (A) (A) (A) (A) (A) (A) (A) (A)
                 (A) (A) (A) (A) (A) (A) (A) (A) (A) (A) (A) (A)
                 (A) (A) (A) (A) (A) (A) (A) (A) (A) (A) (A) (A)
                 (A) (A) (A) (A) (A) (A) (A) (A) (A) (A) (A) (A)
                 (A) (A) (A) (A) (A) (A) (A) (A) (A) (A) (A) (A)
                 (A) (A) (A) (A) (A) (A) (A) (A) (A) (A) (A) (A)
                 (A) (A) (A) (A) (A) (A) (A) (A) (A) (A) (A) (A)
                 (A) (A) (A) (A) (A) (A) (A) (A)
 The electronic state is 1-A.
 Alpha  occ. eigenvalues --  -10.77698 -10.73824 -10.72924 -10.72854 -10.72113
 Alpha  occ. eigenvalues --  -10.72104 -10.71884 -10.71079 -10.71005 -10.70293
 Alpha  occ. eigenvalues --  -10.70177 -10.69984 -10.69868 -10.69485  -1.16298
 Alpha  occ. eigenvalues --   -1.12266  -1.06757  -1.05666  -1.01159  -1.00229
 Alpha  occ. eigenvalues --   -0.95519  -0.90926  -0.86307  -0.85759  -0.83719
 Alpha  occ. eigenvalues --   -0.78271  -0.75955  -0.74236  -0.69719  -0.69170
 Alpha  occ. eigenvalues --   -0.68282  -0.67994  -0.67977  -0.65092  -0.64165
 Alpha  occ. eigenvalues --   -0.62666  -0.61619  -0.60279  -0.59200  -0.59181
 Alpha  occ. eigenvalues --   -0.56828  -0.55402  -0.54387  -0.52331  -0.47131
 Alpha  occ. eigenvalues --   -0.46051  -0.43861
 Alpha virt. eigenvalues --   -0.26127  -0.14727  -0.14105  -0.12826  -0.11177
 Alpha virt. eigenvalues --   -0.10089  -0.09254  -0.07972  -0.07966  -0.07487
 Alpha virt. eigenvalues --   -0.07203  -0.07152  -0.05661  -0.05585  -0.05370
 Alpha virt. eigenvalues --   -0.03835  -0.03641  -0.03292  -0.03159  -0.02163
 Alpha virt. eigenvalues --   -0.01342  -0.00949   0.00174   0.00572   0.00630
 Alpha virt. eigenvalues --    0.01064   0.01498   0.01912   0.02123   0.02297
 Alpha virt. eigenvalues --    0.02436   0.02654   0.02706   0.03212   0.03438
 Alpha virt. eigenvalues --    0.04215   0.04476   0.04707   0.04999   0.05350
 Alpha virt. eigenvalues --    0.06032   0.06244   0.06568   0.07031   0.07254
 Alpha virt. eigenvalues --    0.07875   0.08018   0.08321   0.08564   0.08876
 Alpha virt. eigenvalues --    0.09460   0.09527   0.09887   0.10679   0.10873
 Alpha virt. eigenvalues --    0.11107   0.12047   0.12205   0.12649   0.12978
 Alpha virt. eigenvalues --    0.13426   0.13513   0.13957   0.14210   0.15810
 Alpha virt. eigenvalues --    0.16265   0.16372   0.17307   0.17441   0.17709
 Alpha virt. eigenvalues --    0.18035   0.18977   0.19311   0.19568   0.19786
 Alpha virt. eigenvalues --    0.21430   0.21525   0.22525   0.23029   0.23487
 Alpha virt. eigenvalues --    0.23827   0.24522   0.25315   0.26844   0.27471
 Alpha virt. eigenvalues --    0.28711   0.29241   0.29784   0.31252   0.35468
 Alpha virt. eigenvalues --    0.36142   0.38129   0.39206   0.41011   0.41334
 Alpha virt. eigenvalues --    0.41814   0.42179   0.43020   0.43578   0.44403
 Alpha virt. eigenvalues --    0.44588   0.44896   0.45832   0.46125   0.47925
 Alpha virt. eigenvalues --    0.48441   0.48726   0.49072   0.50541   0.51005
 Alpha virt. eigenvalues --    0.51043   0.51912   0.52140   0.52587   0.54037
 Alpha virt. eigenvalues --    0.54103   0.54514   0.55626   0.55880   0.57541
 Alpha virt. eigenvalues --    0.58184   0.58829   0.61411   0.62120   0.62244
 Alpha virt. eigenvalues --    0.63008   0.63431   0.64673   0.65045   0.67250
 Alpha virt. eigenvalues --    0.70187   0.70395   0.70948   0.72376   0.72778
 Alpha virt. eigenvalues --    0.75550   0.75872   0.76335   0.76715   0.77110
 Alpha virt. eigenvalues --    0.77758   0.77926   0.78172   0.79947   0.80267
 Alpha virt. eigenvalues --    0.81114   0.81531   0.82262   0.82840   0.85101
 Alpha virt. eigenvalues --    0.86957   0.88039   0.88237   0.89131   0.90524
 Alpha virt. eigenvalues --    0.90901   0.91334   0.93186   0.94422   0.96269
 Alpha virt. eigenvalues --    0.96676   1.00219   1.01126   1.01444   1.02690
 Alpha virt. eigenvalues --    1.03067   1.03223   1.04671   1.05751   1.08640
 Alpha virt. eigenvalues --    1.19462   1.22909   1.23983   1.24391   1.28580
 Alpha virt. eigenvalues --    1.29362   1.32002   1.34124   1.35662   1.35817
 Alpha virt. eigenvalues --    1.39157   1.39633   1.40630   1.42829   1.43243
 Alpha virt. eigenvalues --    1.43267   1.43997   1.45989   1.46134   1.46447
 Alpha virt. eigenvalues --    1.47512   1.47794   1.51471   1.53408   1.55249
 Alpha virt. eigenvalues --    1.55475   1.56081   1.56358   1.57584   1.61088
 Alpha virt. eigenvalues --    1.62874   1.63311   1.64079   1.65917   1.67968
 Alpha virt. eigenvalues --    1.68070   1.68493   1.69579   1.74128   1.75613
 Alpha virt. eigenvalues --    1.76789   1.77974   1.79354   1.79694   1.80849
 Alpha virt. eigenvalues --    1.82580   1.82851   1.83290   1.83664   1.83911
 Alpha virt. eigenvalues --    1.84296   1.85316   1.86115   1.88196   1.91122
 Alpha virt. eigenvalues --    1.91885   1.93645   1.95176   1.97376   1.97793
 Alpha virt. eigenvalues --    1.99549   2.01931   2.04033   2.06934   2.11341
 Alpha virt. eigenvalues --    2.11724   2.13918   2.14774   2.18553   2.20691
 Alpha virt. eigenvalues --    2.22230   2.27977   2.29616   2.33827   2.34277
 Alpha virt. eigenvalues --    2.35701   2.38186   2.39362   2.41768   2.44234
 Alpha virt. eigenvalues --    2.45661   2.45666   2.48681   2.52405   2.53072
 Alpha virt. eigenvalues --    2.54134   2.56728   2.57770   2.58437   2.59327
 Alpha virt. eigenvalues --    2.59931   2.61232   2.61892   2.63522   2.63544
 Alpha virt. eigenvalues --    2.64759   2.64958   2.65128   2.65625   2.67442
 Alpha virt. eigenvalues --    2.67757   2.70530   2.70781   2.73221   2.74651
 Alpha virt. eigenvalues --    2.76123   2.77447   2.79498   2.82220   2.83006
 Alpha virt. eigenvalues --    2.83932   2.86047   2.91789   2.96836   2.99113
 Alpha virt. eigenvalues --    2.99823   3.04209   3.08382   3.10376   3.13190
 Alpha virt. eigenvalues --    3.19685   3.21378   3.25510   3.27897   3.30021
 Alpha virt. eigenvalues --    3.31935   3.33974   3.43239   3.45457   3.45991
 Alpha virt. eigenvalues --    3.47316   3.48892   3.55816   3.65811   3.66219
 Alpha virt. eigenvalues --    3.67256   3.93329   3.93579   3.94891   3.95916
 Alpha virt. eigenvalues --    4.03385   4.06041   4.07109   4.11951   4.34872
 Alpha virt. eigenvalues --    4.60110   4.68580   4.70539  23.45010  23.59664
 Alpha virt. eigenvalues --   23.79287  23.81394  23.84282  23.88356  23.91009
 Alpha virt. eigenvalues --   23.94219  23.94790  23.96284  24.02228  24.04755
 Alpha virt. eigenvalues --   24.10022  24.11711
     Molecular Orbital Coefficients:
                          43        44        45        46        47
                           O         O         O         O         O
     Eigenvalues --    -0.54387  -0.52331  -0.47131  -0.46051  -0.43861
   1 1   C  1S         -0.00298  -0.00000   0.00000   0.00000  -0.00000
   2        2S         -0.00492  -0.00000   0.00000   0.00000  -0.00000
   3        2PX        -0.08978  -0.00000   0.00000   0.00000  -0.00000
   4        2PY         0.02964  -0.00000  -0.00000   0.00000   0.00000
   5        2PZ        -0.00000   0.07574   0.04576  -0.06013   0.12189
   6        3S          0.01579   0.00000  -0.00000  -0.00000   0.00000
   7        3PX        -0.12921  -0.00000   0.00000   0.00000  -0.00000
   8        3PY         0.04278  -0.00000  -0.00000  -0.00000   0.00000
   9        3PZ        -0.00000   0.12160   0.07412  -0.09749   0.19955
  10        4S         -0.02055   0.00000  -0.00000  -0.00000  -0.00000
  11        4PX        -0.06857   0.00000   0.00000   0.00000  -0.00000
  12        4PY         0.03238   0.00000  -0.00000  -0.00000  -0.00000
  13        4PZ        -0.00000   0.10001   0.06494  -0.08783   0.18109
  14        5S          0.12061  -0.00000  -0.00004  -0.00003  -0.00003
  15        5PX         0.11718   0.00000   0.00004   0.00003   0.00004
  16        5PY         0.02124   0.00000   0.00000   0.00000   0.00000
  17        5PZ        -0.00000  -0.00094   0.02760  -0.00791   0.03943
  18        6D 0        0.00027   0.00000   0.00000  -0.00000  -0.00000
  19        6D+1        0.00000   0.00832  -0.00367  -0.01486  -0.00965
  20        6D-1       -0.00000   0.00784   0.00223  -0.00437   0.00711
  21        6D+2        0.00805  -0.00000   0.00000   0.00000  -0.00000
  22        6D-2       -0.01031  -0.00000   0.00000   0.00000  -0.00000
  23 2   C  1S          0.00277   0.00000  -0.00000  -0.00000   0.00000
  24        2S          0.00461   0.00000  -0.00000  -0.00000   0.00000
  25        2PX         0.07388   0.00000  -0.00000  -0.00000   0.00000
  26        2PY        -0.02487   0.00000  -0.00000  -0.00000   0.00000
  27        2PZ         0.00000   0.10266   0.00740  -0.11022   0.00474
  28        3S         -0.01569  -0.00000   0.00000   0.00000  -0.00000
  29        3PX         0.10701   0.00000  -0.00000  -0.00000   0.00000
  30        3PY        -0.03561   0.00000  -0.00000  -0.00000   0.00000
  31        3PZ         0.00000   0.16891   0.01278  -0.18113   0.00816
  32        4S          0.00904  -0.00000   0.00000   0.00000   0.00000
  33        4PX         0.08293   0.00000  -0.00000  -0.00000  -0.00000
  34        4PY        -0.03230   0.00000   0.00000   0.00000   0.00000
  35        4PZ         0.00000   0.12611   0.00895  -0.15253   0.00732
  36        5S         -0.11429   0.00000   0.00000  -0.00000   0.00000
  37        5PX         0.04908  -0.00000   0.00000   0.00000   0.00001
  38        5PY         0.06935   0.00000   0.00002   0.00002   0.00002
  39        5PZ        -0.00000   0.00275  -0.01816  -0.00581  -0.00349
  40        6D 0        0.00018   0.00000   0.00000   0.00000  -0.00000
  41        6D+1        0.00000  -0.00957  -0.00429   0.00731  -0.01184
  42        6D-1        0.00000   0.00573  -0.00660  -0.00415  -0.02051
  43        6D+2        0.00933   0.00000  -0.00000  -0.00000   0.00000
  44        6D-2       -0.01795  -0.00000   0.00000   0.00000  -0.00000
  45 3   C  1S          0.00024  -0.00000  -0.00000   0.00000   0.00000
  46        2S          0.00039  -0.00000  -0.00000   0.00000   0.00000
  47        2PX        -0.06944  -0.00000   0.00000   0.00000  -0.00000
  48        2PY         0.03276  -0.00000  -0.00000  -0.00000  -0.00000
  49        2PZ         0.00000   0.07848  -0.03579  -0.06114  -0.11670
  50        3S          0.00095   0.00000   0.00000   0.00000  -0.00000
  51        3PX        -0.10045  -0.00000   0.00000   0.00000  -0.00000
  52        3PY         0.04679  -0.00000  -0.00000  -0.00000  -0.00000
  53        3PZ         0.00000   0.12755  -0.05900  -0.09877  -0.19178
  54        4S         -0.02448   0.00000  -0.00000  -0.00000  -0.00000
  55        4PX        -0.06706  -0.00000   0.00000   0.00000   0.00000
  56        4PY         0.01761  -0.00000   0.00000   0.00000   0.00000
  57        4PZ         0.00000   0.09894  -0.05110  -0.08594  -0.17211
  58        5S          0.02694  -0.00001  -0.00005  -0.00003  -0.00004
  59        5PX        -0.03732   0.00000   0.00000  -0.00000  -0.00000
  60        5PY         0.06116   0.00000   0.00001   0.00001   0.00001
  61        5PZ        -0.00000   0.00681   0.01407  -0.01658  -0.01461
  62        6D 0        0.00000  -0.00000   0.00000   0.00000  -0.00000
  63        6D+1       -0.00000  -0.00334   0.00517  -0.00356   0.01193
  64        6D-1        0.00000  -0.01139  -0.00320   0.01500  -0.00601
  65        6D+2        0.00350  -0.00000   0.00000  -0.00000  -0.00000
  66        6D-2       -0.01371  -0.00000   0.00000   0.00000  -0.00000
  67 4   C  1S         -0.00258   0.00000  -0.00000   0.00000   0.00000
  68        2S         -0.00428   0.00000  -0.00000   0.00000   0.00000
  69        2PX         0.07046   0.00000  -0.00000  -0.00000   0.00000
  70        2PY        -0.03203   0.00000  -0.00000   0.00000   0.00000
  71        2PZ         0.00000   0.01538  -0.05279   0.04970  -0.12203
  72        3S          0.01314  -0.00000   0.00000   0.00000  -0.00000
  73        3PX         0.10046   0.00000  -0.00000  -0.00000   0.00000
  74        3PY        -0.04621   0.00000  -0.00000   0.00000   0.00000
  75        3PZ         0.00000   0.02408  -0.08695   0.08050  -0.19896
  76        4S          0.03127  -0.00000   0.00000   0.00000   0.00000
  77        4PX         0.07404   0.00000  -0.00000  -0.00000   0.00000
  78        4PY        -0.04907   0.00000  -0.00000  -0.00000  -0.00000
  79        4PZ         0.00000   0.02754  -0.07063   0.06277  -0.19449
  80        5S          0.18142  -0.00001   0.00000   0.00000   0.00001
  81        5PX        -0.11524   0.00000  -0.00001  -0.00001  -0.00001
  82        5PY        -0.03629   0.00000  -0.00000  -0.00000  -0.00000
  83        5PZ         0.00000  -0.01208  -0.02561   0.03177  -0.02913
  84        6D 0       -0.00004   0.00000   0.00000   0.00000  -0.00000
  85        6D+1       -0.00000   0.01207  -0.00066  -0.01695  -0.01084
  86        6D-1       -0.00000  -0.00341   0.00324  -0.00251   0.00633
  87        6D+2        0.00781  -0.00000   0.00000  -0.00000  -0.00000
  88        6D-2       -0.00925  -0.00000   0.00000   0.00000   0.00000
  89 5   C  1S         -0.00402  -0.00000   0.00000   0.00000  -0.00000
  90        2S         -0.00665  -0.00000   0.00000   0.00000  -0.00000
  91        2PX         0.07278   0.00000  -0.00000  -0.00000   0.00000
  92        2PY        -0.03725  -0.00000   0.00000   0.00000  -0.00000
  93        2PZ         0.00000   0.00763   0.12893  -0.02220  -0.04632
  94        3S          0.02147   0.00000  -0.00000  -0.00000   0.00000
  95        3PX         0.10386   0.00000  -0.00000  -0.00000   0.00000
  96        3PY        -0.05407  -0.00000   0.00000   0.00000  -0.00000
  97        3PZ         0.00000   0.01092   0.21113  -0.03643  -0.07480
  98        4S         -0.02640   0.00000   0.00000   0.00000   0.00000
  99        4PX         0.04714   0.00000  -0.00000   0.00000   0.00000
 100        4PY        -0.03809  -0.00000  -0.00000  -0.00000  -0.00000
 101        4PZ         0.00000   0.01645   0.18686  -0.02624  -0.07820
 102        5S         -0.20878   0.00001   0.00003   0.00001   0.00001
 103        5PX        -0.07896   0.00000   0.00002   0.00001   0.00001
 104        5PY         0.04480  -0.00000  -0.00000  -0.00000  -0.00000
 105        5PZ         0.00000  -0.01765   0.03537  -0.02887  -0.00395
 106        6D 0        0.00064  -0.00000  -0.00000  -0.00000   0.00000
 107        6D+1        0.00000  -0.01441  -0.00872  -0.01732   0.00340
 108        6D-1       -0.00000  -0.00291  -0.00827   0.00049   0.00255
 109        6D+2        0.01072   0.00000  -0.00000  -0.00000   0.00000
 110        6D-2       -0.00792  -0.00000   0.00000  -0.00000   0.00000
 111 6   C  1S          0.00144   0.00000   0.00000   0.00000  -0.00000
 112        2S          0.00241   0.00000   0.00000   0.00000  -0.00000
 113        2PX        -0.05501  -0.00000   0.00000   0.00000  -0.00000
 114        2PY         0.03253   0.00000  -0.00000  -0.00000   0.00000
 115        2PZ         0.00000   0.07396   0.11031   0.06883  -0.03577
 116        3S         -0.00871  -0.00000  -0.00000  -0.00000   0.00000
 117        3PX        -0.07910  -0.00000   0.00000   0.00000  -0.00000
 118        3PY         0.04715   0.00000  -0.00000  -0.00000  -0.00000
 119        3PZ         0.00000   0.12045   0.18125   0.11222  -0.05876
 120        4S          0.01462  -0.00000  -0.00000  -0.00000  -0.00000
 121        4PX        -0.06649  -0.00000  -0.00000  -0.00000  -0.00000
 122        4PY         0.03611   0.00000   0.00000   0.00000   0.00000
 123        4PZ         0.00000   0.09586   0.15458   0.10056  -0.05174
 124        5S          0.04587   0.00001  -0.00004  -0.00002  -0.00003
 125        5PX        -0.00967   0.00000   0.00000   0.00000   0.00000
 126        5PY        -0.04327  -0.00000   0.00002   0.00001   0.00001
 127        5PZ        -0.00000   0.01046  -0.00201   0.02057  -0.01638
 128        6D 0        0.00041   0.00000  -0.00000   0.00000   0.00000
 129        6D+1        0.00000   0.00286   0.01364  -0.00104  -0.00467
 130        6D-1        0.00000  -0.01113   0.00797  -0.01202  -0.00430
 131        6D+2        0.00961   0.00000  -0.00000  -0.00000   0.00000
 132        6D-2       -0.01456  -0.00000   0.00000   0.00000  -0.00000
 133 7   C  1S         -0.00182  -0.00000   0.00000   0.00000  -0.00000
 134        2S         -0.00301  -0.00000   0.00000   0.00000  -0.00000
 135        2PX         0.06054   0.00000  -0.00000  -0.00000   0.00000
 136        2PY        -0.04380  -0.00000   0.00000   0.00000  -0.00000
 137        2PZ         0.00000   0.10089  -0.01644   0.09580   0.01847
 138        3S          0.00995   0.00000  -0.00000  -0.00000   0.00000
 139        3PX         0.08643   0.00000  -0.00000  -0.00000   0.00000
 140        3PY        -0.06203  -0.00000   0.00000   0.00000  -0.00000
 141        3PZ         0.00000   0.16643  -0.02741   0.15773   0.03003
 142        4S         -0.02220   0.00000   0.00000   0.00000  -0.00000
 143        4PX         0.05345   0.00000   0.00000   0.00000   0.00000
 144        4PY        -0.03502  -0.00000   0.00000   0.00000   0.00000
 145        4PZ         0.00000   0.12725  -0.02250   0.13532   0.02845
 146        5S          0.03277  -0.00000  -0.00001  -0.00001  -0.00001
 147        5PX         0.01968   0.00000  -0.00001  -0.00001  -0.00001
 148        5PY        -0.05100  -0.00000   0.00003   0.00002   0.00002
 149        5PZ         0.00000  -0.00046   0.01274   0.00301   0.01456
 150        6D 0        0.00019  -0.00000  -0.00000  -0.00000   0.00000
 151        6D+1       -0.00000   0.00897  -0.01246   0.00408   0.00533
 152        6D-1        0.00000   0.00526   0.01926   0.00636  -0.00688
 153        6D+2        0.00315  -0.00000   0.00000   0.00000  -0.00000
 154        6D-2       -0.01084  -0.00000   0.00000   0.00000  -0.00000
 155 8   C  1S          0.00065   0.00000  -0.00000   0.00000   0.00000
 156        2S          0.00106   0.00000  -0.00000   0.00000   0.00000
 157        2PX        -0.06317  -0.00000   0.00000   0.00000  -0.00000
 158        2PY         0.03512   0.00000  -0.00000   0.00000  -0.00000
 159        2PZ        -0.00000   0.07271  -0.12633   0.03184   0.05019
 160        3S         -0.00170  -0.00000   0.00000  -0.00000  -0.00000
 161        3PX        -0.08855  -0.00000   0.00000   0.00000  -0.00000
 162        3PY         0.05120   0.00000  -0.00000  -0.00000  -0.00000
 163        3PZ        -0.00000   0.11716  -0.20654   0.05212   0.08303
 164        4S          0.01318  -0.00000  -0.00000  -0.00000  -0.00000
 165        4PX        -0.06748   0.00000   0.00000   0.00000  -0.00000
 166        4PY         0.06180  -0.00000  -0.00000  -0.00000  -0.00000
 167        4PZ        -0.00000   0.09727  -0.17813   0.04870   0.07513
 168        5S         -0.08960   0.00001  -0.00003  -0.00002  -0.00003
 169        5PX         0.06721   0.00001  -0.00005  -0.00003  -0.00004
 170        5PY        -0.00034  -0.00000   0.00001   0.00000   0.00001
 171        5PZ        -0.00000   0.00217  -0.04483   0.00391   0.00357
 172        6D 0       -0.00024  -0.00000  -0.00000  -0.00000   0.00000
 173        6D+1       -0.00000  -0.00885  -0.00907  -0.01479   0.00019
 174        6D-1       -0.00000   0.00732  -0.00856   0.00231   0.00384
 175        6D+2        0.01261   0.00000  -0.00000  -0.00000   0.00000
 176        6D-2       -0.00944  -0.00000   0.00000   0.00000  -0.00000
 177 9   C  1S         -0.00345  -0.00000  -0.00000  -0.00000  -0.00000
 178        2S         -0.00574  -0.00000  -0.00000  -0.00000  -0.00000
 179        2PX        -0.08453  -0.00000   0.00000   0.00000  -0.00000
 180        2PY         0.03474  -0.00000  -0.00000  -0.00000  -0.00000
 181        2PZ        -0.00001  -0.00681   0.02810   0.00375  -0.05437
 182        3S          0.01852   0.00000   0.00000   0.00000   0.00000
 183        3PX        -0.12680  -0.00000   0.00000   0.00000  -0.00000
 184        3PY         0.05138  -0.00000  -0.00000  -0.00000  -0.00000
 185        3PZ        -0.00001  -0.00792   0.04269   0.00598  -0.08304
 186        4S         -0.00078  -0.00000   0.00002   0.00001   0.00001
 187        4PX        -0.09147   0.00000   0.00000   0.00000   0.00000
 188        4PY         0.05249  -0.00000  -0.00000  -0.00000  -0.00000
 189        4PZ        -0.00001  -0.04349   0.04100   0.00594  -0.08464
 190        5S         -0.01633  -0.00000   0.00004   0.00003   0.00004
 191        5PX         0.28450  -0.00000  -0.00001  -0.00000   0.00000
 192        5PY         0.00337  -0.00000   0.00001   0.00001   0.00001
 193        5PZ        -0.00000  -0.06895  -0.04307  -0.00753   0.08143
 194        6D 0       -0.00379  -0.00000   0.00000  -0.00000  -0.00000
 195        6D+1        0.00000   0.00047   0.01411   0.00954   0.00747
 196        6D-1        0.00000   0.00041  -0.00740  -0.00070   0.01670
 197        6D+2        0.00952   0.00000  -0.00000  -0.00000   0.00000
 198        6D-2       -0.00871  -0.00000   0.00000   0.00000  -0.00000
 199 10  C  1S         -0.00623  -0.00000  -0.00000  -0.00000  -0.00000
 200        2S         -0.01033  -0.00000  -0.00000  -0.00000  -0.00000
 201        2PX         0.07162   0.00000  -0.00000  -0.00000   0.00000
 202        2PY        -0.03213  -0.00000   0.00000   0.00000  -0.00000
 203        2PZ         0.00000  -0.10335  -0.00736  -0.00729   0.01500
 204        3S          0.03161   0.00000   0.00000   0.00000   0.00000
 205        3PX         0.10331   0.00000  -0.00000  -0.00000   0.00000
 206        3PY        -0.04647  -0.00000   0.00000   0.00000   0.00000
 207        3PZ         0.00000  -0.16840  -0.01254  -0.01168   0.02548
 208        4S          0.03301   0.00000  -0.00001  -0.00000  -0.00001
 209        4PX         0.08396  -0.00000  -0.00000  -0.00000   0.00000
 210        4PY        -0.05536  -0.00000   0.00000   0.00000   0.00000
 211        4PZ         0.00000  -0.13954  -0.00889  -0.00862   0.01840
 212        5S         -0.01155  -0.00000   0.00004   0.00003   0.00003
 213        5PX        -0.26196   0.00001   0.00001   0.00000  -0.00001
 214        5PY        -0.00623   0.00000   0.00000  -0.00000   0.00000
 215        5PZ         0.00000  -0.01424   0.02478   0.00659  -0.05370
 216        6D 0        0.00093  -0.00000   0.00000   0.00000   0.00000
 217        6D+1       -0.00000   0.00288  -0.00519   0.02345   0.00019
 218        6D-1       -0.00000   0.00926   0.00176   0.00071  -0.00382
 219        6D+2        0.01136  -0.00000  -0.00000  -0.00000  -0.00000
 220        6D-2       -0.00849  -0.00000   0.00000   0.00000  -0.00000
 221 11  C  1S         -0.00103   0.00000  -0.00000  -0.00000   0.00000
 222        2S         -0.00173   0.00000  -0.00000  -0.00000   0.00000
 223        2PX         0.07866   0.00000  -0.00000  -0.00000   0.00000
 224        2PY        -0.04702   0.00000  -0.00000   0.00000   0.00000
 225        2PZ        -0.00000   0.00749   0.04451   0.05466   0.11521
 226        3S          0.00591  -0.00000   0.00000   0.00000  -0.00000
 227        3PX         0.11523   0.00000  -0.00000  -0.00000   0.00000
 228        3PY        -0.06745   0.00000  -0.00000   0.00000   0.00000
 229        3PZ        -0.00000   0.01186   0.07232   0.09073   0.18800
 230        4S          0.00926  -0.00000  -0.00000  -0.00000  -0.00001
 231        4PX         0.11172   0.00000   0.00000   0.00000   0.00001
 232        4PY        -0.07010   0.00000   0.00000   0.00000   0.00001
 233        4PZ        -0.00000   0.02348   0.07650   0.07181   0.19605
 234        5S          0.08381  -0.00000  -0.00007  -0.00004  -0.00005
 235        5PX         0.12462  -0.00001   0.00001   0.00001   0.00002
 236        5PY         0.19289  -0.00001  -0.00008  -0.00005  -0.00004
 237        5PZ         0.00000   0.01782  -0.00268   0.02166  -0.06953
 238        6D 0       -0.00031   0.00000   0.00000  -0.00000  -0.00000
 239        6D+1        0.00000   0.00931   0.00218  -0.00692   0.01390
 240        6D-1        0.00000  -0.00929  -0.00744   0.01466  -0.00139
 241        6D+2        0.00936   0.00000  -0.00000  -0.00000  -0.00000
 242        6D-2       -0.01527  -0.00000   0.00000  -0.00000  -0.00000
 243 12  C  1S          0.00288  -0.00000   0.00000  -0.00000  -0.00000
 244        2S          0.00488  -0.00000   0.00000  -0.00000  -0.00000
 245        2PX        -0.06255  -0.00000   0.00000   0.00000  -0.00000
 246        2PY         0.04285  -0.00000   0.00000  -0.00000  -0.00000
 247        2PZ         0.00000  -0.05219  -0.02348   0.11339   0.00938
 248        3S         -0.01425  -0.00000  -0.00000   0.00000   0.00000
 249        3PX        -0.09051  -0.00000   0.00000   0.00000  -0.00000
 250        3PY         0.06230  -0.00000   0.00000  -0.00000  -0.00000
 251        3PZ         0.00000  -0.08596  -0.03611   0.18610   0.01501
 252        4S         -0.00955   0.00000  -0.00000  -0.00000  -0.00000
 253        4PX        -0.07383  -0.00000  -0.00001  -0.00000  -0.00001
 254        4PY         0.02752   0.00000   0.00000   0.00000  -0.00000
 255        4PZ         0.00000  -0.07852  -0.04855   0.18212   0.01499
 256        5S         -0.19232   0.00001   0.00011   0.00006   0.00007
 257        5PX        -0.27397   0.00001   0.00002   0.00001  -0.00001
 258        5PY         0.14794  -0.00001  -0.00005  -0.00003  -0.00003
 259        5PZ        -0.00000   0.01253   0.00610  -0.03255   0.07404
 260        6D 0       -0.00006   0.00000  -0.00000  -0.00000   0.00000
 261        6D+1       -0.00000   0.01244  -0.00375   0.00371  -0.01401
 262        6D-1        0.00000  -0.00454  -0.00820  -0.00191  -0.01992
 263        6D+2        0.00943  -0.00000   0.00000   0.00000  -0.00000
 264        6D-2       -0.01688  -0.00000   0.00000   0.00000  -0.00000
 265 13  C  1S         -0.00217  -0.00000   0.00000   0.00000  -0.00000
 266        2S         -0.00360  -0.00000   0.00000   0.00000  -0.00000
 267        2PX         0.07206   0.00000  -0.00000  -0.00000   0.00000
 268        2PY        -0.05877  -0.00000   0.00000   0.00000  -0.00000
 269        2PZ        -0.00000   0.00064  -0.11285  -0.06319   0.02538
 270        3S          0.01043   0.00000  -0.00000  -0.00000   0.00000
 271        3PX         0.10655   0.00000  -0.00000  -0.00000   0.00000
 272        3PY        -0.08689  -0.00000   0.00000   0.00000  -0.00000
 273        3PZ        -0.00000  -0.00048  -0.18369  -0.10549   0.04119
 274        4S          0.02451   0.00000  -0.00001  -0.00000   0.00000
 275        4PX         0.10382   0.00000  -0.00001  -0.00000   0.00000
 276        4PY        -0.06032  -0.00000   0.00000   0.00000  -0.00000
 277        4PZ        -0.00000   0.01401  -0.18164  -0.08922   0.04012
 278        5S         -0.05356   0.00000  -0.00007  -0.00004  -0.00005
 279        5PX         0.10493  -0.00001  -0.00002  -0.00002  -0.00001
 280        5PY        -0.23642   0.00002  -0.00006  -0.00004  -0.00007
 281        5PZ         0.00000   0.01421   0.06664  -0.00755  -0.05179
 282        6D 0        0.00037  -0.00000  -0.00000  -0.00000   0.00000
 283        6D+1       -0.00000  -0.00983   0.01424  -0.00405  -0.00869
 284        6D-1        0.00000  -0.01181   0.00676  -0.01297   0.00173
 285        6D+2        0.00886  -0.00000  -0.00000  -0.00000  -0.00000
 286        6D-2       -0.01625  -0.00000   0.00000   0.00000  -0.00000
 287 14  C  1S          0.00138  -0.00000  -0.00000  -0.00000   0.00000
 288        2S          0.00231  -0.00000  -0.00000  -0.00000   0.00000
 289        2PX        -0.06471  -0.00000   0.00000   0.00000  -0.00000
 290        2PY         0.05337   0.00000  -0.00000  -0.00000   0.00000
 291        2PZ         0.00000  -0.07626   0.01366  -0.10737   0.00202
 292        3S         -0.00671   0.00000   0.00000   0.00000  -0.00000
 293        3PX        -0.09366  -0.00000   0.00000   0.00000  -0.00000
 294        3PY         0.07771   0.00000  -0.00000  -0.00000   0.00000
 295        3PZ         0.00000  -0.12499   0.02127  -0.17643   0.00082
 296        4S          0.01692  -0.00000   0.00000  -0.00000   0.00000
 297        4PX        -0.10170  -0.00000   0.00001   0.00000   0.00000
 298        4PY         0.08140  -0.00000  -0.00000   0.00000   0.00000
 299        4PZ         0.00000  -0.11352   0.02919  -0.17550   0.01319
 300        5S          0.20148  -0.00001   0.00009   0.00005   0.00008
 301        5PX        -0.23580   0.00002   0.00002   0.00001  -0.00001
 302        5PY        -0.16547   0.00001  -0.00004  -0.00003  -0.00004
 303        5PZ        -0.00000   0.01777  -0.06388   0.01696   0.05372
 304        6D 0        0.00011  -0.00000  -0.00000  -0.00000  -0.00000
 305        6D+1       -0.00000  -0.01241  -0.01258  -0.00007   0.00643
 306        6D-1        0.00000  -0.00524   0.01851   0.00355  -0.00506
 307        6D+2        0.00930   0.00000  -0.00000  -0.00000   0.00000
 308        6D-2       -0.01518  -0.00000   0.00000   0.00000  -0.00000
 309 15  H  1S         -0.02685   0.00000   0.00000  -0.00000   0.00000
 310        2S         -0.03918   0.00000   0.00000  -0.00000   0.00000
 311        3S         -0.01675   0.00000  -0.00000  -0.00000  -0.00000
 312        4S         -0.01190   0.00000   0.00001   0.00000   0.00000
 313        5PX        -0.00429  -0.00000   0.00000   0.00000  -0.00000
 314        5PY        -0.00123   0.00000   0.00000  -0.00000  -0.00000
 315        5PZ        -0.00000   0.00484   0.00342  -0.00419   0.00858
 316 16  H  1S          0.07213   0.00000  -0.00000  -0.00000   0.00000
 317        2S          0.10506   0.00000  -0.00000   0.00000   0.00000
 318        3S          0.04039  -0.00000   0.00000   0.00000   0.00000
 319        4S          0.00718   0.00000   0.00000   0.00000   0.00000
 320        5PX        -0.00388  -0.00000  -0.00000  -0.00000   0.00000
 321        5PY         0.00313   0.00000  -0.00000  -0.00000   0.00000
 322        5PZ         0.00000   0.00662   0.00060  -0.00757   0.00036
 323 17  H  1S         -0.04071  -0.00000   0.00000   0.00000  -0.00000
 324        2S         -0.05813  -0.00000   0.00000  -0.00000  -0.00000
 325        3S         -0.02330  -0.00000   0.00000   0.00000  -0.00000
 326        4S         -0.00580   0.00000  -0.00000  -0.00000  -0.00000
 327        5PX         0.00049   0.00000  -0.00000   0.00000   0.00000
 328        5PY         0.00467   0.00000  -0.00000  -0.00000   0.00000
 329        5PZ         0.00000   0.00499  -0.00247  -0.00408  -0.00839
 330 18  H  1S         -0.02915   0.00000  -0.00000   0.00000   0.00000
 331        2S         -0.04271   0.00000   0.00000   0.00000   0.00000
 332        3S         -0.01880   0.00000   0.00000   0.00000   0.00000
 333        4S          0.01442   0.00000   0.00000   0.00000   0.00000
 334        5PX         0.00433   0.00000  -0.00000   0.00000   0.00000
 335        5PY         0.00199  -0.00000  -0.00000  -0.00000  -0.00000
 336        5PZ         0.00000   0.00049  -0.00391   0.00359  -0.00868
 337 19  H  1S         -0.02922   0.00000   0.00000   0.00000   0.00000
 338        2S         -0.04244  -0.00000   0.00000   0.00000  -0.00000
 339        3S         -0.02054   0.00000  -0.00000  -0.00000  -0.00000
 340        4S         -0.00289  -0.00000  -0.00000   0.00000  -0.00000
 341        5PX         0.00380   0.00000  -0.00000  -0.00000   0.00000
 342        5PY         0.00076   0.00000   0.00000   0.00000   0.00000
 343        5PZ         0.00000  -0.00645  -0.00027  -0.00042   0.00050
 344 20  H  1S         -0.03470  -0.00000   0.00000   0.00000  -0.00000
 345        2S         -0.05148  -0.00000   0.00000   0.00000  -0.00000
 346        3S         -0.02633  -0.00000   0.00000   0.00000   0.00000
 347        4S         -0.01841  -0.00000   0.00000   0.00000   0.00000
 348        5PX         0.00345   0.00000  -0.00000  -0.00000   0.00000
 349        5PY         0.00166   0.00000  -0.00000  -0.00000  -0.00000
 350        5PZ         0.00000  -0.00008   0.00898  -0.00174  -0.00307
 351 21  H  1S          0.06189   0.00000  -0.00000  -0.00000   0.00000
 352        2S          0.09025   0.00000  -0.00000  -0.00000   0.00000
 353        3S          0.03432  -0.00000  -0.00000  -0.00000   0.00000
 354        4S          0.00507  -0.00000  -0.00000  -0.00000  -0.00000
 355        5PX         0.00371   0.00000  -0.00000  -0.00000   0.00000
 356        5PY        -0.00206  -0.00000   0.00000   0.00000  -0.00000
 357        5PZ         0.00000   0.00472   0.00760   0.00468  -0.00260
 358 22  H  1S         -0.02781  -0.00000   0.00000   0.00000  -0.00000
 359        2S         -0.04072  -0.00000   0.00000   0.00000  -0.00000
 360        3S         -0.01836   0.00000   0.00000   0.00000  -0.00000
 361        4S         -0.00772  -0.00000   0.00000   0.00000  -0.00000
 362        5PX         0.00031  -0.00000   0.00000   0.00000   0.00000
 363        5PY        -0.00421  -0.00000   0.00000   0.00000  -0.00000
 364        5PZ         0.00000   0.00644  -0.00114   0.00653   0.00122
 365 23  H  1S         -0.03844  -0.00000   0.00000   0.00000  -0.00000
 366        2S         -0.05403  -0.00000   0.00000  -0.00000  -0.00000
 367        3S         -0.02234   0.00000  -0.00000  -0.00000  -0.00000
 368        4S          0.00873  -0.00000   0.00001   0.00000   0.00000
 369        5PX        -0.00371  -0.00000   0.00000   0.00000  -0.00000
 370        5PY        -0.00220  -0.00000  -0.00000  -0.00000   0.00000
 371        5PZ        -0.00000   0.00467  -0.00872   0.00229   0.00330
 372 24  H  1S         -0.02166  -0.00372   0.02573   0.00332  -0.05099
 373        2S         -0.03131   0.00360   0.04000   0.00495  -0.08134
 374        3S         -0.01361   0.02520   0.03191   0.00362  -0.06828
 375        4S          0.00165   0.04535   0.01730   0.00164  -0.03674
 376        5PX        -0.00411   0.00006   0.00204   0.00056   0.00173
 377        5PY         0.00019   0.00085   0.00175   0.00021  -0.00286
 378        5PZ         0.00207   0.00013  -0.00074  -0.00004   0.00149
 379 25  H  1S         -0.02166   0.00372  -0.02573  -0.00332   0.05099
 380        2S         -0.03131  -0.00360  -0.04000  -0.00495   0.08133
 381        3S         -0.01361  -0.02519  -0.03193  -0.00363   0.06827
 382        4S          0.00165  -0.04535  -0.01731  -0.00165   0.03673
 383        5PX        -0.00411  -0.00006  -0.00204  -0.00056  -0.00173
 384        5PY         0.00019  -0.00085  -0.00175  -0.00021   0.00286
 385        5PZ        -0.00207   0.00013  -0.00074  -0.00004   0.00149
                          48        49        50        51        52
                           V         V         V         V         V
     Eigenvalues --    -0.26127  -0.14727  -0.14105  -0.12826  -0.11177
   1 1   C  1S         -0.00000  -0.00000   0.00000   0.00000  -0.00547
   2        2S         -0.00000  -0.00000   0.00000   0.00000  -0.00926
   3        2PX         0.00000  -0.00000  -0.00000  -0.00000   0.00347
   4        2PY        -0.00000  -0.00000   0.00000   0.00000  -0.01435
   5        2PZ        -0.00455   0.10122  -0.02023  -0.10053  -0.00000
   6        3S          0.00000   0.00000  -0.00000  -0.00000   0.03048
   7        3PX         0.00000  -0.00000   0.00000   0.00000   0.00345
   8        3PY        -0.00000  -0.00000   0.00000   0.00000  -0.02114
   9        3PZ        -0.00728   0.15547  -0.03047  -0.15871  -0.00000
  10        4S          0.00000   0.00001   0.00000   0.00000   0.01736
  11        4PX         0.00000   0.00000  -0.00001  -0.00001   0.02536
  12        4PY         0.00000   0.00000   0.00000   0.00000  -0.07684
  13        4PZ        -0.00757   0.28780  -0.05454  -0.27795  -0.00000
  14        5S         -0.00000   0.00001   0.00017   0.00014  -1.59498
  15        5PX         0.00000   0.00000  -0.00019  -0.00015   0.73049
  16        5PY         0.00000   0.00000  -0.00001  -0.00001  -0.43791
  17        5PZ         0.00912   0.21570  -0.00794  -0.32472  -0.00001
  18        6D 0        0.00000   0.00000   0.00000  -0.00000  -0.00515
  19        6D+1        0.01512   0.00996   0.02320  -0.00287   0.00000
  20        6D-1       -0.00186  -0.00859   0.00245   0.00788  -0.00000
  21        6D+2        0.00000   0.00000  -0.00000  -0.00000   0.00137
  22        6D-2        0.00000  -0.00000  -0.00000  -0.00000  -0.00103
  23 2   C  1S         -0.00000   0.00000   0.00000   0.00000  -0.00423
  24        2S         -0.00000   0.00000   0.00000   0.00000  -0.00699
  25        2PX        -0.00000   0.00000   0.00000  -0.00000   0.00581
  26        2PY        -0.00000   0.00000   0.00000  -0.00000  -0.00038
  27        2PZ         0.07218  -0.00686   0.09972   0.03913   0.00000
  28        3S          0.00000   0.00000  -0.00000  -0.00000   0.01996
  29        3PX        -0.00000   0.00000   0.00000  -0.00000   0.01002
  30        3PY        -0.00000   0.00000  -0.00000  -0.00000  -0.00218
  31        3PZ         0.11829  -0.00961   0.15870   0.06159   0.00000
  32        4S         -0.00000  -0.00001   0.00000   0.00000   0.10209
  33        4PX         0.00000   0.00000   0.00000   0.00000  -0.00546
  34        4PY         0.00000  -0.00000  -0.00000  -0.00000   0.01170
  35        4PZ         0.13641  -0.02445   0.26281   0.10700   0.00000
  36        5S         -0.00001  -0.00001  -0.00000   0.00001   0.60403
  37        5PX         0.00000   0.00000  -0.00003  -0.00002   0.15605
  38        5PY         0.00000  -0.00001  -0.00011  -0.00008   0.33542
  39        5PZ         0.04240  -0.01619   0.20931   0.11619   0.00001
  40        6D 0        0.00000   0.00000  -0.00000   0.00000  -0.00330
  41        6D+1        0.00168  -0.01262   0.00330   0.01372   0.00000
  42        6D-1        0.00144  -0.02286  -0.00771   0.01896   0.00000
  43        6D+2       -0.00000  -0.00000   0.00000   0.00000  -0.00206
  44        6D-2        0.00000   0.00000  -0.00000  -0.00000   0.00351
  45 3   C  1S         -0.00000  -0.00000   0.00000   0.00000  -0.00356
  46        2S         -0.00000  -0.00000   0.00000   0.00000  -0.00589
  47        2PX        -0.00000  -0.00000  -0.00000   0.00000   0.00650
  48        2PY        -0.00000  -0.00000   0.00000   0.00000   0.00026
  49        2PZ         0.01316  -0.09767  -0.05795   0.06845  -0.00000
  50        3S          0.00000   0.00000  -0.00000  -0.00000   0.01675
  51        3PX        -0.00000  -0.00000  -0.00000  -0.00000   0.01193
  52        3PY        -0.00000  -0.00000   0.00000   0.00000   0.00125
  53        3PZ         0.02249  -0.15315  -0.09204   0.10714  -0.00000
  54        4S          0.00000   0.00000   0.00000   0.00000   0.05925
  55        4PX        -0.00000  -0.00000  -0.00000  -0.00000   0.01231
  56        4PY        -0.00000  -0.00000  -0.00000  -0.00000   0.02008
  57        4PZ         0.01638  -0.26047  -0.15644   0.18196  -0.00000
  58        5S          0.00001   0.00001   0.00018   0.00013   0.12574
  59        5PX        -0.00000  -0.00000   0.00001   0.00001  -0.01538
  60        5PY         0.00000  -0.00001  -0.00007  -0.00005   0.34941
  61        5PZ         0.00344  -0.19522  -0.11656   0.17904  -0.00000
  62        6D 0        0.00000   0.00000   0.00000  -0.00000  -0.00360
  63        6D+1        0.00883  -0.01012   0.00693   0.01368   0.00000
  64        6D-1       -0.01267   0.00698  -0.01798  -0.01369  -0.00000
  65        6D+2        0.00000   0.00000   0.00000   0.00000  -0.00213
  66        6D-2        0.00000  -0.00000  -0.00000   0.00000  -0.00318
  67 4   C  1S         -0.00000  -0.00000   0.00000   0.00000  -0.00580
  68        2S         -0.00000  -0.00000   0.00000   0.00000  -0.00975
  69        2PX        -0.00000  -0.00000  -0.00000  -0.00000   0.00401
  70        2PY        -0.00000  -0.00000  -0.00000  -0.00000   0.01557
  71        2PZ        -0.07145   0.08751  -0.04787  -0.10425  -0.00000
  72        3S          0.00000   0.00000  -0.00000  -0.00000   0.02885
  73        3PX        -0.00000  -0.00000   0.00000  -0.00000   0.00429
  74        3PY        -0.00000  -0.00000   0.00000  -0.00000   0.02098
  75        3PZ        -0.11559   0.13350  -0.07610  -0.16572  -0.00000
  76        4S          0.00000  -0.00000  -0.00001  -0.00000   0.19955
  77        4PX        -0.00000  -0.00000   0.00000   0.00000  -0.04688
  78        4PY        -0.00000   0.00000   0.00001   0.00000   0.02218
  79        4PZ        -0.13174   0.25637  -0.14515  -0.28118  -0.00000
  80        5S          0.00001  -0.00002  -0.00002  -0.00001   1.82109
  81        5PX        -0.00000   0.00001   0.00004   0.00003  -0.79477
  82        5PY         0.00000   0.00000   0.00000   0.00000   0.56190
  83        5PZ        -0.02945   0.22736  -0.17538  -0.30114  -0.00000
  84        6D 0        0.00000   0.00000  -0.00000   0.00000  -0.00535
  85        6D+1        0.00195  -0.01577  -0.02096   0.00447  -0.00000
  86        6D-1        0.00372   0.00715  -0.00193  -0.00816  -0.00000
  87        6D+2        0.00000   0.00000   0.00000  -0.00000   0.00057
  88        6D-2       -0.00000  -0.00000   0.00000   0.00000   0.00214
  89 5   C  1S          0.00000   0.00000  -0.00000   0.00000  -0.00753
  90        2S          0.00000   0.00000  -0.00000   0.00000  -0.01268
  91        2PX        -0.00000  -0.00000   0.00000   0.00000  -0.00373
  92        2PY         0.00000   0.00000  -0.00000  -0.00000   0.01923
  93        2PZ        -0.08518   0.08283   0.00054   0.11136   0.00000
  94        3S         -0.00000  -0.00000   0.00000  -0.00000   0.03836
  95        3PX        -0.00000  -0.00000   0.00000  -0.00000  -0.00392
  96        3PY         0.00000   0.00000  -0.00000  -0.00000   0.02639
  97        3PZ        -0.13829   0.12715   0.00187   0.17691   0.00000
  98        4S          0.00000  -0.00000  -0.00001  -0.00000   0.20967
  99        4PX        -0.00000  -0.00000  -0.00000  -0.00000   0.04908
 100        4PY        -0.00000   0.00000   0.00001   0.00000   0.04672
 101        4PZ        -0.16230   0.25832   0.00065   0.31931   0.00000
 102        5S         -0.00000   0.00001  -0.00009  -0.00005   1.57824
 103        5PX         0.00000  -0.00001  -0.00007  -0.00005   0.96501
 104        5PY        -0.00000   0.00000   0.00001   0.00000   0.74843
 105        5PZ        -0.04172   0.25526   0.05467   0.37764   0.00000
 106        6D 0       -0.00000  -0.00000   0.00000   0.00000  -0.00601
 107        6D+1       -0.00055   0.00538  -0.02951   0.00452  -0.00000
 108        6D-1        0.00355   0.00709   0.00013   0.01065   0.00000
 109        6D+2       -0.00000  -0.00000   0.00000  -0.00000   0.00184
 110        6D-2       -0.00000  -0.00000   0.00000  -0.00000  -0.00232
 111 6   C  1S          0.00000   0.00000  -0.00000   0.00000  -0.00513
 112        2S          0.00000   0.00000  -0.00000   0.00000  -0.00852
 113        2PX         0.00000  -0.00000   0.00000   0.00000  -0.00998
 114        2PY         0.00000   0.00000  -0.00000   0.00000   0.00169
 115        2PZ         0.00743  -0.05339   0.10277  -0.06971   0.00000
 116        3S         -0.00000  -0.00000  -0.00000  -0.00000   0.02493
 117        3PX         0.00000  -0.00000   0.00000   0.00000  -0.01648
 118        3PY         0.00000   0.00000   0.00000   0.00000   0.00363
 119        3PZ         0.01430  -0.08385   0.16325  -0.10950   0.00000
 120        4S         -0.00000  -0.00000   0.00001   0.00000   0.09486
 121        4PX        -0.00000  -0.00000   0.00000   0.00000  -0.02125
 122        4PY         0.00000   0.00000  -0.00000  -0.00000   0.02336
 123        4PZ         0.00752  -0.15574   0.28090  -0.20293   0.00000
 124        5S         -0.00002   0.00005   0.00012   0.00009   0.34417
 125        5PX        -0.00000  -0.00001  -0.00002  -0.00002   0.00224
 126        5PY         0.00001  -0.00002  -0.00007  -0.00006   0.51499
 127        5PZ         0.00031  -0.11987   0.22658  -0.21178   0.00000
 128        6D 0       -0.00000  -0.00000   0.00000   0.00000  -0.00449
 129        6D+1       -0.01080   0.01025   0.00018   0.01486   0.00000
 130        6D-1       -0.01712   0.01277   0.01435   0.01712   0.00000
 131        6D+2       -0.00000  -0.00000   0.00000   0.00000  -0.00315
 132        6D-2        0.00000  -0.00000   0.00000  -0.00000   0.00447
 133 7   C  1S          0.00000   0.00000   0.00000   0.00000  -0.00596
 134        2S          0.00000   0.00000   0.00000   0.00000  -0.00993
 135        2PX        -0.00000   0.00000  -0.00000   0.00000  -0.00954
 136        2PY         0.00000   0.00000   0.00000  -0.00000  -0.00152
 137        2PZ         0.09823  -0.04182  -0.09710  -0.04809  -0.00000
 138        3S         -0.00000  -0.00000  -0.00000  -0.00000   0.02914
 139        3PX        -0.00000   0.00000  -0.00000   0.00000  -0.01531
 140        3PY         0.00000   0.00000   0.00000  -0.00000  -0.00419
 141        3PZ         0.16081  -0.06552  -0.15455  -0.07570  -0.00000
 142        4S          0.00000   0.00001  -0.00000   0.00000   0.13055
 143        4PX         0.00000   0.00000  -0.00000   0.00000  -0.00724
 144        4PY         0.00000  -0.00000  -0.00000  -0.00000   0.00990
 145        4PZ         0.18934  -0.11773  -0.26017  -0.13624  -0.00000
 146        5S          0.00000   0.00003   0.00005   0.00005   0.19269
 147        5PX        -0.00000   0.00002   0.00004   0.00004  -0.39993
 148        5PY         0.00001  -0.00004  -0.00010  -0.00008   0.47051
 149        5PZ         0.06089  -0.09629  -0.21836  -0.14421  -0.00001
 150        6D 0       -0.00000  -0.00000   0.00000  -0.00000  -0.00428
 151        6D+1       -0.00213   0.01141  -0.00184   0.01590   0.00000
 152        6D-1        0.00048  -0.01530   0.01682  -0.02098  -0.00000
 153        6D+2        0.00000   0.00000  -0.00000   0.00000  -0.00239
 154        6D-2        0.00000   0.00000   0.00000   0.00000  -0.00481
 155 8   C  1S          0.00000   0.00000  -0.00000   0.00000  -0.00710
 156        2S         -0.00000   0.00000  -0.00000   0.00000  -0.01202
 157        2PX         0.00000   0.00000   0.00000   0.00000  -0.00355
 158        2PY         0.00000   0.00000  -0.00000   0.00000  -0.01666
 159        2PZ        -0.00478   0.08794  -0.01033   0.11521   0.00000
 160        3S         -0.00000  -0.00000   0.00000  -0.00000   0.03867
 161        3PX         0.00000  -0.00000  -0.00000  -0.00000  -0.00331
 162        3PY         0.00000   0.00000  -0.00000   0.00000  -0.02431
 163        3PZ        -0.00681   0.13525  -0.01601   0.18302   0.00000
 164        4S         -0.00000  -0.00000   0.00001   0.00000   0.04651
 165        4PX         0.00000   0.00001   0.00000   0.00001  -0.02625
 166        4PY        -0.00000  -0.00000   0.00000   0.00000  -0.08429
 167        4PZ        -0.00506   0.25882  -0.04326   0.33341   0.00000
 168        5S         -0.00001   0.00004   0.00013   0.00012  -1.90214
 169        5PX        -0.00001   0.00008   0.00018   0.00016  -1.20041
 170        5PY         0.00000  -0.00001  -0.00002  -0.00002  -0.49787
 171        5PZ         0.01167   0.19277  -0.06265   0.38601   0.00001
 172        6D 0       -0.00000  -0.00000   0.00000  -0.00000  -0.00613
 173        6D+1       -0.02028  -0.00040   0.02719  -0.00337   0.00000
 174        6D-1       -0.00186  -0.00833   0.00025  -0.00991   0.00000
 175        6D+2       -0.00000  -0.00000  -0.00000  -0.00000   0.00185
 176        6D-2        0.00000   0.00000   0.00000   0.00000   0.00159
 177 9   C  1S         -0.00000   0.00000   0.00000   0.00000  -0.01401
 178        2S         -0.00000   0.00000   0.00000   0.00000  -0.02355
 179        2PX         0.00000  -0.00000   0.00000  -0.00000   0.00135
 180        2PY        -0.00000   0.00000   0.00000   0.00000  -0.03066
 181        2PZ         0.02872  -0.01304   0.00428  -0.00137   0.00000
 182        3S          0.00000   0.00000  -0.00000   0.00000   0.06157
 183        3PX         0.00000  -0.00000   0.00000  -0.00000   0.00224
 184        3PY         0.00000   0.00000   0.00000   0.00000  -0.04646
 185        3PZ         0.03831  -0.01998   0.00608  -0.00211   0.00000
 186        4S          0.00000  -0.00001  -0.00006  -0.00002   0.43262
 187        4PX        -0.00000   0.00000  -0.00001  -0.00000   0.01338
 188        4PY        -0.00000   0.00000   0.00001   0.00000  -0.02389
 189        4PZ         0.07583  -0.10622   0.03942  -0.00023   0.00000
 190        5S          0.00001  -0.00004  -0.00019  -0.00017   0.85761
 191        5PX        -0.00001   0.00003   0.00001   0.00001  -0.25057
 192        5PY         0.00000  -0.00000  -0.00002  -0.00003  -0.46534
 193        5PZ         0.13026  -0.42767   0.13617  -0.01565   0.00000
 194        6D 0        0.00000   0.00000   0.00000  -0.00000  -0.00873
 195        6D+1        0.00218  -0.00513  -0.02409   0.01305  -0.00000
 196        6D-1       -0.01947  -0.02878   0.00429  -0.00164  -0.00000
 197        6D+2       -0.00000  -0.00000   0.00000   0.00000   0.00243
 198        6D-2        0.00000   0.00000  -0.00000   0.00000  -0.00036
 199 10  C  1S         -0.00000  -0.00000   0.00000   0.00000  -0.01063
 200        2S         -0.00000  -0.00000   0.00000   0.00000  -0.01811
 201        2PX        -0.00000  -0.00000   0.00000  -0.00000   0.00101
 202        2PY        -0.00000   0.00000   0.00000  -0.00000   0.02368
 203        2PZ         0.17194   0.01680   0.01972   0.00998   0.00000
 204        3S          0.00000  -0.00000  -0.00000  -0.00000   0.06036
 205        3PX        -0.00000  -0.00000   0.00000  -0.00000   0.00161
 206        3PY         0.00000  -0.00000  -0.00000  -0.00000   0.03318
 207        3PZ         0.27972   0.02453   0.03252   0.01576   0.00000
 208        4S         -0.00000   0.00001   0.00002   0.00001   0.06879
 209        4PX        -0.00000  -0.00000   0.00000   0.00000  -0.00532
 210        4PY         0.00000  -0.00000  -0.00001  -0.00000   0.20664
 211        4PZ         0.34744   0.07441   0.05331   0.03458   0.00000
 212        5S          0.00001  -0.00003  -0.00016  -0.00013   1.55541
 213        5PX         0.00000   0.00003  -0.00003  -0.00001  -0.25198
 214        5PY         0.00000  -0.00000  -0.00001  -0.00000   1.95017
 215        5PZ         0.09813   0.32990  -0.00240   0.07139   0.00000
 216        6D 0        0.00000  -0.00000  -0.00000  -0.00000  -0.00745
 217        6D+1       -0.00078   0.00533   0.03001   0.00725   0.00000
 218        6D-1        0.00084   0.01305  -0.00085   0.00225   0.00000
 219        6D+2       -0.00000   0.00000   0.00000  -0.00000   0.00104
 220        6D-2        0.00000   0.00000  -0.00000  -0.00000   0.00021
 221 11  C  1S         -0.00000  -0.00000   0.00000  -0.00000  -0.00563
 222        2S         -0.00000  -0.00000   0.00000  -0.00000  -0.00970
 223        2PX        -0.00000  -0.00000   0.00000  -0.00000   0.00282
 224        2PY        -0.00000  -0.00000   0.00000  -0.00000   0.00930
 225        2PZ        -0.08009  -0.10455  -0.07782   0.06935  -0.00000
 226        3S          0.00000   0.00000  -0.00000  -0.00000   0.03897
 227        3PX        -0.00000  -0.00000   0.00000  -0.00000   0.00422
 228        3PY        -0.00000  -0.00000   0.00000  -0.00000   0.01301
 229        3PZ        -0.12905  -0.16215  -0.12188   0.11312  -0.00000
 230        4S          0.00001   0.00001   0.00001   0.00000  -0.02570
 231        4PX        -0.00000  -0.00001  -0.00002  -0.00001   0.12601
 232        4PY        -0.00000  -0.00000  -0.00001  -0.00000   0.01181
 233        4PZ        -0.16684  -0.27661  -0.24587   0.18239  -0.00000
 234        5S         -0.00000   0.00007   0.00027   0.00019  -3.54152
 235        5PX         0.00000  -0.00004  -0.00005  -0.00006   0.70895
 236        5PY        -0.00001   0.00000   0.00032   0.00024  -2.17981
 237        5PZ        -0.10034  -0.02863  -0.38740   0.23867  -0.00001
 238        6D 0        0.00000   0.00000   0.00000  -0.00000  -0.00754
 239        6D+1       -0.00414   0.01800  -0.00359  -0.01317  -0.00000
 240        6D-1       -0.00518  -0.01023   0.01918   0.01394   0.00000
 241        6D+2        0.00000   0.00000   0.00000  -0.00000  -0.00546
 242        6D-2       -0.00000  -0.00000   0.00000   0.00000   0.00150
 243 12  C  1S          0.00000   0.00000   0.00000   0.00000  -0.00628
 244        2S          0.00000   0.00000   0.00000   0.00000  -0.01070
 245        2PX         0.00000   0.00000   0.00000   0.00000   0.00043
 246        2PY         0.00000   0.00000   0.00000   0.00000  -0.01039
 247        2PZ        -0.02093   0.00540   0.10042   0.04163   0.00000
 248        3S         -0.00000  -0.00000  -0.00000  -0.00000   0.03706
 249        3PX         0.00000   0.00000  -0.00000  -0.00000   0.00333
 250        3PY         0.00000   0.00000   0.00000   0.00000  -0.01434
 251        3PZ        -0.03322   0.01439   0.15757   0.07135   0.00000
 252        4S          0.00000  -0.00000   0.00000  -0.00000   0.12341
 253        4PX         0.00000   0.00000   0.00002   0.00001  -0.14998
 254        4PY         0.00000   0.00000  -0.00000   0.00000  -0.08049
 255        4PZ        -0.04210  -0.01449   0.31118   0.10094   0.00000
 256        5S          0.00001  -0.00007  -0.00043  -0.00033   5.22251
 257        5PX        -0.00000   0.00003  -0.00006  -0.00003  -0.67138
 258        5PY        -0.00001   0.00001   0.00021   0.00015  -3.44599
 259        5PZ        -0.00496  -0.21356   0.43803   0.08063   0.00001
 260        6D 0       -0.00000  -0.00000   0.00000   0.00000  -0.00801
 261        6D+1       -0.02528   0.01315  -0.01092  -0.01479  -0.00000
 262        6D-1        0.01530   0.02708   0.01061  -0.01822   0.00000
 263        6D+2        0.00000  -0.00000  -0.00000   0.00000  -0.00432
 264        6D-2        0.00000   0.00000   0.00000   0.00000  -0.00282
 265 13  C  1S          0.00000   0.00000  -0.00000   0.00000  -0.00647
 266        2S          0.00000   0.00000  -0.00000   0.00000  -0.01113
 267        2PX        -0.00000  -0.00000   0.00000   0.00000  -0.00183
 268        2PY         0.00000   0.00000  -0.00000   0.00000   0.00987
 269        2PZ        -0.09504  -0.05505   0.10802  -0.07695   0.00000
 270        3S         -0.00000  -0.00000  -0.00000  -0.00000   0.04394
 271        3PX        -0.00000  -0.00000   0.00000  -0.00000  -0.00222
 272        3PY         0.00000   0.00000  -0.00000   0.00000   0.01480
 273        3PZ        -0.15313  -0.08518   0.16931  -0.12536   0.00000
 274        4S         -0.00001  -0.00001   0.00001  -0.00000   0.00498
 275        4PX        -0.00001  -0.00000   0.00002   0.00001  -0.10906
 276        4PY         0.00000  -0.00000  -0.00001   0.00000  -0.00514
 277        4PZ        -0.20040  -0.14230   0.31813  -0.21854   0.00000
 278        5S         -0.00002   0.00003   0.00028   0.00020  -4.11473
 279        5PX        -0.00000  -0.00001   0.00011   0.00008  -1.17393
[...]
 186        4S          0.42858
 187        4PX         0.16221
 188        4PY         0.27382
 189        4PZ         0.39771
 190        5S          0.34514
 191        5PX        -0.26543
 192        5PY         0.03711
 193        5PZ        -0.02776
 194        6D 0        0.00831
 195        6D+1        0.00844
 196        6D-1        0.01216
 197        6D+2        0.01202
 198        6D-2        0.01357
 199 10  C  1S          1.10550
 200        2S          0.88523
 201        2PX         0.24235
 202        2PY         0.24073
 203        2PZ         0.11437
 204        3S          0.80031
 205        3PX         0.55197
 206        3PY         0.54988
 207        3PZ         0.30995
 208        4S          0.41236
 209        4PX         0.15711
 210        4PY         0.34549
 211        4PZ         0.25615
 212        5S          0.03313
 213        5PX        -0.38056
 214        5PY         0.19865
 215        5PZ         0.04220
 216        6D 0        0.00298
 217        6D+1        0.01276
 218        6D-1        0.00358
 219        6D+2        0.02115
 220        6D-2        0.01514
 221 11  C  1S          1.10531
 222        2S          0.88559
 223        2PX         0.22800
 224        2PY         0.23552
 225        2PZ         0.15410
 226        3S          0.76593
 227        3PX         0.53003
 228        3PY         0.53112
 229        3PZ         0.40450
 230        4S          0.41429
 231        4PX         0.27265
 232        4PY         0.21502
 233        4PZ         0.33199
 234        5S          0.12132
 235        5PX        -0.29280
 236        5PY         0.62693
 237        5PZ         0.01599
 238        6D 0        0.00395
 239        6D+1        0.00915
 240        6D-1        0.01109
 241        6D+2        0.02056
 242        6D-2        0.02085
 243 12  C  1S          1.10520
 244        2S          0.88562
 245        2PX         0.22921
 246        2PY         0.23579
 247        2PZ         0.17484
 248        3S          0.75250
 249        3PX         0.52435
 250        3PY         0.53366
 251        3PZ         0.46133
 252        4S          0.36630
 253        4PX         0.14390
 254        4PY         0.19209
 255        4PZ         0.39532
 256        5S         -0.51037
 257        5PX        -0.47130
 258        5PY         0.29647
 259        5PZ        -0.06171
 260        6D 0        0.00445
 261        6D+1        0.00743
 262        6D-1        0.00955
 263        6D+2        0.02282
 264        6D-2        0.02277
 265 13  C  1S          1.10532
 266        2S          0.88551
 267        2PX         0.23635
 268        2PY         0.23208
 269        2PZ         0.15049
 270        3S          0.77006
 271        3PX         0.53626
 272        3PY         0.53140
 273        3PZ         0.39725
 274        4S          0.39899
 275        4PX         0.26405
 276        4PY         0.22409
 277        4PZ         0.31748
 278        5S          0.15386
 279        5PX        -0.26686
 280        5PY         0.62055
 281        5PZ         0.01189
 282        6D 0        0.00386
 283        6D+1        0.01048
 284        6D-1        0.01009
 285        6D+2        0.02235
 286        6D-2        0.02054
 287 14  C  1S          1.10521
 288        2S          0.88565
 289        2PX         0.23264
 290        2PY         0.23045
 291        2PZ         0.17373
 292        3S          0.75268
 293        3PX         0.52835
 294        3PY         0.52989
 295        3PZ         0.45842
 296        4S          0.38025
 297        4PX         0.15620
 298        4PY         0.19561
 299        4PZ         0.39661
 300        5S         -0.57691
 301        5PX        -0.46567
 302        5PY         0.30746
 303        5PZ        -0.05979
 304        6D 0        0.00447
 305        6D+1        0.00729
 306        6D-1        0.00837
 307        6D+2        0.02272
 308        6D-2        0.02221
 309 15  H  1S          0.27364
 310        2S          0.46406
 311        3S          0.03493
 312        4S         -0.03218
 313        5PX         0.00332
 314        5PY         0.01468
 315        5PZ         0.00472
 316 16  H  1S          0.27372
 317        2S          0.46316
 318        3S          0.01508
 319        4S         -0.02737
 320        5PX         0.01259
 321        5PY         0.00642
 322        5PZ         0.00396
 323 17  H  1S          0.27316
 324        2S          0.46319
 325        3S          0.02134
 326        4S         -0.02759
 327        5PX         0.01167
 328        5PY         0.00669
 329        5PZ         0.00452
 330 18  H  1S          0.27338
 331        2S          0.46511
 332        3S          0.03762
 333        4S         -0.01953
 334        5PX         0.00343
 335        5PY         0.01496
 336        5PZ         0.00455
 337 19  H  1S          0.27262
 338        2S          0.45395
 339        3S          0.01729
 340        4S          0.04253
 341        5PX         0.00338
 342        5PY         0.01638
 343        5PZ         0.00289
 344 20  H  1S          0.27367
 345        2S          0.46481
 346        3S          0.03254
 347        4S         -0.01977
 348        5PX         0.00347
 349        5PY         0.01526
 350        5PZ         0.00428
 351 21  H  1S          0.27331
 352        2S          0.46273
 353        3S          0.01809
 354        4S         -0.02944
 355        5PX         0.01233
 356        5PY         0.00629
 357        5PZ         0.00445
 358 22  H  1S          0.27320
 359        2S          0.46145
 360        3S          0.01003
 361        4S         -0.02924
 362        5PX         0.01252
 363        5PY         0.00651
 364        5PZ         0.00366
 365 23  H  1S          0.27322
 366        2S          0.46346
 367        3S          0.03104
 368        4S         -0.03087
 369        5PX         0.00338
 370        5PY         0.01501
 371        5PZ         0.00457
 372 24  H  1S          0.26342
 373        2S          0.42803
 374        3S          0.01137
 375        4S          0.02741
 376        5PX         0.00342
 377        5PY         0.00769
 378        5PZ         0.00922
 379 25  H  1S          0.26342
 380        2S          0.42804
 381        3S          0.01137
 382        4S          0.02741
 383        5PX         0.00342
 384        5PY         0.00769
 385        5PZ         0.00922
          Condensed to atoms (all electrons):
               1          2          3          4          5          6
     1  C    8.828843   0.064549  -0.405354   2.145262  -0.072367  -0.102280
     2  C    0.064549   7.161308   0.212471  -1.139472   0.014631  -0.013526
     3  C   -0.405354   0.212471   6.578205   0.840707  -0.139539   0.016330
     4  C    2.145262  -1.139472   0.840707  10.432214  -0.382224  -0.110977
     5  C   -0.072367   0.014631  -0.139539  -0.382224  11.641388   0.738889
     6  C   -0.102280  -0.013526   0.016330  -0.110977   0.738889   6.606223
     7  C   -0.004015  -0.000447  -0.013483  -0.032672  -1.070599   0.427342
     8  C    0.399295  -0.025621  -0.085263  -0.019646   1.827736  -0.599950
     9  C   -1.118793  -0.769319   0.303978  -0.373444   0.056658   0.288640
    10  C   -1.346133   0.341087  -0.439211  -2.376833  -2.710897  -0.272859
    11  C    0.328694  -1.032668   1.159471  -0.179084  -1.576339  -0.239027
    12  C   -2.472996   1.711394  -1.510607  -1.573705  -0.509967  -0.105618
    13  C    0.257130  -0.314256  -0.088428  -1.361960  -0.469408   0.845317
    14  C   -0.998309  -0.080346  -0.300084  -0.203370  -1.723956  -1.360665
    15  H    0.369529  -0.109506   0.002662   0.028315   0.004585   0.001012
    16  H   -0.017730   0.376171  -0.014884   0.010598  -0.001359  -0.000307
    17  H   -0.032659  -0.008071   0.368195  -0.065564   0.000377   0.000392
    18  H    0.052103   0.003195  -0.083803   0.447484   0.005892  -0.005177
    19  H   -0.047075  -0.008584   0.052453  -0.054868  -0.083819   0.049321
    20  H    0.007006   0.002123  -0.005095   0.005572   0.469578  -0.084366
    21  H   -0.001345  -0.000373   0.000398   0.000188  -0.067768   0.379789
    22  H    0.001054   0.000391  -0.000336  -0.001589   0.016068  -0.021071
    23  H    0.004743  -0.002839   0.001149   0.006129   0.026777  -0.002996
    24  H    0.028792   0.012920  -0.001688  -0.012208  -0.011580  -0.001481
    25  H    0.028788   0.012918  -0.001689  -0.012205  -0.011583  -0.001481
               7          8          9         10         11         12
     1  C   -0.004015   0.399295  -1.118793  -1.346133   0.328694  -2.472996
     2  C   -0.000447  -0.025621  -0.769319   0.341087  -1.032668   1.711394
     3  C   -0.013483  -0.085263   0.303978  -0.439211   1.159471  -1.510607
     4  C   -0.032672  -0.019646  -0.373444  -2.376833  -0.179084  -1.573705
     5  C   -1.070599   1.827736   0.056658  -2.710897  -1.576339  -0.509967
     6  C    0.427342  -0.599950   0.288640  -0.272859  -0.239027  -0.105618
     7  C    7.184388   0.435708  -0.883124   0.185214  -0.206153  -0.267141
     8  C    0.435708   8.355955  -1.077207  -1.202161   0.234044  -1.163051
     9  C   -0.883124  -1.077207   9.571524   0.230146   1.477019  -1.657440
    10  C    0.185214  -1.202161   0.230146   9.049151  -0.552294   2.454414
    11  C   -0.206153   0.234044   1.477019  -0.552294  14.102751  -3.400915
    12  C   -0.267141  -1.163051  -1.657440   2.454414  -3.400915  15.762009
    13  C   -0.753462   0.348009   1.513578  -0.250836   1.066165  -4.828653
    14  C    1.119275  -1.920043  -2.129268   2.355317  -4.600322   3.089652
    15  H   -0.002284   0.006412   0.092236  -0.010991  -0.029005  -0.037019
    16  H    0.000321   0.000461   0.003174  -0.008197   0.023683  -0.029755
    17  H   -0.000398  -0.001263  -0.006300   0.020656  -0.030339   0.099724
    18  H    0.002027   0.006727  -0.025872   0.017099  -0.004113  -0.062592
    19  H   -0.007222  -0.043167   0.072790   0.419557   0.081764  -0.039314
    20  H    0.003109   0.047940  -0.021814   0.006915  -0.012037  -0.023585
    21  H   -0.023157  -0.019621  -0.004623   0.018951  -0.006214   0.005214
    22  H    0.380305  -0.019237   0.002960  -0.009655   0.003589  -0.010272
    23  H   -0.106409   0.367592   0.089555  -0.008327  -0.002818   0.007844
    24  H    0.015646   0.037106   0.355481   0.005150   0.002620  -0.058698
    25  H    0.015644   0.037096   0.355490   0.005151   0.002614  -0.058693
              13         14         15         16         17         18
     1  C    0.257130  -0.998309   0.369529  -0.017730  -0.032659   0.052103
     2  C   -0.314256  -0.080346  -0.109506   0.376171  -0.008071   0.003195
     3  C   -0.088428  -0.300084   0.002662  -0.014884   0.368195  -0.083803
     4  C   -1.361960  -0.203370   0.028315   0.010598  -0.065564   0.447484
     5  C   -0.469408  -1.723956   0.004585  -0.001359   0.000377   0.005892
     6  C    0.845317  -1.360665   0.001012  -0.000307   0.000392  -0.005177
     7  C   -0.753462   1.119275  -0.002284   0.000321  -0.000398   0.002027
     8  C    0.348009  -1.920043   0.006412   0.000461  -0.001263   0.006727
     9  C    1.513578  -2.129268   0.092236   0.003174  -0.006300  -0.025872
    10  C   -0.250836   2.355317  -0.010991  -0.008197   0.020656   0.017099
    11  C    1.066165  -4.600322  -0.029005   0.023683  -0.030339  -0.004113
    12  C   -4.828653   3.089652  -0.037019  -0.029755   0.099724  -0.062592
    13  C   14.570596  -3.973250   0.007531   0.002240  -0.006185  -0.011730
    14  C   -3.973250  16.247867   0.004377  -0.007514   0.004917  -0.005599
    15  H    0.007531   0.004377   0.444100  -0.009181   0.001367   0.000048
    16  H    0.002240  -0.007514  -0.009181   0.423477  -0.006162   0.001866
    17  H   -0.006185   0.004917   0.001367  -0.006162   0.423531  -0.010041
    18  H   -0.011730  -0.005599   0.000048   0.001866  -0.010041   0.457228
    19  H    0.074869  -0.091290   0.000249  -0.000515   0.001210  -0.006654
    20  H   -0.009893  -0.047970  -0.000104   0.000012  -0.000126   0.001252
    21  H   -0.021531   0.081799   0.000011  -0.000007   0.000010  -0.000159
    22  H    0.026745  -0.032702  -0.000126   0.000007  -0.000007   0.000018
    23  H   -0.032809  -0.013570   0.000554  -0.000124   0.000016  -0.000118
    24  H    0.023156  -0.059567  -0.000809   0.000642  -0.000145   0.000217
    25  H    0.023158  -0.059554  -0.000809   0.000642  -0.000145   0.000217
              19         20         21         22         23         24
     1  C   -0.047075   0.007006  -0.001345   0.001054   0.004743   0.028792
     2  C   -0.008584   0.002123  -0.000373   0.000391  -0.002839   0.012920
     3  C    0.052453  -0.005095   0.000398  -0.000336   0.001149  -0.001688
     4  C   -0.054868   0.005572   0.000188  -0.001589   0.006129  -0.012208
     5  C   -0.083819   0.469578  -0.067768   0.016068   0.026777  -0.011580
     6  C    0.049321  -0.084366   0.379789  -0.021071  -0.002996  -0.001481
     7  C   -0.007222   0.003109  -0.023157   0.380305  -0.106409   0.015646
     8  C   -0.043167   0.047940  -0.019621  -0.019237   0.367592   0.037106
     9  C    0.072790  -0.021814  -0.004623   0.002960   0.089555   0.355481
    10  C    0.419557   0.006915   0.018951  -0.009655  -0.008327   0.005150
    11  C    0.081764  -0.012037  -0.006214   0.003589  -0.002818   0.002620
    12  C   -0.039314  -0.023585   0.005214  -0.010272   0.007844  -0.058698
    13  C    0.074869  -0.009893  -0.021531   0.026745  -0.032809   0.023156
    14  C   -0.091290  -0.047970   0.081799  -0.032702  -0.013570  -0.059567
    15  H    0.000249  -0.000104   0.000011  -0.000126   0.000554  -0.000809
    16  H   -0.000515   0.000012  -0.000007   0.000007  -0.000124   0.000642
    17  H    0.001210  -0.000126   0.000010  -0.000007   0.000016  -0.000145
    18  H   -0.006654   0.001252  -0.000159   0.000018  -0.000118   0.000217
    19  H    0.442723  -0.005952   0.001620  -0.000550   0.000374   0.000563
    20  H   -0.005952   0.449432  -0.010269   0.001972   0.000258   0.000148
    21  H    0.001620  -0.010269   0.420278  -0.006712   0.001544  -0.000134
    22  H   -0.000550   0.001972  -0.006712   0.414739  -0.008715   0.000622
    23  H    0.000374   0.000258   0.001544  -0.008715   0.433986  -0.000989
    24  H    0.000563   0.000148  -0.000134   0.000622  -0.000989   0.493035
    25  H    0.000563   0.000148  -0.000134   0.000621  -0.000988  -0.078225
              25
     1  C    0.028788
     2  C    0.012918
     3  C   -0.001689
     4  C   -0.012205
     5  C   -0.011583
     6  C   -0.001481
     7  C    0.015644
     8  C    0.037096
     9  C    0.355490
    10  C    0.005151
    11  C    0.002614
    12  C   -0.058693
    13  C    0.023158
    14  C   -0.059554
    15  H   -0.000809
    16  H    0.000642
    17  H   -0.000145
    18  H    0.000217
    19  H    0.000563
    20  H    0.000148
    21  H   -0.000134
    22  H    0.000621
    23  H   -0.000988
    24  H   -0.078225
    25  H    0.493030
 Mulliken charges:
               1
     1  C    0.103271
     2  C   -0.408128
     3  C   -0.446557
     4  C   -0.016648
     5  C    0.028830
     6  C   -0.431474
     7  C   -0.398413
     8  C    0.072148
     9  C   -0.346027
    10  C    0.079586
    11  C   -0.611083
    12  C    0.679771
    13  C   -0.636093
    14  C    0.704175
    15  H    0.236846
    16  H    0.252439
    17  H    0.247010
    18  H    0.220487
    19  H    0.190956
    20  H    0.225748
    21  H    0.252244
    22  H    0.261878
    23  H    0.240182
    24  H    0.249426
    25  H    0.249424
 Sum of Mulliken charges =   1.00000
 Mulliken charges with hydrogens summed into heavy atoms:
               1
     1  C    0.340117
     2  C   -0.155688
     3  C   -0.199547
     4  C    0.203839
     5  C    0.254578
     6  C   -0.179230
     7  C   -0.136535
     8  C    0.312330
     9  C    0.152824
    10  C    0.270542
    11  C   -0.611083
    12  C    0.679771
    13  C   -0.636093
    14  C    0.704175
 Electronic spatial extent (au):  <R**2>=           2869.0036
 Charge=              1.0000 electrons
 Dipole moment (field-independent basis, Debye):
    X=             -0.9924    Y=              0.1764    Z=              0.0000  Tot=              1.0080
 Quadrupole moment (field-independent basis, Debye-Ang):
   XX=            -30.7801   YY=            -56.1948   ZZ=            -84.2674
   XY=             -0.0806   XZ=             -0.0001   YZ=             -0.0000
 Traceless Quadrupole moment (field-independent basis, Debye-Ang):
   XX=             26.3007   YY=              0.8860   ZZ=            -27.1866
   XY=             -0.0806   XZ=             -0.0001   YZ=             -0.0000
 Octapole moment (field-independent basis, Debye-Ang**2):
  XXX=            -11.0339  YYY=              5.3531  ZZZ=              0.0000  XYY=             -2.3256
  XXY=             -5.3328  XXZ=             -0.0000  XZZ=             -1.4433  YZZ=             -3.1514
  YYZ=              0.0000  XYZ=              0.0003
 Hexadecapole moment (field-independent basis, Debye-Ang**3):
 XXXX=          -2126.8274 YYYY=           -611.9023 ZZZZ=            -99.6930 XXXY=              2.2777
 XXXZ=              0.0004 YYYX=             -0.9103 YYYZ=             -0.0001 ZZZX=              0.0001
 ZZZY=             -0.0000 XXYY=           -509.2466 XXZZ=           -594.3847 YYZZ=           -146.5140
 XXYZ=              0.0000 YYXZ=             -0.0005 ZZXY=             -0.4627
 N-N= 7.793291858673D+02 E-N=-2.794898040434D+03  KE= 5.373608179113D+02
 Orbital energies and kinetic energies (alpha):
                                 1                 2
  43         O                -0.543869          1.574785
  44         O                -0.523312          1.038429
  45         O                -0.471308          1.133484
  46         O                -0.460512          1.149697
  47         O                -0.438605          1.156448
  48         V                -0.261265          1.267494
  49         V                -0.147274          1.105579
  50         V                -0.141047          1.311565
  51         V                -0.128261          1.279407
  52         V                -0.111770          0.204348
 Total kinetic energy from orbitals= 5.373608179113D+02
 Unable to Open any file for archive entry.
 1\1\GINC-GADI-CPU-CLX-1686\SP\RM062X TD-FC\6-311++G(d,p)\C14H11(1+)\TS
 1578\14-Jul-2022\0\\#n M062X/6-311++G(d,p) TD SP pop=reg formcheck\\SP
 _11\\1,1\C,0,2.5189147025,1.3730256873,0.\C,0,3.7317388264,0.691154649
 2,0.\C,0,3.7042357407,-0.6884907961,0.\C,0,2.444648613,-1.3933368199,0
 .\C,0,-2.493171387,-1.4120688675,0.\C,0,-3.6809899467,-0.7260677349,0.
 \C,0,-3.6884068609,0.6737767255,0.\C,0,-2.4786295158,1.3725743127,0.\C
 ,0,0.0093660238,1.4674699056,0.\C,0,-0.0353200657,-1.4246428437,0.\C,0
 ,1.2528842593,0.6732245425,0.\C,0,1.2316453508,-0.7210902831,0.\C,0,-1
 .2764685843,0.7010969265,0.\C,0,-1.2493618055,-0.7259425605,0.\H,0,2.5
 01339245,2.4586942183,0.\H,0,4.6680160771,1.2310547435,0.\H,0,4.622229
 7169,-1.2644459705,0.\H,0,2.461628572,-2.4787667255,0.\H,0,-0.03012925
 73,-2.5077956873,0.\H,0,-2.485551428,-2.4961446492,0.\H,0,-4.617715970
 5,-1.2689597169,0.\H,0,-4.6266024538,1.2150309438,0.\H,0,-2.488700755,
 2.4576786254,0.\H,0,0.0520209274,2.1565671563,-0.864108531\H,0,0.05213
 3771,2.1565671563,0.864108531\\Version=ES64L-G16RevC.01\State=1-A\HF=-
 539.7536521\RMSD=9.494e-09\PG=C01 [X(C14H11)]\\@
 The archive entry for this job was punched.


 A BIRD IN THE HAND IS SAFER THAN ONE OVERHEAD.

                       -- NEWTON'S SEVENTH LAW
 FChkPn:  Coordinates translated and rotated.
 FChkPn:  Coordinates match /B/ after translation and rotation.
 Job cpu time:       0 days  1 hours 13 minutes 44.5 seconds.
 Elapsed time:       0 days  0 hours 10 minutes  2.4 seconds.
 File lengths (MBytes):  RWF=    532 Int=      0 D2E=      0 Chk=     24 Scr=      1
 Normal termination of Gaussian 16 at Thu Jul 14 14:27:08 2022.
