 Entering Gaussian System, Link 0=g16
 Initial command:
 /apps/gaussian/g16c01/g16/l1.exe "/jobfs/51125639.gadi-pbs/Gau-127668.inp" -scrdir="/jobfs/51125639.gadi-pbs/"
 Entering Link 1 = /apps/gaussian/g16c01/g16/l1.exe PID=    127669.
  
 Copyright (c) 1988-2019, Gaussian, Inc.  All Rights Reserved.
  
 This is part of the Gaussian(R) 16 program.  It is based on
 the Gaussian(R) 09 system (copyright 2009, Gaussian, Inc.),
 the Gaussian(R) 03 system (copyright 2003, Gaussian, Inc.),
 the Gaussian(R) 98 system (copyright 1998, Gaussian, Inc.),
 the Gaussian(R) 94 system (copyright 1995, Gaussian, Inc.),
 the Gaussian 92(TM) system (copyright 1992, Gaussian, Inc.),
 the Gaussian 90(TM) system (copyright 1990, Gaussian, Inc.),
 the Gaussian 88(TM) system (copyright 1988, Gaussian, Inc.),
 the Gaussian 86(TM) system (copyright 1986, Carnegie Mellon
 University), and the Gaussian 82(TM) system (copyright 1983,
 Carnegie Mellon University). Gaussian is a federally registered
 trademark of Gaussian, Inc.
  
 This software contains proprietary and confidential information,
 including trade secrets, belonging to Gaussian, Inc.
  
 This software is provided under written license and may be
 used, copied, transmitted, or stored only in accord with that
 written license.
  
 The following legend is applicable only to US Government
 contracts under FAR:
  
                    RESTRICTED RIGHTS LEGEND
  
 Use, reproduction and disclosure by the US Government is
 subject to restrictions as set forth in subparagraphs (a)
 and (c) of the Commercial Computer Software - Restricted
 Rights clause in FAR 52.227-19.
  
 Gaussian, Inc.
 340 Quinnipiac St., Bldg. 40, Wallingford CT 06492
  
  
 ---------------------------------------------------------------
 Warning -- This program may not be used in any manner that
 competes with the business of Gaussian, Inc. or will provide
 assistance to any competitor of Gaussian, Inc.  The licensee
 of this program is prohibited from giving any competitor of
 Gaussian, Inc. access to this program.  By using this program,
 the user acknowledges that Gaussian, Inc. is engaged in the
 business of creating and licensing software in the field of
 computational chemistry and represents and warrants to the
 licensee that it is not a competitor of Gaussian, Inc. and that
 it will not use this program in any manner prohibited above.
 ---------------------------------------------------------------
  

 Cite this work as:
 Gaussian 16, Revision C.01,
 M. J. Frisch, G. W. Trucks, H. B. Schlegel, G. E. Scuseria, 
 M. A. Robb, J. R. Cheeseman, G. Scalmani, V. Barone, 
 G. A. Petersson, H. Nakatsuji, X. Li, M. Caricato, A. V. Marenich, 
 J. Bloino, B. G. Janesko, R. Gomperts, B. Mennucci, H. P. Hratchian, 
 J. V. Ortiz, A. F. Izmaylov, J. L. Sonnenberg, D. Williams-Young, 
 F. Ding, F. Lipparini, F. Egidi, J. Goings, B. Peng, A. Petrone, 
 T. Henderson, D. Ranasinghe, V. G. Zakrzewski, J. Gao, N. Rega, 
 G. Zheng, W. Liang, M. Hada, M. Ehara, K. Toyota, R. Fukuda, 
 J. Hasegawa, M. Ishida, T. Nakajima, Y. Honda, O. Kitao, H. Nakai, 
 T. Vreven, K. Throssell, J. A. Montgomery, Jr., J. E. Peralta, 
 F. Ogliaro, M. J. Bearpark, J. J. Heyd, E. N. Brothers, K. N. Kudin, 
 V. N. Staroverov, T. A. Keith, R. Kobayashi, J. Normand, 
 K. Raghavachari, A. P. Rendell, J. C. Burant, S. S. Iyengar, 
 J. Tomasi, M. Cossi, J. M. Millam, M. Klene, C. Adamo, R. Cammi, 
 J. W. Ochterski, R. L. Martin, K. Morokuma, O. Farkas, 
 J. B. Foresman, and D. J. Fox, Gaussian, Inc., Wallingford CT, 2019.
 
 ******************************************
 Gaussian 16:  ES64L-G16RevC.01  3-Jul-2019
                14-Jul-2022 
 ******************************************
 %NProcShared=8
 Will use up to    8 processors via shared memory.
 %mem = 32GB
 %Chk=check_sp_7
 ----------------------------------------------
 #n M062X/6-311++G(d,p) TD SP pop=reg formcheck
 ----------------------------------------------
 1/38=1,172=1/1;
 2/12=2,17=6,18=5,40=1/2;
 3/5=4,6=6,7=1111,11=9,25=1,30=1,74=-55/1,2,3,8;
 4//1;
 5/5=2,38=5/2;
 8/6=1,10=2/1;
 9/42=1,70=2/14;
 6//1;
 99/5=1,9=1/99;
 ----
 SP_7
 ----
 Symbolic Z-matrix:
 Charge =  1 Multiplicity = 1
 C                     2.51149   1.37294   0. 
 C                     3.72382   0.68791   0. 
 C                     3.69997  -0.69526   0. 
 C                     2.45347  -1.3967    0. 
 C                    -2.48435  -1.40862   0. 
 C                    -3.68518  -0.71917   0. 
 C                    -3.69624   0.67685   0. 
 C                    -2.48585   1.37266   0. 
 C                     0.00596   1.46718   0. 
 C                    -0.02248  -1.4246    0. 
 C                     1.25715   0.67835   0. 
 C                     1.23489  -0.72195   0. 
 C                    -1.27216   0.69609   0. 
 C                    -1.24616  -0.72504   0. 
 H                     2.49904   2.45849   0. 
 H                     4.66042   1.2281    0. 
 H                     4.62137  -1.26523   0. 
 H                     2.46598  -2.48184   0. 
 H                    -0.01917  -2.50771   0. 
 H                    -2.4812   -2.4929    0. 
 H                    -4.6185   -1.2681    0. 
 H                    -4.63407   1.2179    0. 
 H                    -2.491     2.45784   0. 
 H                     0.0331    2.15661  -0.86399 
 H                     0.03318   2.15661   0.86399 
 
                          Input orientation:                          
 ---------------------------------------------------------------------
 Center     Atomic      Atomic             Coordinates (Angstroms)
 Number     Number       Type             X           Y           Z
 ---------------------------------------------------------------------
      1          6           0        2.511488    1.372944    0.000000
      2          6           0        3.723819    0.687913    0.000000
      3          6           0        3.699968   -0.695261    0.000000
      4          6           0        2.453471   -1.396702    0.000000
      5          6           0       -2.484349   -1.408622    0.000000
      6          6           0       -3.685175   -0.719174    0.000000
      7          6           0       -3.696244    0.676854    0.000000
      8          6           0       -2.485852    1.372656    0.000000
      9          6           0        0.005960    1.467183    0.000000
     10          6           0       -0.022476   -1.424602    0.000000
     11          6           0        1.257152    0.678354    0.000000
     12          6           0        1.234887   -0.721952    0.000000
     13          6           0       -1.272160    0.696091    0.000000
     14          6           0       -1.246161   -0.725040    0.000000
     15          1           0        2.499041    2.458489    0.000000
     16          1           0        4.660425    1.228100    0.000000
     17          1           0        4.621368   -1.265226    0.000000
     18          1           0        2.465978   -2.481844    0.000000
     19          1           0       -0.019173   -2.507714    0.000000
     20          1           0       -2.481202   -2.492903    0.000000
     21          1           0       -4.618496   -1.268098    0.000000
     22          1           0       -4.634071    1.217903    0.000000
     23          1           0       -2.490999    2.457843    0.000000
     24          1           0        0.033104    2.156608   -0.863985
     25          1           0        0.033176    2.156608    0.863985
 ---------------------------------------------------------------------
                    Distance matrix (angstroms):
                    1          2          3          4          5
     1  C    0.000000
     2  C    1.392485   0.000000
     3  C    2.385363   1.383380   0.000000
     4  C    2.770253   2.441189   1.430305   0.000000
     5  C    5.717997   6.552619   6.225324   4.937834   0.000000
     6  C    6.540305   7.541425   7.385182   6.175923   1.384674
     7  C    6.246637   7.420072   7.522411   6.489887   2.412033
     8  C    4.997339   6.247310   6.522319   5.662707   2.781279
     9  C    2.507299   3.798649   4.280404   3.767246   3.804194
    10  C    3.774551   4.300866   3.793222   2.476105   2.461925
    11  C    1.433811   2.466686   2.802529   2.395211   4.284191
    12  C    2.453222   2.860507   2.465226   1.392923   3.782094
    13  C    3.843712   4.995986   5.163131   4.273185   2.428831
    14  C    4.303656   5.166928   4.946219   3.760107   1.414353
    15  H    1.085617   2.152910   3.374666   3.855460   6.307831
    16  H    2.153813   1.081218   2.149837   3.429319   7.615780
    17  H    3.378096   2.149499   1.083437   2.171880   7.107164
    18  H    3.855057   3.410209   2.171315   1.085215   5.065328
    19  H    4.632898   4.921587   4.137269   2.710778   2.699091
    20  H    6.314405   6.972795   6.437265   5.054963   1.084286
    21  H    7.603405   8.568559   8.338164   7.073136   2.138768
    22  H    7.147240   8.374677   8.550813   7.554429   3.394103
    23  H    5.118777   6.461936   6.947671   6.269393   3.866470
    24  H    2.739158   4.065085   4.724989   4.385277   4.449147
    25  H    2.739093   4.065020   4.724933   4.385238   4.449188
                    6          7          8          9         10
     6  C    0.000000
     7  C    1.396072   0.000000
     8  C    2.411251   1.396134   0.000000
     9  C    4.290063   3.785622   2.493604   0.000000
    10  C    3.730012   4.232338   3.727314   2.891924   0.000000
    11  C    5.136115   4.953396   3.806853   1.479098   2.461680
    12  C    4.920063   5.125692   4.269810   2.510492   1.440375
    13  C    2.797431   2.424161   1.389528   1.492707   2.461513
    14  C    2.439021   2.822803   2.436629   2.524608   1.409536
    15  H    6.952847   6.446378   5.101783   2.682935   4.629951
    16  H    8.569768   8.374831   7.147738   4.660601   5.382043
    17  H    8.324472   8.541332   7.580962   5.363585   4.646578
    18  H    6.398726   6.924620   6.275173   4.652580   2.703732
    19  H    4.079025   4.864394   4.598018   3.974976   1.083117
    20  H    2.143751   3.394656   3.865562   4.676350   2.680783
    21  H    1.082776   2.152530   3.394371   5.372835   4.598683
    22  H    2.157005   1.082706   2.153786   4.646722   5.315039
    23  H    3.394038   2.150474   1.085199   2.686301   4.600758
    24  H    4.779351   4.104167   2.776002   1.105674   3.684376
    25  H    4.779407   4.104232   2.776068   1.105676   3.684377
                   11         12         13         14         15
    11  C    0.000000
    12  C    1.400483   0.000000
    13  C    2.529374   2.880300   0.000000
    14  C    2.869859   2.481050   1.421368   0.000000
    15  H    2.170523   3.422469   4.162692   4.915424   0.000000
    16  H    3.447389   3.941702   5.956391   6.221134   2.487053
    17  H    3.885287   3.429781   6.211315   5.892342   4.286061
    18  H    3.383506   2.147744   4.906419   4.106865   4.940444
    19  H    3.432205   2.182112   3.440107   2.164122   5.568175
    20  H    4.902260   4.116501   3.410493   2.156540   7.022756
    21  H    6.189661   5.878806   3.880206   3.415780   8.034101
    22  H    5.915878   6.181238   3.402166   3.905504   7.240189
    23  H    4.149122   4.898298   2.142274   3.417654   4.990040
    24  H    2.104756   3.236798   2.140864   3.269080   2.630294
    25  H    2.104715   3.236771   2.140907   3.269108   2.630227
                   16         17         18         19         20
    16  H    0.000000
    17  H    2.493632   0.000000
    18  H    4.310369   2.475049   0.000000
    19  H    5.987900   4.803998   2.485286   0.000000
    20  H    8.052869   7.207891   4.947192   2.462073   0.000000
    21  H    9.608817   9.239864   7.187694   4.763446   2.463366
    22  H    9.294501   9.582749   8.006174   5.931062   4.290096
    23  H    7.256385   8.027889   6.998009   5.546771   4.950755
    24  H    4.797988   5.788573   5.308539   4.743954   5.355946
    25  H    4.797919   5.788516   5.308506   4.743955   5.355980
                   21         22         23         24         25
    21  H    0.000000
    22  H    2.486050   0.000000
    23  H    4.290557   2.475926   0.000000
    24  H    5.840588   4.838405   2.684829   0.000000
    25  H    5.840645   4.838474   2.684897   1.727971   0.000000
 Stoichiometry    C14H11(1+)
 Framework group  C1[X(C14H11)]
 Deg. of freedom    69
 Full point group                 C1      NOp   1
 Largest Abelian subgroup         C1      NOp   1
 Largest concise Abelian subgroup C1      NOp   1
                         Standard orientation:                         
 ---------------------------------------------------------------------
 Center     Atomic      Atomic             Coordinates (Angstroms)
 Number     Number       Type             X           Y           Z
 ---------------------------------------------------------------------
      1          6           0        2.516635   -1.354070    0.000000
      2          6           0        3.726176   -0.664124    0.000000
      3          6           0        3.696711    0.718942    0.000000
      4          6           0        2.447377    1.415317    0.000000
      5          6           0       -2.490451    1.407194    0.000000
      6          6           0       -3.688469    0.712878    0.000000
      7          6           0       -3.693871   -0.683184    0.000000
      8          6           0       -2.480664   -1.374067    0.000000
      9          6           0        0.011511   -1.458478    0.000000
     10          6           0       -0.028664    1.433167    0.000000
     11          6           0        1.259490   -0.664577    0.000000
     12          6           0        1.231542    0.735627    0.000000
     13          6           0       -1.269729   -0.692581    0.000000
     14          6           0       -1.249499    0.728644    0.000000
     15          1           0        2.508595   -2.439657    0.000000
     16          1           0        4.664966   -1.200505    0.000000
     17          1           0        4.615790    1.292642    0.000000
     18          1           0        2.455479    2.500501    0.000000
     19          1           0       -0.029757    2.516283    0.000000
     20          1           0       -2.491705    2.491479    0.000000
     21          1           0       -4.624010    1.258009    0.000000
     22          1           0       -4.629494   -1.228035    0.000000
     23          1           0       -2.481407   -2.459265    0.000000
     24          1           0        0.041453   -2.147788    0.863985
     25          1           0        0.041525   -2.147788   -0.863985
 ---------------------------------------------------------------------
 Rotational constants (GHZ):           2.1250431           0.4425319           0.3670603
 Standard basis: 6-311++G(d,p) (5D, 7F)
 There are   399 symmetry adapted cartesian basis functions of A   symmetry.
 There are   385 symmetry adapted basis functions of A   symmetry.
   385 basis functions,   603 primitive gaussians,   399 cartesian basis functions
    47 alpha electrons       47 beta electrons
       nuclear repulsion energy       779.3172884688 Hartrees.
 NAtoms=   25 NActive=   25 NUniq=   25 SFac= 1.00D+00 NAtFMM=   60 NAOKFM=F Big=F
 Integral buffers will be    131072 words long.
 Regular integral format.
 Two-electron integral symmetry is turned on.
 One-electron integrals computed using PRISM.
 NBasis=   385 RedAO= T EigKep=  1.15D-06  NBF=   385
 NBsUse=   379 1.00D-06 EigRej=  8.65D-07 NBFU=   379
 ExpMin= 3.60D-02 ExpMax= 4.56D+03 ExpMxC= 6.82D+02 IAcc=3 IRadAn=         5 AccDes= 0.00D+00
 Harris functional with IExCor= 1009 and IRadAn=       5 diagonalized for initial guess.
 HarFok:  IExCor= 1009 AccDes= 0.00D+00 IRadAn=         5 IDoV= 1 UseB2=F ITyADJ=14
 ICtDFT=  3500011 ScaDFX=  1.000000  1.000000  1.000000  1.000000
 FoFCou: FMM=F IPFlag=           0 FMFlag=      100000 FMFlg1=           0
         NFxFlg=           0 DoJE=T BraDBF=F KetDBF=T FulRan=T
         wScrn=  0.000000 ICntrl=       500 IOpCl=  0 I1Cent=   200000004 NGrid=           0
         NMat0=    1 NMatS0=      1 NMatT0=    0 NMatD0=    1 NMtDS0=    0 NMtDT0=    0
 Petite list used in FoFCou.
 Requested convergence on RMS density matrix=1.00D-08 within 128 cycles.
 Requested convergence on MAX density matrix=1.00D-06.
 Requested convergence on             energy=1.00D-06.
 No special actions if energy rises.
 SCF Done:  E(RM062X) =  -539.756845887     A.U. after   15 cycles
            NFock= 15  Conv=0.80D-08     -V/T= 2.0045
 DoSCS=F DFT=T ScalE2(SS,OS)=  1.000000  1.000000
 ExpMin= 3.60D-02 ExpMax= 4.56D+03 ExpMxC= 6.82D+02 IAcc=3 IRadAn=         5 AccDes= 0.00D+00
 HarFok:  IExCor=  205 AccDes= 0.00D+00 IRadAn=         5 IDoV=-2 UseB2=F ITyADJ=14
 ICtDFT= 12500011 ScaDFX=  1.000000  1.000000  1.000000  1.000000
 Range of M.O.s used for correlation:    15   379
 NBasis=   385 NAE=    47 NBE=    47 NFC=    14 NFV=     0
 NROrb=    365 NOA=    33 NOB=    33 NVA=   332 NVB=   332

 **** Warning!!: The largest alpha MO coefficient is  0.13422862D+03

 Orbital symmetries:
       Occupied  (A) (A) (A) (A) (A) (A) (A) (A) (A) (A) (A) (A)
                 (A) (A) (A) (A) (A) (A) (A) (A) (A) (A) (A) (A)
                 (A) (A) (A) (A) (A) (A) (A) (A) (A) (A) (A) (A)
                 (A) (A) (A) (A) (A) (A) (A) (A) (A) (A) (A)
       Virtual   (A) (A) (A) (A) (A) (A) (A) (A) (A) (A) (A) (A)
                 (A) (A) (A) (A) (A) (A) (A) (A) (A) (A) (A) (A)
                 (A) (A) (A) (A) (A) (A) (A) (A) (A) (A) (A) (A)
                 (A) (A) (A) (A) (A) (A) (A) (A) (A) (A) (A) (A)
                 (A) (A) (A) (A) (A) (A) (A) (A) (A) (A) (A) (A)
                 (A) (A) (A) (A) (A) (A) (A) (A) (A) (A) (A) (A)
                 (A) (A) (A) (A) (A) (A) (A) (A) (A) (A) (A) (A)
                 (A) (A) (A) (A) (A) (A) (A) (A) (A) (A) (A) (A)
                 (A) (A) (A) (A) (A) (A) (A) (A) (A) (A) (A) (A)
                 (A) (A) (A) (A) (A) (A) (A) (A) (A) (A) (A) (A)
                 (A) (A) (A) (A) (A) (A) (A) (A) (A) (A) (A) (A)
                 (A) (A) (A) (A) (A) (A) (A) (A) (A) (A) (A) (A)
                 (A) (A) (A) (A) (A) (A) (A) (A) (A) (A) (A) (A)
                 (A) (A) (A) (A) (A) (A) (A) (A) (A) (A) (A) (A)
                 (A) (A) (A) (A) (A) (A) (A) (A) (A) (A) (A) (A)
                 (A) (A) (A) (A) (A) (A) (A) (A) (A) (A) (A) (A)
                 (A) (A) (A) (A) (A) (A) (A) (A) (A) (A) (A) (A)
                 (A) (A) (A) (A) (A) (A) (A) (A) (A) (A) (A) (A)
                 (A) (A) (A) (A) (A) (A) (A) (A) (A) (A) (A) (A)
                 (A) (A) (A) (A) (A) (A) (A) (A) (A) (A) (A) (A)
                 (A) (A) (A) (A) (A) (A) (A) (A) (A) (A) (A) (A)
                 (A) (A) (A) (A) (A) (A) (A) (A) (A) (A) (A) (A)
                 (A) (A) (A) (A) (A) (A) (A) (A) (A) (A) (A) (A)
                 (A) (A) (A) (A) (A) (A) (A) (A) (A) (A) (A) (A)
                 (A) (A) (A) (A) (A) (A) (A) (A) (A) (A) (A) (A)
                 (A) (A) (A) (A) (A) (A) (A) (A) (A) (A) (A) (A)
                 (A) (A) (A) (A) (A) (A) (A) (A) (A) (A) (A) (A)
                 (A) (A) (A) (A) (A) (A) (A) (A)
    12 initial guesses have been made.
 Convergence on wavefunction:    0.001000000000000
 Iteration     1 Dimension    12 NMult     0 NNew     12
 CISAX will form    12 AO SS matrices at one time.
 New state      2 was old state      3
 New state      3 was old state      2
 Iteration     2 Dimension    18 NMult    12 NNew      6
 Iteration     3 Dimension    24 NMult    18 NNew      6
 Iteration     4 Dimension    30 NMult    24 NNew      6
 Iteration     5 Dimension    36 NMult    30 NNew      6
 Iteration     6 Dimension    40 NMult    36 NNew      4
 ***********************************************************************
 Excited states from <AA,BB:AA,BB> singles matrix:
 ***********************************************************************
 
 Ground to excited state transition densities written to RWF  633
 Ground to excited state transition electric dipole moments (Au):
       state          X           Y           Z        Dip. S.      Osc.
         1         0.0343     -0.5923      0.0000      0.3520      0.0237
         2         0.2991      0.2498     -0.0000      0.1518      0.0123
         3         2.5409     -0.0238      0.0000      6.4569      0.5491
 Ground to excited state transition velocity dipole moments (Au):
       state          X           Y           Z        Dip. S.      Osc.
         1        -0.0008      0.0670     -0.0000      0.0045      0.0297
         2        -0.0296     -0.0328     -0.0000      0.0020      0.0107
         3        -0.3268      0.0031     -0.0000      0.1068      0.5583
 Ground to excited state transition magnetic dipole moments (Au):
       state          X           Y           Z
         1         0.0000      0.0000      0.1446
         2        -0.0000     -0.0000      1.0117
         3        -0.0000      0.0000      1.0311
 Ground to excited state transition velocity quadrupole moments (Au):
       state          XX          YY          ZZ          XY          XZ          YZ
         1         0.2683      0.0314     -0.0090      0.0655      0.0000      0.0000
         2        -0.1236     -0.0188      0.0041      0.2970      0.0000      0.0000
         3         0.0746     -0.0034     -0.0007      0.1019      0.0000     -0.0000
 <0|del|b> * <b|rxdel|0> + <0|del|b> * <b|delr+rdel|0>
 Rotatory Strengths (R) in cgs (10**-40 erg-esu-cm/Gauss)
       state          XX          YY          ZZ    R(velocity)    E-M Angle
         1         0.0004     -0.0002      0.0018      0.0007       90.00
         2        -0.0028     -0.0019      0.0004     -0.0015       90.00
         3        -0.0041      0.0013     -0.0005     -0.0011       90.00
 1/2[<0|r|b>*<b|rxdel|0> + (<0|rxdel|b>*<b|r|0>)*]
 Rotatory Strengths (R) in cgs (10**-40 erg-esu-cm/Gauss)
       state          XX          YY          ZZ     R(length)
         1        -0.0000      0.0024     -0.0002      0.0007
         2         0.0002      0.0009      0.0001      0.0004
         3         0.0041      0.0000     -0.0012      0.0009
  1/2[<0|del|b>*<b|r|0> + (<0|r|b>*<b|del|0>)*] (Au)
       state          X           Y           Z        Dip. S.   Osc.(frdel)
         1        -0.0000     -0.0397     -0.0000      0.0397      0.0265
         2        -0.0089     -0.0082      0.0000      0.0171      0.0114
         3        -0.8305     -0.0001     -0.0000      0.8305      0.5537

 Excitation energies and oscillator strengths:
 
 Excited State   1:      Singlet-A      2.7475 eV  451.26 nm  f=0.0237  <S**2>=0.000
      47 -> 48         0.70371
 This state for optimization and/or second-order correction.
 Total Energy, E(TD-HF/TD-DFT) =  -539.655875764    
 Copying the excited state density for this state as the 1-particle RhoCI density.
 
 Excited State   2:      Singlet-A      3.3014 eV  375.55 nm  f=0.0123  <S**2>=0.000
      45 -> 48         0.64145
      46 -> 48         0.28403
 
 Excited State   3:      Singlet-A      3.4712 eV  357.17 nm  f=0.5491  <S**2>=0.000
      45 -> 48        -0.28644
      46 -> 48         0.63719
 SavETr:  write IOETrn=   770 NScale= 10 NData=  16 NLR=1 NState=    3 LETran=      64.

 **********************************************************************

            Population analysis using the SCF Density.

 **********************************************************************

 Orbital symmetries:
       Occupied  (A) (A) (A) (A) (A) (A) (A) (A) (A) (A) (A) (A)
                 (A) (A) (A) (A) (A) (A) (A) (A) (A) (A) (A) (A)
                 (A) (A) (A) (A) (A) (A) (A) (A) (A) (A) (A) (A)
                 (A) (A) (A) (A) (A) (A) (A) (A) (A) (A) (A)
       Virtual   (A) (A) (A) (A) (A) (A) (A) (A) (A) (A) (A) (A)
                 (A) (A) (A) (A) (A) (A) (A) (A) (A) (A) (A) (A)
                 (A) (A) (A) (A) (A) (A) (A) (A) (A) (A) (A) (A)
                 (A) (A) (A) (A) (A) (A) (A) (A) (A) (A) (A) (A)
                 (A) (A) (A) (A) (A) (A) (A) (A) (A) (A) (A) (A)
                 (A) (A) (A) (A) (A) (A) (A) (A) (A) (A) (A) (A)
                 (A) (A) (A) (A) (A) (A) (A) (A) (A) (A) (A) (A)
                 (A) (A) (A) (A) (A) (A) (A) (A) (A) (A) (A) (A)
                 (A) (A) (A) (A) (A) (A) (A) (A) (A) (A) (A) (A)
                 (A) (A) (A) (A) (A) (A) (A) (A) (A) (A) (A) (A)
                 (A) (A) (A) (A) (A) (A) (A) (A) (A) (A) (A) (A)
                 (A) (A) (A) (A) (A) (A) (A) (A) (A) (A) (A) (A)
                 (A) (A) (A) (A) (A) (A) (A) (A) (A) (A) (A) (A)
                 (A) (A) (A) (A) (A) (A) (A) (A) (A) (A) (A) (A)
                 (A) (A) (A) (A) (A) (A) (A) (A) (A) (A) (A) (A)
                 (A) (A) (A) (A) (A) (A) (A) (A) (A) (A) (A) (A)
                 (A) (A) (A) (A) (A) (A) (A) (A) (A) (A) (A) (A)
                 (A) (A) (A) (A) (A) (A) (A) (A) (A) (A) (A) (A)
                 (A) (A) (A) (A) (A) (A) (A) (A) (A) (A) (A) (A)
                 (A) (A) (A) (A) (A) (A) (A) (A) (A) (A) (A) (A)
                 (A) (A) (A) (A) (A) (A) (A) (A) (A) (A) (A) (A)
                 (A) (A) (A) (A) (A) (A) (A) (A) (A) (A) (A) (A)
                 (A) (A) (A) (A) (A) (A) (A) (A) (A) (A) (A) (A)
                 (A) (A) (A) (A) (A) (A) (A) (A) (A) (A) (A) (A)
                 (A) (A) (A) (A) (A) (A) (A) (A) (A) (A) (A) (A)
                 (A) (A) (A) (A) (A) (A) (A) (A) (A) (A) (A) (A)
                 (A) (A) (A) (A) (A) (A) (A) (A) (A) (A) (A) (A)
                 (A) (A) (A) (A) (A) (A) (A) (A)
 The electronic state is 1-A.
 Alpha  occ. eigenvalues --  -10.77745 -10.73655 -10.73035 -10.72800 -10.72282
 Alpha  occ. eigenvalues --  -10.71743 -10.71735 -10.71181 -10.71074 -10.70505
 Alpha  occ. eigenvalues --  -10.70217 -10.69946 -10.69898 -10.69578  -1.16252
 Alpha  occ. eigenvalues --   -1.12262  -1.06762  -1.05606  -1.01171  -1.00126
 Alpha  occ. eigenvalues --   -0.95611  -0.90934  -0.86295  -0.85775  -0.83728
 Alpha  occ. eigenvalues --   -0.78308  -0.75897  -0.74267  -0.69586  -0.69172
 Alpha  occ. eigenvalues --   -0.68362  -0.68046  -0.68000  -0.64862  -0.64189
 Alpha  occ. eigenvalues --   -0.62821  -0.61718  -0.60106  -0.59357  -0.59107
 Alpha  occ. eigenvalues --   -0.56852  -0.55313  -0.54594  -0.52330  -0.46810
 Alpha  occ. eigenvalues --   -0.46027  -0.44182
 Alpha virt. eigenvalues --   -0.26114  -0.14716  -0.14131  -0.12836  -0.11171
 Alpha virt. eigenvalues --   -0.10086  -0.09239  -0.07999  -0.07977  -0.07483
 Alpha virt. eigenvalues --   -0.07199  -0.07157  -0.05658  -0.05589  -0.05362
 Alpha virt. eigenvalues --   -0.03824  -0.03632  -0.03297  -0.03159  -0.02167
 Alpha virt. eigenvalues --   -0.01352  -0.00936   0.00176   0.00580   0.00630
 Alpha virt. eigenvalues --    0.01060   0.01504   0.01918   0.02152   0.02295
 Alpha virt. eigenvalues --    0.02435   0.02651   0.02679   0.03254   0.03402
 Alpha virt. eigenvalues --    0.04225   0.04478   0.04693   0.04993   0.05339
 Alpha virt. eigenvalues --    0.06035   0.06246   0.06576   0.07026   0.07247
 Alpha virt. eigenvalues --    0.07870   0.08050   0.08326   0.08519   0.08888
 Alpha virt. eigenvalues --    0.09483   0.09525   0.09929   0.10713   0.10897
 Alpha virt. eigenvalues --    0.11101   0.12091   0.12203   0.12760   0.12964
 Alpha virt. eigenvalues --    0.13380   0.13512   0.13970   0.14243   0.15950
 Alpha virt. eigenvalues --    0.16266   0.16311   0.17311   0.17515   0.17717
 Alpha virt. eigenvalues --    0.18038   0.18964   0.19241   0.19538   0.19714
 Alpha virt. eigenvalues --    0.21438   0.21525   0.22561   0.23005   0.23477
 Alpha virt. eigenvalues --    0.23759   0.24543   0.25282   0.26829   0.27470
 Alpha virt. eigenvalues --    0.28707   0.29235   0.29760   0.31254   0.35476
 Alpha virt. eigenvalues --    0.36113   0.38121   0.39211   0.41072   0.41400
 Alpha virt. eigenvalues --    0.41819   0.42228   0.43017   0.43561   0.44353
 Alpha virt. eigenvalues --    0.44636   0.44861   0.45863   0.46072   0.47949
 Alpha virt. eigenvalues --    0.48513   0.48769   0.49069   0.50478   0.51008
 Alpha virt. eigenvalues --    0.51177   0.51749   0.52127   0.52640   0.53953
 Alpha virt. eigenvalues --    0.54086   0.54529   0.55650   0.55781   0.57504
 Alpha virt. eigenvalues --    0.58190   0.58749   0.61378   0.62095   0.62216
 Alpha virt. eigenvalues --    0.63037   0.63436   0.64707   0.65028   0.67134
 Alpha virt. eigenvalues --    0.70230   0.70472   0.70838   0.72324   0.72735
 Alpha virt. eigenvalues --    0.75631   0.75869   0.76257   0.76796   0.77105
 Alpha virt. eigenvalues --    0.77729   0.77853   0.78143   0.79924   0.80268
 Alpha virt. eigenvalues --    0.81123   0.81558   0.82131   0.82842   0.85068
 Alpha virt. eigenvalues --    0.86984   0.88013   0.88421   0.89063   0.90424
 Alpha virt. eigenvalues --    0.90907   0.91261   0.93140   0.94428   0.96308
 Alpha virt. eigenvalues --    0.96593   1.00274   1.01114   1.01511   1.02609
 Alpha virt. eigenvalues --    1.03045   1.03440   1.04605   1.05483   1.08589
 Alpha virt. eigenvalues --    1.19442   1.23041   1.23915   1.24823   1.28170
 Alpha virt. eigenvalues --    1.29543   1.31867   1.34144   1.35641   1.35822
 Alpha virt. eigenvalues --    1.39166   1.39788   1.40686   1.42886   1.43181
 Alpha virt. eigenvalues --    1.43284   1.44276   1.45614   1.46152   1.46471
 Alpha virt. eigenvalues --    1.47465   1.47700   1.51436   1.53391   1.55250
 Alpha virt. eigenvalues --    1.55508   1.56074   1.56344   1.57563   1.61069
 Alpha virt. eigenvalues --    1.63046   1.63319   1.63905   1.65932   1.67930
 Alpha virt. eigenvalues --    1.68114   1.68492   1.69540   1.74103   1.75597
 Alpha virt. eigenvalues --    1.76794   1.77907   1.79568   1.79748   1.80612
 Alpha virt. eigenvalues --    1.82701   1.82862   1.83348   1.83643   1.83876
 Alpha virt. eigenvalues --    1.84125   1.85463   1.85978   1.88118   1.91098
 Alpha virt. eigenvalues --    1.91829   1.93718   1.95061   1.97331   1.97780
 Alpha virt. eigenvalues --    1.99533   2.01943   2.03942   2.06903   2.11385
 Alpha virt. eigenvalues --    2.11640   2.13803   2.14742   2.18551   2.20675
 Alpha virt. eigenvalues --    2.22241   2.28068   2.29546   2.33918   2.34335
 Alpha virt. eigenvalues --    2.35659   2.38248   2.39296   2.41785   2.44307
 Alpha virt. eigenvalues --    2.45667   2.45691   2.48755   2.52371   2.53044
 Alpha virt. eigenvalues --    2.54099   2.56695   2.57721   2.58380   2.59425
 Alpha virt. eigenvalues --    2.59866   2.61267   2.61900   2.63497   2.63565
 Alpha virt. eigenvalues --    2.64736   2.64976   2.65185   2.65521   2.67473
 Alpha virt. eigenvalues --    2.67763   2.70506   2.70803   2.73191   2.74657
 Alpha virt. eigenvalues --    2.76131   2.77661   2.79536   2.82030   2.82926
 Alpha virt. eigenvalues --    2.83927   2.86053   2.91773   2.96799   2.99156
 Alpha virt. eigenvalues --    2.99769   3.04265   3.09129   3.10481   3.12699
 Alpha virt. eigenvalues --    3.19943   3.22149   3.25819   3.27716   3.29916
 Alpha virt. eigenvalues --    3.31927   3.33324   3.42905   3.45276   3.45806
 Alpha virt. eigenvalues --    3.47372   3.48896   3.55794   3.65877   3.66111
 Alpha virt. eigenvalues --    3.66988   3.93532   3.93834   3.94854   3.95828
 Alpha virt. eigenvalues --    4.03417   4.06232   4.07101   4.12004   4.35029
 Alpha virt. eigenvalues --    4.60360   4.68922   4.70802  23.45093  23.59918
 Alpha virt. eigenvalues --   23.80543  23.83019  23.85605  23.88286  23.90421
 Alpha virt. eigenvalues --   23.93224  23.95127  23.96582  24.00448  24.02213
 Alpha virt. eigenvalues --   24.09481  24.10217
     Molecular Orbital Coefficients:
                          43        44        45        46        47
                           O         O         O         O         O
     Eigenvalues --    -0.54594  -0.52330  -0.46810  -0.46027  -0.44182
   1 1   C  1S         -0.00303  -0.00000   0.00000   0.00000  -0.00000
   2        2S         -0.00500  -0.00000   0.00000   0.00000  -0.00000
   3        2PX        -0.09030  -0.00000   0.00000   0.00000  -0.00000
   4        2PY         0.02211  -0.00000  -0.00000  -0.00000   0.00000
   5        2PZ        -0.00000   0.07530   0.06290  -0.05129   0.11739
   6        3S          0.01562   0.00000  -0.00000  -0.00000   0.00000
   7        3PX        -0.12934  -0.00000   0.00000   0.00000  -0.00000
   8        3PY         0.03172  -0.00000  -0.00000  -0.00000   0.00000
   9        3PZ        -0.00000   0.12097   0.10214  -0.08328   0.19234
  10        4S         -0.01944   0.00000  -0.00000  -0.00000  -0.00000
  11        4PX        -0.07203   0.00000   0.00000   0.00000  -0.00000
  12        4PY         0.02113   0.00000  -0.00000  -0.00000  -0.00000
  13        4PZ        -0.00000   0.09965   0.08959  -0.07547   0.17348
  14        5S          0.10432  -0.00000  -0.00003  -0.00002  -0.00001
  15        5PX         0.13063   0.00000   0.00003   0.00002   0.00002
  16        5PY         0.01848   0.00000   0.00000   0.00000   0.00000
  17        5PZ        -0.00000  -0.00038   0.03186  -0.00481   0.03575
  18        6D 0        0.00030   0.00000  -0.00000  -0.00000  -0.00000
  19        6D+1        0.00000   0.00842  -0.00364  -0.01519  -0.00891
  20        6D-1       -0.00000   0.00775   0.00343  -0.00384   0.00716
  21        6D+2        0.00582  -0.00000   0.00000   0.00000  -0.00000
  22        6D-2       -0.01045  -0.00000   0.00000   0.00000  -0.00000
  23 2   C  1S          0.00266   0.00000  -0.00000  -0.00000   0.00000
  24        2S          0.00443   0.00000  -0.00000  -0.00000   0.00000
  25        2PX         0.07481   0.00000  -0.00000  -0.00000   0.00000
  26        2PY        -0.01614   0.00000  -0.00000  -0.00000   0.00000
  27        2PZ         0.00000   0.10245   0.01599  -0.10717   0.00652
  28        3S         -0.01507  -0.00000   0.00000   0.00000  -0.00000
  29        3PX         0.10819   0.00000  -0.00000  -0.00000   0.00000
  30        3PY        -0.02320   0.00000  -0.00000  -0.00000   0.00000
  31        3PZ         0.00000   0.16866   0.02692  -0.17613   0.01096
  32        4S          0.01129  -0.00000   0.00000   0.00000   0.00000
  33        4PX         0.08195   0.00000  -0.00000  -0.00000  -0.00000
  34        4PY        -0.02480   0.00000   0.00000   0.00000   0.00000
  35        4PZ         0.00000   0.12648   0.02088  -0.14903   0.01000
  36        5S         -0.12481   0.00000   0.00000  -0.00000   0.00000
  37        5PX         0.05259  -0.00000   0.00000   0.00000   0.00000
  38        5PY         0.07436   0.00000   0.00002   0.00001   0.00001
  39        5PZ         0.00000   0.00216  -0.01802  -0.00701  -0.00098
  40        6D 0        0.00016   0.00000   0.00000   0.00000  -0.00000
  41        6D+1        0.00000  -0.00947  -0.00607   0.00638  -0.01148
  42        6D-1        0.00000   0.00566  -0.00839  -0.00508  -0.01951
  43        6D+2        0.00791   0.00000  -0.00000  -0.00000   0.00000
  44        6D-2       -0.01764  -0.00000   0.00000   0.00000  -0.00000
  45 3   C  1S          0.00007  -0.00000  -0.00000   0.00000   0.00000
  46        2S          0.00010  -0.00000  -0.00000   0.00000   0.00000
  47        2PX        -0.06904  -0.00000   0.00000   0.00000  -0.00000
  48        2PY         0.02448  -0.00000  -0.00000  -0.00000  -0.00000
  49        2PZ         0.00000   0.07776  -0.04353  -0.06537  -0.11118
  50        3S          0.00177   0.00000   0.00000   0.00000  -0.00000
  51        3PX        -0.09959  -0.00000   0.00000   0.00000  -0.00000
  52        3PY         0.03479  -0.00000  -0.00000  -0.00000  -0.00000
  53        3PZ         0.00000   0.12644  -0.07183  -0.10590  -0.18272
  54        4S         -0.02578   0.00000  -0.00000  -0.00000  -0.00000
  55        4PX        -0.06736  -0.00000   0.00000   0.00000   0.00000
  56        4PY         0.01030  -0.00000   0.00000   0.00000   0.00000
  57        4PZ         0.00000   0.09850  -0.06220  -0.09282  -0.16302
  58        5S          0.01630  -0.00000  -0.00003  -0.00002  -0.00002
  59        5PX        -0.03666   0.00000  -0.00000  -0.00000  -0.00000
  60        5PY         0.06301   0.00000   0.00001   0.00001   0.00001
  61        5PZ        -0.00000   0.00748   0.01404  -0.01606  -0.01528
  62        6D 0       -0.00006  -0.00000   0.00000   0.00000  -0.00000
  63        6D+1       -0.00000  -0.00325   0.00671  -0.00271   0.01159
  64        6D-1        0.00000  -0.01136  -0.00493   0.01423  -0.00604
  65        6D+2        0.00190  -0.00000   0.00000  -0.00000  -0.00000
  66        6D-2       -0.01434  -0.00000   0.00000   0.00000  -0.00000
  67 4   C  1S         -0.00204   0.00000  -0.00000   0.00000   0.00000
  68        2S         -0.00339   0.00000  -0.00000   0.00000   0.00000
  69        2PX         0.07164   0.00000  -0.00000  -0.00000   0.00000
  70        2PY        -0.02395   0.00000  -0.00000   0.00000   0.00000
  71        2PZ         0.00000   0.01374  -0.06844   0.04056  -0.11683
  72        3S          0.01019  -0.00000   0.00000   0.00000  -0.00000
  73        3PX         0.10182   0.00000  -0.00000  -0.00000   0.00000
  74        3PY        -0.03440   0.00000  -0.00000   0.00000   0.00000
  75        3PZ         0.00000   0.02133  -0.11253   0.06567  -0.19046
  76        4S          0.03261  -0.00000   0.00000   0.00000   0.00000
  77        4PX         0.07187   0.00000  -0.00000  -0.00000   0.00000
  78        4PY        -0.03957   0.00000  -0.00000  -0.00000  -0.00000
  79        4PZ         0.00000   0.02537  -0.09396   0.05058  -0.18573
  80        5S          0.19688  -0.00001   0.00000   0.00000   0.00001
  81        5PX        -0.11543   0.00000  -0.00000  -0.00000  -0.00001
  82        5PY        -0.03920   0.00000  -0.00000  -0.00000  -0.00000
  83        5PZ         0.00000  -0.01315  -0.03026   0.02909  -0.02599
  84        6D 0       -0.00008   0.00000   0.00000   0.00000  -0.00000
  85        6D+1       -0.00000   0.01255  -0.00067  -0.01707  -0.01052
  86        6D-1       -0.00000  -0.00330   0.00411  -0.00190   0.00625
  87        6D+2        0.00573  -0.00000   0.00000  -0.00000  -0.00000
  88        6D-2       -0.00937  -0.00000   0.00000   0.00000   0.00000
  89 5   C  1S         -0.00326  -0.00000   0.00000   0.00000  -0.00000
  90        2S         -0.00541  -0.00000   0.00000   0.00000  -0.00000
  91        2PX         0.07701   0.00000  -0.00000  -0.00000   0.00000
  92        2PY        -0.03544  -0.00000   0.00000   0.00000  -0.00000
  93        2PZ         0.00000   0.00879   0.12516  -0.01535  -0.05926
  94        3S          0.01778   0.00000  -0.00000  -0.00000   0.00000
  95        3PX         0.10968   0.00000  -0.00000  -0.00000   0.00000
  96        3PY        -0.05130  -0.00000   0.00000   0.00000  -0.00000
  97        3PZ         0.00000   0.01293   0.20506  -0.02506  -0.09600
  98        4S         -0.03332   0.00000   0.00000   0.00000   0.00000
  99        4PX         0.05122   0.00000  -0.00000   0.00000   0.00000
 100        4PY        -0.03419  -0.00000  -0.00000  -0.00000  -0.00000
 101        4PZ         0.00000   0.01829   0.18135  -0.01532  -0.09772
 102        5S         -0.20817   0.00001   0.00002   0.00001  -0.00000
 103        5PX        -0.08088   0.00000   0.00001   0.00001   0.00000
 104        5PY         0.04759  -0.00000  -0.00000  -0.00000   0.00000
 105        5PZ         0.00000  -0.01671   0.03795  -0.02608  -0.00735
 106        6D 0        0.00055  -0.00000   0.00000  -0.00000   0.00000
 107        6D+1        0.00000  -0.01405  -0.00663  -0.01805   0.00461
 108        6D-1       -0.00000  -0.00298  -0.00778   0.00014   0.00328
 109        6D+2        0.01036   0.00000  -0.00000  -0.00000   0.00000
 110        6D-2       -0.00860  -0.00000  -0.00000  -0.00000   0.00000
 111 6   C  1S          0.00122   0.00000   0.00000   0.00000  -0.00000
 112        2S          0.00204   0.00000   0.00000   0.00000  -0.00000
 113        2PX        -0.06051  -0.00000   0.00000   0.00000  -0.00000
 114        2PY         0.03239   0.00000  -0.00000  -0.00000   0.00000
 115        2PZ         0.00000   0.07489   0.09932   0.07753  -0.04861
 116        3S         -0.00790  -0.00000  -0.00000  -0.00000   0.00000
 117        3PX        -0.08712  -0.00000   0.00000   0.00000  -0.00000
 118        3PY         0.04678   0.00000  -0.00000  -0.00000  -0.00000
 119        3PZ         0.00000   0.12193   0.16335   0.12640  -0.07989
 120        4S          0.01800  -0.00000  -0.00000  -0.00000  -0.00000
 121        4PX        -0.07108  -0.00000  -0.00000  -0.00000  -0.00000
 122        4PY         0.03677   0.00000   0.00000   0.00000   0.00000
 123        4PZ         0.00000   0.09655   0.13994   0.11243  -0.07045
 124        5S          0.04464   0.00001  -0.00003  -0.00002  -0.00001
 125        5PX        -0.01441   0.00000   0.00000   0.00000   0.00000
 126        5PY        -0.04714  -0.00000   0.00001   0.00001   0.00000
 127        5PZ        -0.00000   0.00981  -0.00491   0.01988  -0.01660
 128        6D 0        0.00042   0.00000   0.00000   0.00000   0.00000
 129        6D+1        0.00000   0.00295   0.01297  -0.00029  -0.00598
 130        6D-1        0.00000  -0.01120   0.00843  -0.01185  -0.00482
 131        6D+2        0.00915   0.00000  -0.00000  -0.00000   0.00000
 132        6D-2       -0.01585  -0.00000   0.00000   0.00000  -0.00000
 133 7   C  1S         -0.00184  -0.00000   0.00000   0.00000  -0.00000
 134        2S         -0.00304  -0.00000   0.00000   0.00000  -0.00000
 135        2PX         0.06692   0.00000  -0.00000  -0.00000   0.00000
 136        2PY        -0.04321  -0.00000   0.00000   0.00000  -0.00000
 137        2PZ         0.00000   0.10135  -0.02236   0.09701   0.01781
 138        3S          0.01025   0.00000  -0.00000  -0.00000   0.00000
 139        3PX         0.09571   0.00000  -0.00000  -0.00000   0.00000
 140        3PY        -0.06120  -0.00000   0.00000   0.00000  -0.00000
 141        3PZ         0.00000   0.16712  -0.03724   0.15962   0.02901
 142        4S         -0.02389   0.00000   0.00000   0.00000  -0.00000
 143        4PX         0.06006   0.00000   0.00000   0.00000   0.00000
 144        4PY        -0.03278  -0.00000   0.00000   0.00000   0.00000
 145        4PZ         0.00000   0.12724  -0.03063   0.13659   0.02716
 146        5S          0.05938  -0.00000  -0.00000  -0.00001  -0.00000
 147        5PX         0.02787   0.00000  -0.00001  -0.00000  -0.00000
 148        5PY        -0.05886  -0.00000   0.00002   0.00001   0.00001
 149        5PZ         0.00000   0.00010   0.01406   0.00470   0.01264
 150        6D 0        0.00016  -0.00000  -0.00000  -0.00000   0.00000
 151        6D+1       -0.00000   0.00909  -0.01211   0.00351   0.00656
 152        6D-1        0.00000   0.00536   0.01789   0.00775  -0.00908
 153        6D+2        0.00267  -0.00000   0.00000   0.00000  -0.00000
 154        6D-2       -0.01241  -0.00000   0.00000   0.00000  -0.00000
 155 8   C  1S          0.00066   0.00000  -0.00000   0.00000   0.00000
 156        2S          0.00107   0.00000  -0.00000   0.00000   0.00000
 157        2PX        -0.07118  -0.00000   0.00000   0.00000  -0.00000
 158        2PY         0.03417   0.00000   0.00000   0.00000  -0.00000
 159        2PZ        -0.00000   0.07338  -0.12271   0.02524   0.06316
 160        3S         -0.00190  -0.00000   0.00000  -0.00000  -0.00000
 161        3PX        -0.10008  -0.00000   0.00000   0.00000  -0.00000
 162        3PY         0.04968   0.00000  -0.00000  -0.00000  -0.00000
 163        3PZ        -0.00000   0.11816  -0.20050   0.04118   0.10417
 164        4S          0.01445  -0.00000  -0.00000  -0.00000  -0.00000
 165        4PX        -0.07436   0.00000   0.00000   0.00000  -0.00000
 166        4PY         0.05967  -0.00000  -0.00000  -0.00000  -0.00000
 167        4PZ        -0.00000   0.09792  -0.17417   0.03902   0.09378
 168        5S         -0.10148   0.00000  -0.00002  -0.00002  -0.00002
 169        5PX         0.08469   0.00000  -0.00003  -0.00002  -0.00002
 170        5PY        -0.00235  -0.00000   0.00000   0.00000   0.00000
 171        5PZ        -0.00000   0.00161  -0.04498   0.00044   0.00870
 172        6D 0       -0.00026  -0.00000  -0.00000  -0.00000   0.00000
 173        6D+1       -0.00000  -0.00876  -0.00769  -0.01565   0.00155
 174        6D-1       -0.00000   0.00742  -0.00804   0.00194   0.00461
 175        6D+2        0.01170   0.00000  -0.00000  -0.00000   0.00000
 176        6D-2       -0.01002  -0.00000   0.00000   0.00000  -0.00000
 177 9   C  1S         -0.00325  -0.00000  -0.00000  -0.00000  -0.00000
 178        2S         -0.00540  -0.00000  -0.00000  -0.00000  -0.00000
 179        2PX        -0.09049  -0.00000   0.00000   0.00000  -0.00000
 180        2PY         0.03159  -0.00000  -0.00000  -0.00000  -0.00000
 181        2PZ        -0.00000  -0.00655   0.02084   0.00507  -0.05722
 182        3S          0.01732   0.00000   0.00000   0.00000   0.00000
 183        3PX        -0.13586  -0.00000   0.00000   0.00000  -0.00000
 184        3PY         0.04684  -0.00000  -0.00000  -0.00000  -0.00000
 185        3PZ        -0.00001  -0.00753   0.03165   0.00788  -0.08734
 186        4S         -0.00006  -0.00000   0.00001   0.00001   0.00001
 187        4PX        -0.09517   0.00000   0.00000   0.00000   0.00000
 188        4PY         0.04694  -0.00000  -0.00000  -0.00000  -0.00000
 189        4PZ        -0.00001  -0.04332   0.03052   0.00776  -0.08834
 190        5S         -0.00870  -0.00000   0.00003   0.00002   0.00002
 191        5PX         0.32381  -0.00000  -0.00000  -0.00000   0.00000
 192        5PY         0.00461  -0.00000   0.00001   0.00000   0.00000
 193        5PZ        -0.00000  -0.06940  -0.03214  -0.00898   0.08702
 194        6D 0       -0.00331  -0.00000   0.00000  -0.00000  -0.00000
 195        6D+1        0.00000   0.00030   0.01401   0.01083   0.00578
 196        6D-1        0.00000   0.00036  -0.00559  -0.00119   0.01732
 197        6D+2        0.00798   0.00000  -0.00000  -0.00000   0.00000
 198        6D-2       -0.00945  -0.00000   0.00000   0.00000  -0.00000
 199 10  C  1S         -0.00492  -0.00000  -0.00000  -0.00000  -0.00000
 200        2S         -0.00816  -0.00000  -0.00000  -0.00000  -0.00000
 201        2PX         0.07222   0.00000  -0.00000  -0.00000   0.00000
 202        2PY        -0.02670  -0.00000   0.00000   0.00000  -0.00000
 203        2PZ         0.00000  -0.10337  -0.00520  -0.00535   0.01590
 204        3S          0.02503   0.00000   0.00000   0.00000   0.00000
 205        3PX         0.10394   0.00000  -0.00000  -0.00000   0.00000
 206        3PY        -0.03844  -0.00000   0.00000   0.00000   0.00000
 207        3PZ         0.00000  -0.16848  -0.00890  -0.00866   0.02700
 208        4S          0.02464   0.00000  -0.00001  -0.00000  -0.00000
 209        4PX         0.08346  -0.00000  -0.00000  -0.00000   0.00000
 210        4PY        -0.04601  -0.00000   0.00000   0.00000   0.00000
 211        4PZ         0.00000  -0.13974  -0.00628  -0.00635   0.01940
 212        5S         -0.00372  -0.00000   0.00003   0.00002   0.00001
 213        5PX        -0.27008   0.00001   0.00001   0.00000  -0.00001
 214        5PY        -0.00408   0.00000   0.00000   0.00000   0.00000
 215        5PZ         0.00000  -0.01428   0.01858   0.00670  -0.05638
 216        6D 0        0.00074  -0.00000   0.00000   0.00000   0.00000
 217        6D+1       -0.00000   0.00184  -0.00699   0.02305   0.00026
 218        6D-1       -0.00000   0.00926   0.00130   0.00063  -0.00400
 219        6D+2        0.00979  -0.00000  -0.00000  -0.00000  -0.00000
 220        6D-2       -0.00914  -0.00000   0.00000   0.00000  -0.00000
 221 11  C  1S         -0.00068   0.00000  -0.00000  -0.00000   0.00000
 222        2S         -0.00115   0.00000  -0.00000  -0.00000   0.00000
 223        2PX         0.08031   0.00000  -0.00000  -0.00000   0.00000
 224        2PY        -0.03596   0.00000  -0.00000   0.00000   0.00000
 225        2PZ        -0.00000   0.00611   0.05272   0.06006   0.10822
 226        3S          0.00411  -0.00000   0.00000   0.00000  -0.00000
 227        3PX         0.11750   0.00000  -0.00000  -0.00000   0.00000
 228        3PY        -0.05144   0.00000  -0.00000   0.00000   0.00000
 229        3PZ        -0.00000   0.00941   0.08559   0.09970   0.17662
 230        4S          0.00458  -0.00000  -0.00000  -0.00000  -0.00001
 231        4PX         0.11315   0.00000   0.00000   0.00000   0.00001
 232        4PY        -0.05399   0.00000   0.00000   0.00000   0.00000
 233        4PZ        -0.00000   0.02171   0.09120   0.08187   0.18218
 234        5S          0.07332  -0.00000  -0.00005  -0.00003  -0.00002
 235        5PX         0.15549  -0.00001   0.00001   0.00001   0.00001
 236        5PY         0.21085  -0.00001  -0.00005  -0.00004  -0.00002
 237        5PZ         0.00000   0.01732  -0.01212   0.01951  -0.07196
 238        6D 0       -0.00035   0.00000  -0.00000  -0.00000  -0.00000
 239        6D+1        0.00000   0.00940   0.00434  -0.00629   0.01400
 240        6D-1        0.00000  -0.00982  -0.00851   0.01373  -0.00095
 241        6D+2        0.00785   0.00000  -0.00000  -0.00000  -0.00000
 242        6D-2       -0.01627  -0.00000   0.00000  -0.00000  -0.00000
 243 12  C  1S          0.00232  -0.00000   0.00000  -0.00000  -0.00000
 244        2S          0.00393  -0.00000   0.00000  -0.00000  -0.00000
 245        2PX        -0.06454  -0.00000   0.00000   0.00000  -0.00000
 246        2PY         0.03341  -0.00000  -0.00000  -0.00000  -0.00000
 247        2PZ         0.00000  -0.05686  -0.03030   0.11041   0.00953
 248        3S         -0.01149  -0.00000  -0.00000   0.00000   0.00000
 249        3PX        -0.09299  -0.00000   0.00000   0.00000  -0.00000
 250        3PY         0.04846  -0.00000  -0.00000  -0.00000  -0.00000
 251        3PZ         0.00000  -0.09356  -0.04734   0.18152   0.01495
 252        4S         -0.01341   0.00000  -0.00000  -0.00000  -0.00000
 253        4PX        -0.07917  -0.00000  -0.00000  -0.00000  -0.00000
 254        4PY         0.01862   0.00000   0.00000   0.00000  -0.00000
 255        4PZ         0.00000  -0.08529  -0.05978   0.17698   0.01676
 256        5S         -0.21029   0.00001   0.00007   0.00005   0.00003
 257        5PX        -0.29026   0.00001   0.00001   0.00000  -0.00001
 258        5PY         0.15546  -0.00000  -0.00003  -0.00002  -0.00001
 259        5PZ        -0.00000   0.01353   0.01565  -0.02981   0.07488
 260        6D 0       -0.00006   0.00000  -0.00000  -0.00000   0.00000
 261        6D+1       -0.00000   0.01244  -0.00537   0.00273  -0.01352
 262        6D-1        0.00000  -0.00467  -0.00999  -0.00293  -0.01854
 263        6D+2        0.00738  -0.00000   0.00000   0.00000  -0.00000
 264        6D-2       -0.01686  -0.00000   0.00000   0.00000  -0.00000
 265 13  C  1S         -0.00192  -0.00000   0.00000   0.00000  -0.00000
 266        2S         -0.00318  -0.00000   0.00000   0.00000  -0.00000
 267        2PX         0.07691   0.00000  -0.00000  -0.00000   0.00000
 268        2PY        -0.05430  -0.00000   0.00000   0.00000  -0.00000
 269        2PZ        -0.00000   0.00174  -0.10388  -0.07219   0.03924
 270        3S          0.00907   0.00000  -0.00000  -0.00000   0.00000
 271        3PX         0.11350   0.00000  -0.00000  -0.00000   0.00000
 272        3PY        -0.08013  -0.00000   0.00000   0.00000  -0.00000
 273        3PZ        -0.00000   0.00154  -0.16897  -0.12002   0.06386
 274        4S          0.02489   0.00000  -0.00000  -0.00000   0.00000
 275        4PX         0.10984   0.00000  -0.00001  -0.00000   0.00000
 276        4PY        -0.05481  -0.00000   0.00000   0.00000  -0.00000
 277        4PZ        -0.00000   0.01567  -0.17045  -0.10359   0.06355
 278        5S         -0.07634   0.00000  -0.00005  -0.00003  -0.00003
 279        5PX         0.12691  -0.00001  -0.00001  -0.00001  -0.00000
 280        5PY        -0.26445   0.00001  -0.00004  -0.00003  -0.00004
 281        5PZ         0.00000   0.01502   0.05971  -0.00431  -0.05764
 282        6D 0        0.00038  -0.00000  -0.00000  -0.00000   0.00000
 283        6D+1       -0.00000  -0.00974   0.01324  -0.00331  -0.00998
 284        6D-1        0.00000  -0.01143   0.00799  -0.01270   0.00132
 285        6D+2        0.00803  -0.00000  -0.00000  -0.00000  -0.00000
 286        6D-2       -0.01749  -0.00000   0.00000   0.00000  -0.00000
 287 14  C  1S          0.00082  -0.00000  -0.00000  -0.00000   0.00000
 288        2S          0.00136  -0.00000  -0.00000  -0.00000   0.00000
 289        2PX        -0.06838  -0.00000   0.00000   0.00000  -0.00000
 290        2PY         0.05033   0.00000  -0.00000  -0.00000   0.00000
 291        2PZ         0.00000  -0.07223   0.02306  -0.10735   0.00282
 292        3S         -0.00400   0.00000   0.00000   0.00000  -0.00000
 293        3PX        -0.09871  -0.00000   0.00000   0.00000  -0.00000
 294        3PY         0.07305   0.00000  -0.00000  -0.00000   0.00000
 295        3PZ         0.00000  -0.11847   0.03644  -0.17648   0.00235
 296        4S          0.02054  -0.00000   0.00000  -0.00000   0.00000
 297        4PX        -0.10520  -0.00000   0.00000   0.00000   0.00000
 298        4PY         0.07794  -0.00000  -0.00000   0.00000   0.00000
 299        4PZ         0.00000  -0.10766   0.04542  -0.17441   0.01346
 300        5S          0.24528  -0.00001   0.00006   0.00004   0.00004
 301        5PX        -0.25567   0.00001   0.00001   0.00000  -0.00001
 302        5PY        -0.18903   0.00001  -0.00003  -0.00002  -0.00002
 303        5PZ        -0.00000   0.01687  -0.05907   0.01400   0.05908
 304        6D 0        0.00008  -0.00000  -0.00000  -0.00000  -0.00000
 305        6D+1       -0.00000  -0.01242  -0.01194  -0.00058   0.00777
 306        6D-1        0.00000  -0.00511   0.01783   0.00504  -0.00729
 307        6D+2        0.00804   0.00000  -0.00000  -0.00000   0.00000
 308        6D-2       -0.01594  -0.00000   0.00000   0.00000  -0.00000
 309 15  H  1S         -0.01911   0.00000   0.00000  -0.00000   0.00000
 310        2S         -0.02819   0.00000   0.00000  -0.00000   0.00000
 311        3S         -0.01208   0.00000  -0.00000  -0.00000  -0.00000
 312        4S         -0.01240   0.00000   0.00000   0.00000   0.00000
 313        5PX        -0.00435  -0.00000  -0.00000   0.00000  -0.00000
 314        5PY        -0.00075   0.00000  -0.00000  -0.00000  -0.00000
 315        5PZ        -0.00000   0.00482   0.00459  -0.00356   0.00819
 316 16  H  1S          0.06863   0.00000  -0.00000  -0.00000   0.00000
 317        2S          0.09989   0.00000  -0.00000   0.00000   0.00000
 318        3S          0.03825  -0.00000   0.00000   0.00000   0.00000
 319        4S          0.00673   0.00000   0.00000   0.00000   0.00000
 320        5PX        -0.00345  -0.00000  -0.00000  -0.00000   0.00000
 321        5PY         0.00343   0.00000  -0.00000  -0.00000   0.00000
 322        5PZ         0.00000   0.00659   0.00118  -0.00734   0.00046
 323 17  H  1S         -0.04491  -0.00000   0.00000   0.00000  -0.00000
 324        2S         -0.06434  -0.00000   0.00000  -0.00000  -0.00000
 325        3S         -0.02548  -0.00000   0.00000   0.00000  -0.00000
 326        4S         -0.00569   0.00000  -0.00000  -0.00000  -0.00000
 327        5PX         0.00101   0.00000  -0.00000   0.00000   0.00000
 328        5PY         0.00449   0.00000  -0.00000  -0.00000   0.00000
 329        5PZ         0.00000   0.00495  -0.00302  -0.00439  -0.00796
 330 18  H  1S         -0.02158   0.00000  -0.00000   0.00000   0.00000
 331        2S         -0.03154   0.00000   0.00000   0.00000   0.00000
 332        3S         -0.01342   0.00000   0.00000   0.00000   0.00000
 333        4S          0.01493   0.00000   0.00000   0.00000   0.00000
 334        5PX         0.00430   0.00000  -0.00000   0.00000   0.00000
 335        5PY         0.00153  -0.00000  -0.00000  -0.00000  -0.00000
 336        5PZ         0.00000   0.00037  -0.00500   0.00294  -0.00824
 337 19  H  1S         -0.02464   0.00000   0.00000   0.00000   0.00000
 338        2S         -0.03565  -0.00000   0.00000   0.00000  -0.00000
 339        3S         -0.01724   0.00000  -0.00000  -0.00000  -0.00000
 340        4S         -0.00257  -0.00000  -0.00000   0.00000  -0.00000
 341        5PX         0.00393   0.00000  -0.00000  -0.00000   0.00000
 342        5PY         0.00063   0.00000   0.00000   0.00000   0.00000
 343        5PZ         0.00000  -0.00645  -0.00018  -0.00029   0.00054
 344 20  H  1S         -0.03353  -0.00000   0.00000   0.00000  -0.00000
 345        2S         -0.04954  -0.00000   0.00000   0.00000  -0.00000
 346        3S         -0.02521  -0.00000   0.00000   0.00000  -0.00000
 347        4S         -0.01912  -0.00000   0.00000   0.00000   0.00000
 348        5PX         0.00374   0.00000  -0.00000  -0.00000   0.00000
 349        5PY         0.00166   0.00000  -0.00000  -0.00000  -0.00000
 350        5PZ         0.00000   0.00001   0.00880  -0.00124  -0.00399
 351 21  H  1S          0.06633   0.00000  -0.00000  -0.00000   0.00000
 352        2S          0.09653   0.00000  -0.00000  -0.00000   0.00000
 353        3S          0.03649  -0.00000  -0.00000  -0.00000   0.00000
 354        4S          0.00533  -0.00000  -0.00000  -0.00000  -0.00000
 355        5PX         0.00394   0.00000  -0.00000  -0.00000   0.00000
 356        5PY        -0.00249  -0.00000   0.00000   0.00000  -0.00000
 357        5PZ         0.00000   0.00478   0.00688   0.00528  -0.00351
 358 22  H  1S         -0.03357  -0.00000   0.00000   0.00000  -0.00000
 359        2S         -0.04896  -0.00000   0.00000   0.00000  -0.00000
 360        3S         -0.02130   0.00000   0.00000   0.00000  -0.00000
 361        4S         -0.00811  -0.00000   0.00000   0.00000  -0.00000
 362        5PX         0.00002  -0.00000   0.00000   0.00000   0.00000
 363        5PY        -0.00455  -0.00000   0.00000   0.00000  -0.00000
 364        5PZ         0.00000   0.00648  -0.00156   0.00662   0.00118
 365 23  H  1S         -0.03699  -0.00000   0.00000   0.00000  -0.00000
 366        2S         -0.05195  -0.00000   0.00000  -0.00000  -0.00000
 367        3S         -0.02106   0.00000  -0.00000  -0.00000  -0.00000
 368        4S          0.01083  -0.00000   0.00000   0.00000   0.00000
 369        5PX        -0.00407  -0.00000   0.00000   0.00000  -0.00000
 370        5PY        -0.00226  -0.00000  -0.00000  -0.00000   0.00000
 371        5PZ        -0.00000   0.00471  -0.00855   0.00181   0.00422
 372 24  H  1S         -0.01883  -0.00353   0.01915   0.00459  -0.05359
 373        2S         -0.02698   0.00395   0.02986   0.00704  -0.08529
 374        3S         -0.01190   0.02552   0.02401   0.00547  -0.07138
 375        4S          0.00113   0.04559   0.01308   0.00277  -0.03862
 376        5PX        -0.00446   0.00004   0.00223   0.00078   0.00127
 377        5PY         0.00027   0.00087   0.00128   0.00029  -0.00309
 378        5PZ         0.00176   0.00012  -0.00056  -0.00010   0.00156
 379 25  H  1S         -0.01883   0.00353  -0.01915  -0.00459   0.05359
 380        2S         -0.02698  -0.00395  -0.02987  -0.00705   0.08529
 381        3S         -0.01189  -0.02552  -0.02402  -0.00548   0.07137
 382        4S          0.00113  -0.04559  -0.01309  -0.00278   0.03861
 383        5PX        -0.00446  -0.00004  -0.00223  -0.00078  -0.00127
 384        5PY         0.00027  -0.00087  -0.00128  -0.00029   0.00309
 385        5PZ        -0.00176   0.00012  -0.00056  -0.00010   0.00156
                          48        49        50        51        52
                           V         V         V         V         V
     Eigenvalues --    -0.26114  -0.14716  -0.14131  -0.12836  -0.11171
   1 1   C  1S         -0.00000  -0.00000   0.00000   0.00000  -0.00576
   2        2S         -0.00000  -0.00000   0.00000   0.00000  -0.00975
   3        2PX         0.00000  -0.00000  -0.00000  -0.00000   0.00347
   4        2PY        -0.00000  -0.00000   0.00000   0.00000  -0.01474
   5        2PZ        -0.00436   0.09972  -0.01349  -0.10348  -0.00000
   6        3S          0.00000   0.00000  -0.00000  -0.00000   0.03192
   7        3PX         0.00000  -0.00000   0.00000   0.00000   0.00341
   8        3PY        -0.00000  -0.00000   0.00000   0.00000  -0.02171
   9        3PZ        -0.00685   0.15319  -0.02016  -0.16352  -0.00000
  10        4S          0.00000   0.00000   0.00000   0.00000   0.02218
  11        4PX         0.00000   0.00000  -0.00000  -0.00000   0.02570
  12        4PY         0.00000   0.00000   0.00000   0.00000  -0.07817
  13        4PZ        -0.00676   0.28572  -0.03413  -0.28836  -0.00000
  14        5S         -0.00000   0.00000   0.00011   0.00009  -1.65164
  15        5PX         0.00000   0.00001  -0.00012  -0.00010   0.82899
  16        5PY         0.00000   0.00000  -0.00001  -0.00001  -0.44582
  17        5PZ         0.00977   0.21376   0.00743  -0.33481  -0.00001
  18        6D 0        0.00000   0.00000   0.00000  -0.00000  -0.00534
  19        6D+1        0.01602   0.00857   0.02425  -0.00265   0.00000
  20        6D-1       -0.00187  -0.00861   0.00191   0.00825  -0.00000
  21        6D+2        0.00000   0.00000  -0.00000  -0.00000   0.00143
  22        6D-2        0.00000  -0.00000  -0.00000  -0.00000  -0.00112
  23 2   C  1S         -0.00000   0.00000   0.00000   0.00000  -0.00450
  24        2S         -0.00000   0.00000   0.00000   0.00000  -0.00745
  25        2PX        -0.00000   0.00000   0.00000  -0.00000   0.00639
  26        2PY        -0.00000   0.00000   0.00000  -0.00000  -0.00052
  27        2PZ         0.07669  -0.01249   0.10031   0.04195   0.00000
  28        3S          0.00000   0.00000  -0.00000  -0.00000   0.02138
  29        3PX        -0.00000   0.00000   0.00000  -0.00000   0.01085
  30        3PY        -0.00000   0.00000   0.00000  -0.00000  -0.00246
  31        3PZ         0.12565  -0.01863   0.15968   0.06605   0.00000
  32        4S         -0.00000  -0.00000  -0.00000   0.00000   0.10650
  33        4PX         0.00000   0.00000   0.00000   0.00000  -0.00341
  34        4PY         0.00000  -0.00000  -0.00000  -0.00000   0.01157
  35        4PZ         0.14546  -0.03925   0.26489   0.11533   0.00000
  36        5S         -0.00000  -0.00001   0.00001   0.00001   0.52654
  37        5PX         0.00000   0.00000  -0.00002  -0.00002   0.20206
  38        5PY        -0.00000   0.00000  -0.00007  -0.00005   0.36827
  39        5PZ         0.04552  -0.02844   0.21278   0.12361   0.00001
  40        6D 0        0.00000   0.00000  -0.00000   0.00000  -0.00347
  41        6D+1        0.00174  -0.01258   0.00228   0.01416   0.00000
  42        6D-1        0.00127  -0.02190  -0.00970   0.01924   0.00000
  43        6D+2       -0.00000  -0.00000   0.00000   0.00000  -0.00211
  44        6D-2        0.00000   0.00000  -0.00000  -0.00000   0.00372
  45 3   C  1S         -0.00000  -0.00000   0.00000   0.00000  -0.00382
  46        2S         -0.00000  -0.00000   0.00000   0.00000  -0.00632
  47        2PX        -0.00000  -0.00000  -0.00000   0.00000   0.00705
  48        2PY        -0.00000  -0.00000   0.00000   0.00000   0.00048
  49        2PZ         0.01228  -0.09194  -0.06772   0.06817  -0.00000
  50        3S          0.00000   0.00000  -0.00000  -0.00000   0.01806
  51        3PX        -0.00000  -0.00000  -0.00000  -0.00000   0.01265
  52        3PY        -0.00000  -0.00000   0.00000   0.00000   0.00162
  53        3PZ         0.02122  -0.14426  -0.10746   0.10675  -0.00000
  54        4S          0.00000   0.00000   0.00000   0.00000   0.06516
  55        4PX        -0.00000  -0.00000  -0.00000  -0.00000   0.01354
  56        4PY        -0.00000  -0.00000  -0.00000  -0.00000   0.02060
  57        4PZ         0.01495  -0.24791  -0.18226   0.18395  -0.00000
  58        5S          0.00001  -0.00000   0.00011   0.00008   0.16787
  59        5PX        -0.00000  -0.00000   0.00001   0.00001  -0.02041
  60        5PY        -0.00000  -0.00000  -0.00004  -0.00003   0.38526
  61        5PZ         0.00296  -0.18721  -0.13847   0.18310  -0.00000
  62        6D 0        0.00000   0.00000   0.00000  -0.00000  -0.00377
  63        6D+1        0.00921  -0.01039   0.00573   0.01399   0.00000
  64        6D-1       -0.01346   0.00804  -0.01752  -0.01451  -0.00000
  65        6D+2        0.00000   0.00000   0.00000   0.00000  -0.00229
  66        6D-2        0.00000  -0.00000  -0.00000   0.00000  -0.00339
  67 4   C  1S         -0.00000  -0.00000  -0.00000   0.00000  -0.00612
  68        2S         -0.00000  -0.00000  -0.00000   0.00000  -0.01030
  69        2PX        -0.00000  -0.00000  -0.00000  -0.00000   0.00397
  70        2PY        -0.00000  -0.00000  -0.00000  -0.00000   0.01628
  71        2PZ        -0.07418   0.08834  -0.03881  -0.10621  -0.00000
  72        3S          0.00000   0.00000  -0.00000  -0.00000   0.03060
  73        3PX        -0.00000  -0.00000   0.00000  -0.00000   0.00426
  74        3PY        -0.00000  -0.00000   0.00000  -0.00000   0.02200
  75        3PZ        -0.12011   0.13500  -0.06195  -0.16882  -0.00000
  76        4S          0.00000  -0.00000  -0.00001  -0.00000   0.20197
  77        4PX        -0.00000  -0.00000   0.00000   0.00000  -0.04742
  78        4PY         0.00000   0.00000   0.00000   0.00000   0.02669
  79        4PZ        -0.13776   0.26195  -0.11907  -0.28988  -0.00000
  80        5S          0.00000  -0.00001  -0.00002  -0.00001   1.78921
  81        5PX        -0.00000   0.00000   0.00003   0.00002  -0.84027
  82        5PY         0.00000   0.00000   0.00000   0.00000   0.60216
  83        5PZ        -0.03179   0.23648  -0.15442  -0.31682  -0.00000
  84        6D 0        0.00000   0.00000   0.00000   0.00000  -0.00549
  85        6D+1        0.00174  -0.01443  -0.02277   0.00424  -0.00000
  86        6D-1        0.00371   0.00719  -0.00157  -0.00863  -0.00000
  87        6D+2        0.00000   0.00000   0.00000  -0.00000   0.00077
  88        6D-2       -0.00000  -0.00000  -0.00000   0.00000   0.00218
  89 5   C  1S          0.00000   0.00000  -0.00000   0.00000  -0.00723
  90        2S          0.00000   0.00000  -0.00000   0.00000  -0.01217
  91        2PX        -0.00000  -0.00000   0.00000   0.00000  -0.00379
  92        2PY         0.00000   0.00000  -0.00000  -0.00000   0.01862
  93        2PZ        -0.08294   0.08556   0.00729   0.11054   0.00000
  94        3S         -0.00000  -0.00000   0.00000  -0.00000   0.03669
  95        3PX        -0.00000  -0.00000   0.00000  -0.00000  -0.00403
  96        3PY         0.00000   0.00000   0.00000  -0.00000   0.02546
  97        3PZ        -0.13461   0.13131   0.01255   0.17563   0.00000
  98        4S          0.00000  -0.00000  -0.00001  -0.00000   0.20850
  99        4PX        -0.00000  -0.00000  -0.00000  -0.00000   0.04881
 100        4PY        -0.00000   0.00000   0.00000   0.00000   0.04238
 101        4PZ        -0.15730   0.26406   0.02277   0.31357   0.00000
 102        5S         -0.00000   0.00001  -0.00005  -0.00003   1.63890
 103        5PX        -0.00000  -0.00000  -0.00004  -0.00003   0.95126
 104        5PY        -0.00000   0.00000   0.00000   0.00000   0.72046
 105        5PZ        -0.03964   0.25577   0.07351   0.36511   0.00000
 106        6D 0       -0.00000  -0.00000   0.00000   0.00000  -0.00592
 107        6D+1       -0.00084   0.00745  -0.02842   0.00422  -0.00000
 108        6D-1        0.00360   0.00715   0.00032   0.01021   0.00000
 109        6D+2       -0.00000  -0.00000   0.00000  -0.00000   0.00158
 110        6D-2       -0.00000  -0.00000   0.00000  -0.00000  -0.00230
 111 6   C  1S          0.00000   0.00000  -0.00000   0.00000  -0.00482
 112        2S          0.00000   0.00000  -0.00000   0.00000  -0.00799
 113        2PX         0.00000  -0.00000   0.00000   0.00000  -0.00926
 114        2PY         0.00000   0.00000  -0.00000   0.00000   0.00139
 115        2PZ         0.00863  -0.06244   0.09751  -0.06874   0.00000
 116        3S         -0.00000  -0.00000  -0.00000  -0.00000   0.02327
 117        3PX        -0.00000  -0.00000   0.00000   0.00000  -0.01555
 118        3PY         0.00000   0.00000   0.00000   0.00000   0.00314
 119        3PZ         0.01602  -0.09808   0.15478  -0.10789   0.00000
 120        4S         -0.00000  -0.00000   0.00000   0.00000   0.08788
 121        4PX        -0.00000  -0.00000   0.00000   0.00000  -0.01921
 122        4PY         0.00000   0.00000  -0.00000  -0.00000   0.02268
 123        4PZ         0.00933  -0.17789   0.26507  -0.19667   0.00000
 124        5S         -0.00001   0.00003   0.00008   0.00006   0.30948
 125        5PX        -0.00000  -0.00000  -0.00001  -0.00001   0.01308
 126        5PY         0.00000  -0.00001  -0.00005  -0.00004   0.49228
 127        5PZ         0.00096  -0.13677   0.21138  -0.20328   0.00000
 128        6D 0       -0.00000  -0.00000   0.00000   0.00000  -0.00434
 129        6D+1       -0.01047   0.01052   0.00126   0.01471   0.00000
 130        6D-1       -0.01629   0.01197   0.01505   0.01669   0.00000
 131        6D+2       -0.00000  -0.00000   0.00000   0.00000  -0.00294
 132        6D-2        0.00000  -0.00000   0.00000  -0.00000   0.00422
 133 7   C  1S          0.00000   0.00000   0.00000   0.00000  -0.00561
 134        2S          0.00000   0.00000   0.00000   0.00000  -0.00932
 135        2PX        -0.00000   0.00000  -0.00000   0.00000  -0.00875
 136        2PY         0.00000   0.00000   0.00000  -0.00000  -0.00124
 137        2PZ         0.09331  -0.03617  -0.09835  -0.04772  -0.00000
 138        3S         -0.00000  -0.00000  -0.00000  -0.00000   0.02722
 139        3PX        -0.00000   0.00000  -0.00000   0.00000  -0.01421
 140        3PY         0.00000   0.00000   0.00000  -0.00000  -0.00373
 141        3PZ         0.15277  -0.05649  -0.15660  -0.07513  -0.00000
 142        4S          0.00000   0.00000  -0.00000   0.00000   0.12460
 143        4PX         0.00000   0.00000  -0.00000   0.00000  -0.00466
 144        4PY         0.00000  -0.00000  -0.00000  -0.00000   0.01044
 145        4PZ         0.17921  -0.10232  -0.26240  -0.13415  -0.00000
 146        5S          0.00000   0.00002   0.00003   0.00003   0.26002
 147        5PX         0.00000   0.00001   0.00003   0.00002  -0.35921
 148        5PY         0.00000  -0.00002  -0.00007  -0.00005   0.45605
 149        5PZ         0.05732  -0.08241  -0.21798  -0.14172  -0.00001
 150        6D 0       -0.00000  -0.00000   0.00000   0.00000  -0.00410
 151        6D+1       -0.00203   0.01180  -0.00117   0.01553   0.00000
 152        6D-1        0.00066  -0.01687   0.01580  -0.02048  -0.00000
 153        6D+2        0.00000   0.00000  -0.00000   0.00000  -0.00232
 154        6D-2        0.00000   0.00000   0.00000   0.00000  -0.00454
 155 8   C  1S          0.00000   0.00000  -0.00000   0.00000  -0.00680
 156        2S          0.00000   0.00000  -0.00000   0.00000  -0.01151
 157        2PX         0.00000   0.00000   0.00000   0.00000  -0.00352
 158        2PY         0.00000   0.00000  -0.00000   0.00000  -0.01622
 159        2PZ        -0.00450   0.09106  -0.00733   0.11277   0.00000
 160        3S         -0.00000  -0.00000   0.00000  -0.00000   0.03715
 161        3PX         0.00000  -0.00000  -0.00000  -0.00000  -0.00333
 162        3PY         0.00000   0.00000   0.00000   0.00000  -0.02372
 163        3PZ        -0.00655   0.14001  -0.01153   0.17892   0.00000
 164        4S         -0.00000  -0.00000   0.00000   0.00000   0.04076
 165        4PX         0.00000   0.00000   0.00000   0.00000  -0.02624
 166        4PY        -0.00000  -0.00000   0.00000   0.00000  -0.08291
 167        4PZ        -0.00515   0.26672  -0.03225   0.32341   0.00000
 168        5S         -0.00000   0.00002   0.00009   0.00008  -1.84918
 169        5PX        -0.00001   0.00004   0.00012   0.00010  -1.13226
 170        5PY         0.00000  -0.00001  -0.00001  -0.00001  -0.48416
 171        5PZ         0.01141   0.19834  -0.05548   0.37355   0.00001
 172        6D 0       -0.00000  -0.00000   0.00000  -0.00000  -0.00596
 173        6D+1       -0.01931  -0.00211   0.02690  -0.00294   0.00000
 174        6D-1       -0.00187  -0.00845  -0.00006  -0.00954   0.00000
 175        6D+2       -0.00000  -0.00000  -0.00000  -0.00000   0.00173
 176        6D-2        0.00000   0.00000   0.00000   0.00000   0.00148
 177 9   C  1S         -0.00000   0.00000   0.00000   0.00000  -0.01409
 178        2S         -0.00000   0.00000   0.00000   0.00000  -0.02369
 179        2PX         0.00000  -0.00000   0.00000  -0.00000   0.00086
 180        2PY        -0.00000   0.00000   0.00000   0.00000  -0.03076
 181        2PZ         0.02875  -0.01336   0.00283  -0.00085   0.00000
 182        3S          0.00000   0.00000  -0.00000   0.00000   0.06188
 183        3PX         0.00000  -0.00000   0.00000  -0.00000   0.00142
 184        3PY         0.00000   0.00000   0.00000   0.00000  -0.04662
 185        3PZ         0.03834  -0.02040   0.00403  -0.00131   0.00000
 186        4S          0.00000  -0.00000  -0.00004  -0.00001   0.43552
 187        4PX        -0.00000   0.00000  -0.00000  -0.00000   0.00853
 188        4PY        -0.00000   0.00000   0.00001   0.00000  -0.02389
 189        4PZ         0.07619  -0.10958   0.02604   0.00008   0.00000
 190        5S          0.00000  -0.00002  -0.00012  -0.00011   0.83605
 191        5PX        -0.00001   0.00002   0.00001   0.00000  -0.16449
 192        5PY         0.00000  -0.00000  -0.00002  -0.00002  -0.46832
 193        5PZ         0.13095  -0.43971   0.09034  -0.00934   0.00000
 194        6D 0        0.00000   0.00000   0.00000  -0.00000  -0.00876
 195        6D+1        0.00140  -0.00346  -0.02466   0.01276  -0.00000
 196        6D-1       -0.01955  -0.02895   0.00293  -0.00103  -0.00000
 197        6D+2       -0.00000  -0.00000   0.00000   0.00000   0.00243
 198        6D-2        0.00000   0.00000  -0.00000   0.00000  -0.00023
 199 10  C  1S         -0.00000  -0.00000   0.00000   0.00000  -0.01072
 200        2S         -0.00000  -0.00000   0.00000   0.00000  -0.01826
 201        2PX        -0.00000  -0.00000   0.00000  -0.00000   0.00064
 202        2PY        -0.00000   0.00000   0.00000  -0.00000   0.02381
 203        2PZ         0.17274   0.01461   0.01261   0.00653   0.00000
 204        3S          0.00000  -0.00000  -0.00000  -0.00000   0.06091
 205        3PX        -0.00000  -0.00000   0.00000  -0.00000   0.00103
 206        3PY         0.00000  -0.00000  -0.00000  -0.00000   0.03337
 207        3PZ         0.28104   0.02092   0.02082   0.01031   0.00000
 208        4S         -0.00000   0.00000   0.00001   0.00001   0.06870
 209        4PX        -0.00000  -0.00000   0.00000   0.00000  -0.00339
 210        4PY         0.00000  -0.00000  -0.00001  -0.00000   0.20792
 211        4PZ         0.34934   0.06849   0.03385   0.02252   0.00000
 212        5S          0.00000  -0.00001  -0.00010  -0.00008   1.55418
 213        5PX         0.00000   0.00002  -0.00001  -0.00001  -0.15745
 214        5PY         0.00000  -0.00000  -0.00001  -0.00000   1.96116
 215        5PZ         0.09868   0.32907  -0.00384   0.04588   0.00000
 216        6D 0        0.00000  -0.00000  -0.00000  -0.00000  -0.00747
 217        6D+1       -0.00050   0.00360   0.03026   0.00761   0.00000
 218        6D-1        0.00088   0.01307  -0.00063   0.00144   0.00000
 219        6D+2       -0.00000   0.00000   0.00000  -0.00000   0.00106
 220        6D-2        0.00000   0.00000  -0.00000  -0.00000   0.00013
 221 11  C  1S         -0.00000  -0.00000   0.00000  -0.00000  -0.00580
 222        2S         -0.00000  -0.00000   0.00000  -0.00000  -0.00998
 223        2PX        -0.00000  -0.00000   0.00000  -0.00000   0.00266
 224        2PY        -0.00000  -0.00000   0.00000  -0.00000   0.00945
 225        2PZ        -0.08284  -0.09715  -0.08554   0.06985  -0.00000
 226        3S          0.00000   0.00000  -0.00000  -0.00000   0.03999
 227        3PX        -0.00000  -0.00000   0.00000  -0.00000   0.00389
 228        3PY        -0.00000  -0.00000   0.00000  -0.00000   0.01337
 229        3PZ        -0.13347  -0.15069  -0.13400   0.11394  -0.00000
 230        4S          0.00001   0.00001   0.00000   0.00000  -0.02055
 231        4PX        -0.00000  -0.00000  -0.00001  -0.00000   0.12390
 232        4PY        -0.00000  -0.00000  -0.00001   0.00000   0.00866
 233        4PZ        -0.17313  -0.25626  -0.26495   0.18564  -0.00000
 234        5S          0.00000   0.00003   0.00017   0.00013  -3.69013
 235        5PX         0.00000  -0.00002  -0.00004  -0.00004   0.79228
 236        5PY        -0.00000  -0.00001   0.00020   0.00015  -2.24344
 237        5PZ        -0.10445   0.00064  -0.38695   0.23288  -0.00000
 238        6D 0        0.00000   0.00000   0.00000  -0.00000  -0.00767
 239        6D+1       -0.00417   0.01791  -0.00212  -0.01373  -0.00000
 240        6D-1       -0.00498  -0.01133   0.01884   0.01496   0.00000
 241        6D+2        0.00000   0.00000   0.00000  -0.00000  -0.00548
 242        6D-2       -0.00000  -0.00000   0.00000   0.00000   0.00150
 243 12  C  1S          0.00000   0.00000   0.00000   0.00000  -0.00643
 244        2S          0.00000   0.00000   0.00000   0.00000  -0.01096
 245        2PX         0.00000   0.00000   0.00000   0.00000   0.00060
 246        2PY         0.00000   0.00000   0.00000   0.00000  -0.01041
 247        2PZ        -0.01981  -0.00024   0.10370   0.04513   0.00000
 248        3S         -0.00000  -0.00000  -0.00000  -0.00000   0.03797
 249        3PX         0.00000   0.00000  -0.00000  -0.00000   0.00355
 250        3PY         0.00000   0.00000   0.00000   0.00000  -0.01437
 251        3PZ        -0.03165   0.00569   0.16316   0.07679   0.00000
 252        4S          0.00000  -0.00000   0.00000  -0.00000   0.13086
 253        4PX         0.00000   0.00000   0.00001   0.00000  -0.14719
 254        4PY         0.00000   0.00000  -0.00000   0.00000  -0.08245
 255        4PZ        -0.04011  -0.03289   0.31809   0.11256   0.00000
 256        5S          0.00000  -0.00003  -0.00027  -0.00021   5.23662
 257        5PX        -0.00000   0.00003  -0.00002  -0.00002  -0.62209
 258        5PY        -0.00001  -0.00000   0.00014   0.00010  -3.59981
 259        5PZ        -0.00249  -0.24235   0.43255   0.10665   0.00000
 260        6D 0       -0.00000  -0.00000   0.00000   0.00000  -0.00820
 261        6D+1       -0.02579   0.01364  -0.00848  -0.01474  -0.00000
 262        6D-1        0.01571   0.02578   0.01217  -0.01871   0.00000
 263        6D+2        0.00000  -0.00000  -0.00000   0.00000  -0.00446
 264        6D-2        0.00000   0.00000   0.00000   0.00000  -0.00267
 265 13  C  1S          0.00000   0.00000  -0.00000   0.00000  -0.00634
 266        2S          0.00000   0.00000  -0.00000   0.00000  -0.01090
 267        2PX        -0.00000  -0.00000   0.00000   0.00000  -0.00203
 268        2PY         0.00000   0.00000  -0.00000   0.00000   0.00982
 269        2PZ        -0.09239  -0.06405   0.10595  -0.07456   0.00000
 270        3S         -0.00000  -0.00000  -0.00000  -0.00000   0.04318
 271        3PX        -0.00000  -0.00000   0.00000   0.00000  -0.00262
 272        3PY         0.00000   0.00000  -0.00000  -0.00000   0.01451
 273        3PZ        -0.14886  -0.09921   0.16605  -0.12154   0.00000
 274        4S         -0.00001  -0.00000   0.00000  -0.00000  -0.00093
 275        4PX        -0.00000  -0.00000   0.00001   0.00000  -0.11308
 276        4PY         0.00000   0.00000  -0.00001   0.00000  -0.00214
 277        4PZ        -0.19459  -0.16610   0.31409  -0.20836   0.00000
 278        5S         -0.00001   0.00001   0.00018   0.00013  -4.05167
 279        5PX        -0.00000  -0.00001   0.00006   0.00005  -1.09682
[...]
 186        4S          0.42772
 187        4PX         0.16181
 188        4PY         0.27407
 189        4PZ         0.39773
 190        5S          0.34478
 191        5PX        -0.26857
 192        5PY         0.03747
 193        5PZ        -0.02765
 194        6D 0        0.00832
 195        6D+1        0.00843
 196        6D-1        0.01218
 197        6D+2        0.01204
 198        6D-2        0.01355
 199 10  C  1S          1.10550
 200        2S          0.88523
 201        2PX         0.24233
 202        2PY         0.24070
 203        2PZ         0.11408
 204        3S          0.80055
 205        3PX         0.55216
 206        3PY         0.55009
 207        3PZ         0.30935
 208        4S          0.41206
 209        4PX         0.15676
 210        4PY         0.34590
 211        4PZ         0.25606
 212        5S          0.03427
 213        5PX        -0.38419
 214        5PY         0.19899
 215        5PZ         0.04217
 216        6D 0        0.00298
 217        6D+1        0.01277
 218        6D-1        0.00357
 219        6D+2        0.02115
 220        6D-2        0.01515
 221 11  C  1S          1.10531
 222        2S          0.88558
 223        2PX         0.22949
 224        2PY         0.23477
 225        2PZ         0.15338
 226        3S          0.76672
 227        3PX         0.53135
 228        3PY         0.53124
 229        3PZ         0.40317
 230        4S          0.41154
 231        4PX         0.27096
 232        4PY         0.21674
 233        4PZ         0.32944
 234        5S          0.12837
 235        5PX        -0.28850
 236        5PY         0.62921
 237        5PZ         0.01520
 238        6D 0        0.00394
 239        6D+1        0.00939
 240        6D-1        0.01089
 241        6D+2        0.02086
 242        6D-2        0.02078
 243 12  C  1S          1.10520
 244        2S          0.88563
 245        2PX         0.22981
 246        2PY         0.23474
 247        2PZ         0.17454
 248        3S          0.75255
 249        3PX         0.52517
 250        3PY         0.53308
 251        3PZ         0.46069
 252        4S          0.36936
 253        4PX         0.14577
 254        4PY         0.19275
 255        4PZ         0.39580
 256        5S         -0.52542
 257        5PX        -0.46999
 258        5PY         0.30183
 259        5PZ        -0.06137
 260        6D 0        0.00446
 261        6D+1        0.00739
 262        6D-1        0.00932
 263        6D+2        0.02276
 264        6D-2        0.02268
 265 13  C  1S          1.10532
 266        2S          0.88553
 267        2PX         0.23481
 268        2PY         0.23258
 269        2PZ         0.15108
 270        3S          0.76937
 271        3PX         0.53532
 272        3PY         0.53141
 273        3PZ         0.39853
 274        4S          0.40179
 275        4PX         0.26547
 276        4PY         0.22249
 277        4PZ         0.32019
 278        5S          0.14950
 279        5PX        -0.27217
 280        5PY         0.62392
 281        5PZ         0.01259
 282        6D 0        0.00388
 283        6D+1        0.01024
 284        6D-1        0.01025
 285        6D+2        0.02200
 286        6D-2        0.02059
 287 14  C  1S          1.10521
 288        2S          0.88565
 289        2PX         0.23200
 290        2PY         0.23134
 291        2PZ         0.17383
 292        3S          0.75267
 293        3PX         0.52772
 294        3PY         0.53069
 295        3PZ         0.45882
 296        4S          0.37825
 297        4PX         0.15362
 298        4PY         0.19499
 299        4PZ         0.39661
 300        5S         -0.56742
 301        5PX        -0.46650
 302        5PY         0.30774
 303        5PZ        -0.06015
 304        6D 0        0.00447
 305        6D+1        0.00730
 306        6D-1        0.00857
 307        6D+2        0.02270
 308        6D-2        0.02232
 309 15  H  1S          0.27359
 310        2S          0.46394
 311        3S          0.03422
 312        4S         -0.03187
 313        5PX         0.00333
 314        5PY         0.01474
 315        5PZ         0.00469
 316 16  H  1S          0.27364
 317        2S          0.46288
 318        3S          0.01420
 319        4S         -0.02773
 320        5PX         0.01257
 321        5PY         0.00643
 322        5PZ         0.00391
 323 17  H  1S          0.27322
 324        2S          0.46310
 325        3S          0.02072
 326        4S         -0.02795
 327        5PX         0.01179
 328        5PY         0.00662
 329        5PZ         0.00451
 330 18  H  1S          0.27347
 331        2S          0.46503
 332        3S          0.03667
 333        4S         -0.01946
 334        5PX         0.00343
 335        5PY         0.01501
 336        5PZ         0.00450
 337 19  H  1S          0.27264
 338        2S          0.45386
 339        3S          0.01711
 340        4S          0.04245
 341        5PX         0.00338
 342        5PY         0.01638
 343        5PZ         0.00289
 344 20  H  1S          0.27365
 345        2S          0.46484
 346        3S          0.03342
 347        4S         -0.01964
 348        5PX         0.00346
 349        5PY         0.01521
 350        5PZ         0.00433
 351 21  H  1S          0.27331
 352        2S          0.46280
 353        3S          0.01864
 354        4S         -0.02913
 355        5PX         0.01221
 356        5PY         0.00636
 357        5PZ         0.00446
 358 22  H  1S          0.27330
 359        2S          0.46178
 360        3S          0.01098
 361        4S         -0.02893
 362        5PX         0.01253
 363        5PY         0.00649
 364        5PZ         0.00372
 365 23  H  1S          0.27332
 366        2S          0.46356
 367        3S          0.03174
 368        4S         -0.03106
 369        5PX         0.00337
 370        5PY         0.01495
 371        5PZ         0.00460
 372 24  H  1S          0.26356
 373        2S          0.42804
 374        3S          0.01132
 375        4S          0.02740
 376        5PX         0.00342
 377        5PY         0.00769
 378        5PZ         0.00922
 379 25  H  1S          0.26356
 380        2S          0.42804
 381        3S          0.01132
 382        4S          0.02741
 383        5PX         0.00342
 384        5PY         0.00769
 385        5PZ         0.00922
          Condensed to atoms (all electrons):
               1          2          3          4          5          6
     1  C    8.715407   0.157485  -0.454902   2.081766  -0.056924  -0.099168
     2  C    0.157485   7.137588   0.264966  -1.115827   0.002735  -0.013717
     3  C   -0.454902   0.264966   6.568858   0.815973  -0.132442   0.016349
     4  C    2.081766  -1.115827   0.815973  10.610024  -0.374733  -0.114543
     5  C   -0.056924   0.002735  -0.132442  -0.374733  11.377330   0.751213
     6  C   -0.099168  -0.013717   0.016349  -0.114543   0.751213   6.588576
     7  C   -0.008311   0.000336  -0.013694  -0.026905  -1.072658   0.399587
     8  C    0.398987  -0.021921  -0.088284  -0.024185   1.878941  -0.576584
     9  C   -1.120924  -0.777725   0.299748  -0.314070  -0.040970   0.290146
    10  C   -1.316782   0.307330  -0.406137  -2.438270  -2.651939  -0.300626
    11  C    0.316184  -0.982290   1.100857  -0.213108  -1.539316  -0.214855
    12  C   -2.326670   1.576206  -1.463053  -1.582654  -0.440036  -0.138723
    13  C    0.238150  -0.284931  -0.119256  -1.401258  -0.395644   0.899339
    14  C   -1.019872  -0.122026  -0.261967  -0.245358  -1.675051  -1.367017
    15  H    0.368809  -0.108301   0.001305   0.028083   0.005018   0.001033
    16  H   -0.018178   0.377086  -0.015826   0.011523  -0.001423  -0.000312
    17  H   -0.029674  -0.011657   0.370491  -0.066071   0.000366   0.000392
    18  H    0.051196   0.003275  -0.084010   0.450122   0.005914  -0.005117
    19  H   -0.046772  -0.008180   0.051703  -0.059099  -0.077415   0.049735
    20  H    0.007039   0.002077  -0.005060   0.005754   0.464003  -0.084494
    21  H   -0.001326  -0.000379   0.000395   0.000234  -0.067420   0.377877
    22  H    0.000939   0.000381  -0.000330  -0.001564   0.015024  -0.019802
    23  H    0.005022  -0.002769   0.001120   0.005975   0.027099  -0.002258
    24  H    0.030353   0.013459  -0.001647  -0.012118  -0.011741  -0.001518
    25  H    0.030352   0.013458  -0.001648  -0.012116  -0.011743  -0.001518
               7          8          9         10         11         12
     1  C   -0.008311   0.398987  -1.120924  -1.316782   0.316184  -2.326670
     2  C    0.000336  -0.021921  -0.777725   0.307330  -0.982290   1.576206
     3  C   -0.013694  -0.088284   0.299748  -0.406137   1.100857  -1.463053
     4  C   -0.026905  -0.024185  -0.314070  -2.438270  -0.213108  -1.582654
     5  C   -1.072658   1.878941  -0.040970  -2.651939  -1.539316  -0.440036
     6  C    0.399587  -0.576584   0.290146  -0.300626  -0.214855  -0.138723
     7  C    7.156503   0.388988  -0.850607   0.209036  -0.217454  -0.239965
     8  C    0.388988   8.421499  -1.094478  -1.225203   0.227228  -1.128003
     9  C   -0.850607  -1.094478   9.545816   0.238875   1.517550  -1.753394
    10  C    0.209036  -1.225203   0.238875   9.061193  -0.500651   2.426911
    11  C   -0.217454   0.227228   1.517550  -0.500651  14.197265  -3.523030
    12  C   -0.239965  -1.128003  -1.753394   2.426911  -3.523030  15.828405
    13  C   -0.804741   0.328248   1.543184  -0.305872   1.073384  -4.803722
    14  C    1.202371  -1.978143  -2.054327   2.361855  -4.658838   3.094151
    15  H   -0.002426   0.006077   0.091717  -0.010539  -0.029453  -0.032625
    16  H    0.000337   0.000562   0.003368  -0.008559   0.024726  -0.030974
    17  H   -0.000396  -0.001275  -0.006093   0.020566  -0.029320   0.096901
    18  H    0.002024   0.006852  -0.025369   0.015757  -0.005400  -0.059046
    19  H   -0.007345  -0.044211   0.073364   0.419984   0.079407  -0.048643
    20  H    0.003170   0.048561  -0.022817   0.009340  -0.011823  -0.019833
    21  H   -0.021191  -0.021391  -0.004995   0.019379  -0.006211   0.005178
    22  H    0.379688  -0.019120   0.003247  -0.009461   0.003389  -0.009799
    23  H   -0.106407   0.367636   0.090052  -0.008851  -0.001227   0.007455
    24  H    0.015209   0.035691   0.355613   0.005151   0.006413  -0.059143
    25  H    0.015209   0.035686   0.355617   0.005152   0.006409  -0.059142
              13         14         15         16         17         18
     1  C    0.238150  -1.019872   0.368809  -0.018178  -0.029674   0.051196
     2  C   -0.284931  -0.122026  -0.108301   0.377086  -0.011657   0.003275
     3  C   -0.119256  -0.261967   0.001305  -0.015826   0.370491  -0.084010
     4  C   -1.401258  -0.245358   0.028083   0.011523  -0.066071   0.450122
     5  C   -0.395644  -1.675051   0.005018  -0.001423   0.000366   0.005914
     6  C    0.899339  -1.367017   0.001033  -0.000312   0.000392  -0.005117
     7  C   -0.804741   1.202371  -0.002426   0.000337  -0.000396   0.002024
     8  C    0.328248  -1.978143   0.006077   0.000562  -0.001275   0.006852
     9  C    1.543184  -2.054327   0.091717   0.003368  -0.006093  -0.025369
    10  C   -0.305872   2.361855  -0.010539  -0.008559   0.020566   0.015757
    11  C    1.073384  -4.658838  -0.029453   0.024726  -0.029320  -0.005400
    12  C   -4.803722   3.094151  -0.032625  -0.030974   0.096901  -0.059046
    13  C   14.479580  -3.877788   0.005266   0.002553  -0.006209  -0.011613
    14  C   -3.877788  16.124491   0.005315  -0.008061   0.005029  -0.008467
    15  H    0.005266   0.005315   0.442082  -0.009128   0.001405   0.000100
    16  H    0.002553  -0.008061  -0.009128   0.421994  -0.006316   0.001880
    17  H   -0.006209   0.005029   0.001405  -0.006316   0.423107  -0.010116
    18  H   -0.011613  -0.008467   0.000100   0.001880  -0.010116   0.455715
    19  H    0.074756  -0.081747   0.000264  -0.000520   0.001276  -0.006448
    20  H   -0.009107  -0.049550  -0.000106   0.000013  -0.000131   0.001252
    21  H   -0.023490   0.085261   0.000012  -0.000007   0.000010  -0.000153
    22  H    0.026647  -0.032825  -0.000126   0.000007  -0.000007   0.000017
    23  H   -0.031905  -0.017770   0.000560  -0.000124   0.000015  -0.000114
    24  H    0.019556  -0.059626  -0.000850   0.000639  -0.000144   0.000203
    25  H    0.019559  -0.059620  -0.000850   0.000639  -0.000144   0.000203
              19         20         21         22         23         24
     1  C   -0.046772   0.007039  -0.001326   0.000939   0.005022   0.030353
     2  C   -0.008180   0.002077  -0.000379   0.000381  -0.002769   0.013459
     3  C    0.051703  -0.005060   0.000395  -0.000330   0.001120  -0.001647
     4  C   -0.059099   0.005754   0.000234  -0.001564   0.005975  -0.012118
     5  C   -0.077415   0.464003  -0.067420   0.015024   0.027099  -0.011741
     6  C    0.049735  -0.084494   0.377877  -0.019802  -0.002258  -0.001518
     7  C   -0.007345   0.003170  -0.021191   0.379688  -0.106407   0.015209
     8  C   -0.044211   0.048561  -0.021391  -0.019120   0.367636   0.035691
     9  C    0.073364  -0.022817  -0.004995   0.003247   0.090052   0.355613
    10  C    0.419984   0.009340   0.019379  -0.009461  -0.008851   0.005151
    11  C    0.079407  -0.011823  -0.006211   0.003389  -0.001227   0.006413
    12  C   -0.048643  -0.019833   0.005178  -0.009799   0.007455  -0.059143
    13  C    0.074756  -0.009107  -0.023490   0.026647  -0.031905   0.019556
    14  C   -0.081747  -0.049550   0.085261  -0.032825  -0.017770  -0.059626
    15  H    0.000264  -0.000106   0.000012  -0.000126   0.000560  -0.000850
    16  H   -0.000520   0.000013  -0.000007   0.000007  -0.000124   0.000639
    17  H    0.001276  -0.000131   0.000010  -0.000007   0.000015  -0.000144
    18  H   -0.006448   0.001252  -0.000153   0.000017  -0.000114   0.000203
    19  H    0.442129  -0.006003   0.001538  -0.000542   0.000346   0.000565
    20  H   -0.006003   0.450727  -0.010248   0.001948   0.000233   0.000159
    21  H    0.001538  -0.010248   0.421009  -0.006662   0.001516  -0.000136
    22  H   -0.000542   0.001948  -0.006662   0.416407  -0.008831   0.000626
    23  H    0.000346   0.000233   0.001516  -0.008831   0.435643  -0.000964
    24  H    0.000565   0.000159  -0.000136   0.000626  -0.000964   0.493354
    25  H    0.000565   0.000159  -0.000136   0.000626  -0.000964  -0.078447
              25
     1  C    0.030352
     2  C    0.013458
     3  C   -0.001648
     4  C   -0.012116
     5  C   -0.011743
     6  C   -0.001518
     7  C    0.015209
     8  C    0.035686
     9  C    0.355617
    10  C    0.005152
    11  C    0.006409
    12  C   -0.059142
    13  C    0.019559
    14  C   -0.059620
    15  H   -0.000850
    16  H    0.000639
    17  H   -0.000144
    18  H    0.000203
    19  H    0.000565
    20  H    0.000159
    21  H   -0.000136
    22  H    0.000626
    23  H   -0.000964
    24  H   -0.078447
    25  H    0.493352
 Mulliken charges:
               1
     1  C    0.097814
     2  C   -0.406657
     3  C   -0.443509
     4  C   -0.007575
     5  C    0.021814
     6  C   -0.433997
     7  C   -0.400356
     8  C    0.077841
     9  C   -0.342529
    10  C    0.082363
    11  C   -0.619835
    12  C    0.683248
    13  C   -0.634686
    14  C    0.699578
    15  H    0.237359
    16  H    0.254101
    17  H    0.247992
    18  H    0.221344
    19  H    0.191295
    20  H    0.224737
    21  H    0.251336
    22  H    0.260123
    23  H    0.239512
    24  H    0.249343
    25  H    0.249343
 Sum of Mulliken charges =   1.00000
 Mulliken charges with hydrogens summed into heavy atoms:
               1
     1  C    0.335173
     2  C   -0.152555
     3  C   -0.195517
     4  C    0.213769
     5  C    0.246551
     6  C   -0.182661
     7  C   -0.140233
     8  C    0.317353
     9  C    0.156157
    10  C    0.273658
    11  C   -0.619835
    12  C    0.683248
    13  C   -0.634686
    14  C    0.699578
 Electronic spatial extent (au):  <R**2>=           2868.8570
 Charge=              1.0000 electrons
 Dipole moment (field-independent basis, Debye):
    X=             -0.6333    Y=              0.1898    Z=              0.0000  Tot=              0.6611
 Quadrupole moment (field-independent basis, Debye-Ang):
   XX=            -30.8445   YY=            -56.1842   ZZ=            -84.2741
   XY=             -0.0520   XZ=             -0.0001   YZ=             -0.0000
 Traceless Quadrupole moment (field-independent basis, Debye-Ang):
   XX=             26.2564   YY=              0.9167   ZZ=            -27.1731
   XY=             -0.0520   XZ=             -0.0001   YZ=             -0.0000
 Octapole moment (field-independent basis, Debye-Ang**2):
  XXX=             -7.0437  YYY=              5.3760  ZZZ=              0.0000  XYY=             -1.4832
  XXY=             -5.2472  XXZ=             -0.0000  XZZ=             -0.9201  YZZ=             -3.1426
  YYZ=              0.0000  XYZ=              0.0002
 Hexadecapole moment (field-independent basis, Debye-Ang**3):
 XXXX=          -2127.5231 YYYY=           -611.7672 ZZZZ=            -99.7033 XXXY=              1.4512
 XXXZ=              0.0003 YYYX=             -0.5837 YYYZ=             -0.0000 ZZZX=              0.0001
 ZZZY=             -0.0000 XXYY=           -509.3056 XXZZ=           -594.4333 YYZZ=           -146.5026
 XXYZ=              0.0000 YYXZ=             -0.0003 ZZXY=             -0.2949
 N-N= 7.793172884688D+02 E-N=-2.794864816491D+03  KE= 5.373468159440D+02
 Orbital energies and kinetic energies (alpha):
                                 1                 2
  43         O                -0.545935          1.586551
  44         O                -0.523301          1.038096
  45         O                -0.468105          1.126216
  46         O                -0.460266          1.151804
  47         O                -0.441824          1.160908
  48         V                -0.261137          1.267140
  49         V                -0.147161          1.100241
  50         V                -0.141308          1.316529
  51         V                -0.128362          1.281033
  52         V                -0.111710          0.204302
 Total kinetic energy from orbitals= 5.373468159440D+02
 Unable to Open any file for archive entry.
 1\1\GINC-GADI-CPU-CLX-1686\SP\RM062X TD-FC\6-311++G(d,p)\C14H11(1+)\TS
 1578\14-Jul-2022\0\\#n M062X/6-311++G(d,p) TD SP pop=reg formcheck\\SP
 _7\\1,1\C,0,2.511487538,1.3729436192,0.\C,0,3.7238192532,0.6879129586,
 0.\C,0,3.6999681986,-0.6952614157,0.\C,0,2.4534709356,-1.3967016126,0.
 \C,0,-2.4843490644,-1.4086220066,0.\C,0,-3.6851754206,-0.7191740131,0.
 \C,0,-3.696244366,0.6768542799,0.\C,0,-2.4858515101,1.3726563808,0.\C,
 0,0.005960197,1.4671826672,0.\C,0,-0.0224764054,-1.4246018096,0.\C,0,1
 .2571518014,0.6783537998,0.\C,0,1.2348870414,-0.7219519984,0.\C,0,-1.2
 721600082,0.6960907714,0.\C,0,-1.246161149,-0.7250398112,0.\H,0,2.4990
 413377,2.458489048,0.\H,0,4.6604247764,1.2281002913,0.\H,0,4.621368001
 6,-1.2652256176,0.\H,0,2.4659781822,-2.4818442799,0.\H,0,-0.0191731637
 ,-2.5077136192,0.\H,0,-2.4812018178,-2.4929029586,0.\H,0,-4.6184956176
 ,-1.2680980016,0.\H,0,-4.6340706524,1.2179033279,0.\H,0,-2.4909986623,
 2.4578427616,0.\H,0,0.0331042265,2.1566081904,-0.8639854288\H,0,0.0331
 760361,2.1566081904,0.8639854288\\Version=ES64L-G16RevC.01\State=1-A\H
 F=-539.7568459\RMSD=7.971e-09\PG=C01 [X(C14H11)]\\@
 The archive entry for this job was punched.


 Make no judgements where you have no compassion.
                               -- Anne McCaffrey
 FChkPn:  Coordinates translated and rotated.
 FChkPn:  Coordinates match /B/ after translation and rotation.
 Job cpu time:       0 days  1 hours 11 minutes 38.3 seconds.
 Elapsed time:       0 days  0 hours  9 minutes  1.9 seconds.
 File lengths (MBytes):  RWF=    532 Int=      0 D2E=      0 Chk=     24 Scr=      1
 Normal termination of Gaussian 16 at Thu Jul 14 13:47:29 2022.
