 Entering Gaussian System, Link 0=g16
 Initial command:
 /apps/gaussian/g16c01/g16/l1.exe "/jobfs/52580424.gadi-pbs/Gau-2603017.inp" -scrdir="/jobfs/52580424.gadi-pbs/"
 Entering Link 1 = /apps/gaussian/g16c01/g16/l1.exe PID=   2603018.
  
 Copyright (c) 1988-2019, Gaussian, Inc.  All Rights Reserved.
  
 This is part of the Gaussian(R) 16 program.  It is based on
 the Gaussian(R) 09 system (copyright 2009, Gaussian, Inc.),
 the Gaussian(R) 03 system (copyright 2003, Gaussian, Inc.),
 the Gaussian(R) 98 system (copyright 1998, Gaussian, Inc.),
 the Gaussian(R) 94 system (copyright 1995, Gaussian, Inc.),
 the Gaussian 92(TM) system (copyright 1992, Gaussian, Inc.),
 the Gaussian 90(TM) system (copyright 1990, Gaussian, Inc.),
 the Gaussian 88(TM) system (copyright 1988, Gaussian, Inc.),
 the Gaussian 86(TM) system (copyright 1986, Carnegie Mellon
 University), and the Gaussian 82(TM) system (copyright 1983,
 Carnegie Mellon University). Gaussian is a federally registered
 trademark of Gaussian, Inc.
  
 This software contains proprietary and confidential information,
 including trade secrets, belonging to Gaussian, Inc.
  
 This software is provided under written license and may be
 used, copied, transmitted, or stored only in accord with that
 written license.
  
 The following legend is applicable only to US Government
 contracts under FAR:
  
                    RESTRICTED RIGHTS LEGEND
  
 Use, reproduction and disclosure by the US Government is
 subject to restrictions as set forth in subparagraphs (a)
 and (c) of the Commercial Computer Software - Restricted
 Rights clause in FAR 52.227-19.
  
 Gaussian, Inc.
 340 Quinnipiac St., Bldg. 40, Wallingford CT 06492
  
  
 ---------------------------------------------------------------
 Warning -- This program may not be used in any manner that
 competes with the business of Gaussian, Inc. or will provide
 assistance to any competitor of Gaussian, Inc.  The licensee
 of this program is prohibited from giving any competitor of
 Gaussian, Inc. access to this program.  By using this program,
 the user acknowledges that Gaussian, Inc. is engaged in the
 business of creating and licensing software in the field of
 computational chemistry and represents and warrants to the
 licensee that it is not a competitor of Gaussian, Inc. and that
 it will not use this program in any manner prohibited above.
 ---------------------------------------------------------------
  

 Cite this work as:
 Gaussian 16, Revision C.01,
 M. J. Frisch, G. W. Trucks, H. B. Schlegel, G. E. Scuseria, 
 M. A. Robb, J. R. Cheeseman, G. Scalmani, V. Barone, 
 G. A. Petersson, H. Nakatsuji, X. Li, M. Caricato, A. V. Marenich, 
 J. Bloino, B. G. Janesko, R. Gomperts, B. Mennucci, H. P. Hratchian, 
 J. V. Ortiz, A. F. Izmaylov, J. L. Sonnenberg, D. Williams-Young, 
 F. Ding, F. Lipparini, F. Egidi, J. Goings, B. Peng, A. Petrone, 
 T. Henderson, D. Ranasinghe, V. G. Zakrzewski, J. Gao, N. Rega, 
 G. Zheng, W. Liang, M. Hada, M. Ehara, K. Toyota, R. Fukuda, 
 J. Hasegawa, M. Ishida, T. Nakajima, Y. Honda, O. Kitao, H. Nakai, 
 T. Vreven, K. Throssell, J. A. Montgomery, Jr., J. E. Peralta, 
 F. Ogliaro, M. J. Bearpark, J. J. Heyd, E. N. Brothers, K. N. Kudin, 
 V. N. Staroverov, T. A. Keith, R. Kobayashi, J. Normand, 
 K. Raghavachari, A. P. Rendell, J. C. Burant, S. S. Iyengar, 
 J. Tomasi, M. Cossi, J. M. Millam, M. Klene, C. Adamo, R. Cammi, 
 J. W. Ochterski, R. L. Martin, K. Morokuma, O. Farkas, 
 J. B. Foresman, and D. J. Fox, Gaussian, Inc., Wallingford CT, 2019.
 
 ******************************************
 Gaussian 16:  ES64L-G16RevC.01  3-Jul-2019
                25-Jul-2022 
 ******************************************
 %NProcShared=16
 Will use up to   16 processors via shared memory.
 %mem = 64GB
 %Chk=check_sp_0
 ----------------------------------------------
 #n M062X/cc-pvtz TD EmpiricalDispersion=GD3 SP
 ----------------------------------------------
 1/38=1,172=1/1;
 2/12=2,17=6,18=5,40=1/2;
 3/5=16,6=1,11=9,25=1,30=1,74=-55,124=31/1,2,3,8;
 4//1;
 5/5=2,38=5/2;
 8/6=1,10=1/1;
 9/42=1,70=2/14;
 6/7=2,8=2,9=2,10=2/1;
 99/5=1,9=1/99;
 -----
 SP_-5
 -----
 Symbolic Z-matrix:
 Charge =  1 Multiplicity = 1
 C                     2.4927    1.3291   -0.085 
 C                     3.7015    0.6807   -0.015 
 C                     3.6839   -0.6901    0. 
 C                     2.4632   -1.4289    0.1 
 C                    -2.4632   -1.3689    0.1 
 C                    -3.6839   -0.7201    0. 
 C                    -3.7015    0.6807   -0.015 
 C                    -2.4927    1.4091   -0.085 
 C                     0.        1.4621   -0.165 
 C                     0.       -1.4205    0.135 
 C                     1.2621    0.6657   -0.04 
 C                     1.2375   -0.7371    0.065 
 C                    -1.2621    0.7057   -0.04 
 C                    -1.2375   -0.7071    0.065 
 H                     2.4881    2.3823   -0.09 
 H                     4.6368    1.1754    0.06 
 H                     4.6093   -1.2937   -0.07 
 H                     2.4675   -2.5714    0.105 
 H                     0.       -2.5016    0.14 
 H                    -2.4675   -2.3914    0.105 
 H                    -4.6093   -1.2337   -0.07 
 H                    -4.6368    1.2654    0.06 
 H                    -2.4881    2.5223   -0.09 
 H                     0.01      2.1545   -1.0096 
 H                    -0.01      2.1545    0.7096 
 
                          Input orientation:                          
 ---------------------------------------------------------------------
 Center     Atomic      Atomic             Coordinates (Angstroms)
 Number     Number       Type             X           Y           Z
 ---------------------------------------------------------------------
      1          6           0        2.492700    1.329100   -0.085000
      2          6           0        3.701500    0.680700   -0.015000
      3          6           0        3.683900   -0.690100    0.000000
      4          6           0        2.463200   -1.428900    0.100000
      5          6           0       -2.463200   -1.368900    0.100000
      6          6           0       -3.683900   -0.720100    0.000000
      7          6           0       -3.701500    0.680700   -0.015000
      8          6           0       -2.492700    1.409100   -0.085000
      9          6           0        0.000000    1.462100   -0.165000
     10          6           0        0.000000   -1.420500    0.135000
     11          6           0        1.262100    0.665700   -0.040000
     12          6           0        1.237500   -0.737100    0.065000
     13          6           0       -1.262100    0.705700   -0.040000
     14          6           0       -1.237500   -0.707100    0.065000
     15          1           0        2.488100    2.382300   -0.090000
     16          1           0        4.636800    1.175400    0.060000
     17          1           0        4.609300   -1.293700   -0.070000
     18          1           0        2.467500   -2.571400    0.105000
     19          1           0        0.000000   -2.501600    0.140000
     20          1           0       -2.467500   -2.391400    0.105000
     21          1           0       -4.609300   -1.233700   -0.070000
     22          1           0       -4.636800    1.265400    0.060000
     23          1           0       -2.488100    2.522300   -0.090000
     24          1           0        0.010000    2.154500   -1.009600
     25          1           0       -0.010000    2.154500    0.709600
 ---------------------------------------------------------------------
                    Distance matrix (angstroms):
                    1          2          3          4          5
     1  C    0.000000
     2  C    1.373506   0.000000
     3  C    2.345922   1.370995   0.000000
     4  C    2.764355   2.448882   1.430361   0.000000
     5  C    5.645739   6.497508   6.185273   4.926765   0.000000
     6  C    6.508213   7.517087   7.367861   6.188638   1.386019
     7  C    6.228438   7.403000   7.511554   6.516683   2.397389
     8  C    4.986042   6.237273   6.524129   5.713967   2.784309
     9  C    2.497527   3.786052   4.269697   3.807290   3.761933
    10  C    3.717829   4.258949   3.758035   2.463463   2.463989
    11  C    1.398750   2.439574   2.775772   2.418593   4.247006
    12  C    2.422232   2.843915   2.447715   1.407889   3.754408
    13  C    3.806465   4.963726   5.139336   4.295809   2.401293
    14  C    4.252411   5.130898   4.921859   3.770597   1.393393
    15  H    1.053222   2.091269   3.298133   3.816014   6.214738
    16  H    2.154487   1.060726   2.095640   3.392420   7.542219
    17  H    3.370356   2.173794   1.107067   2.157064   7.074942
    18  H    3.905206   3.480418   2.242754   1.142519   5.075218
    19  H    4.575854   4.883867   4.107585   2.686939   2.711450
    20  H    6.203370   6.892660   6.383194   5.023767   1.022521
    21  H    7.550270   8.528619   8.311292   7.077235   2.157064
    22  H    7.131259   8.359112   8.547610   7.594133   3.415505
    23  H    5.121730   6.458194   6.958534   6.337464   3.895915
    24  H    2.774882   4.097376   4.754848   4.482205   4.445478
    25  H    2.752486   4.058616   4.715949   4.396486   4.336375
                    6          7          8          9         10
     6  C    0.000000
     7  C    1.400991   0.000000
     8  C    2.441245   1.413034   0.000000
     9  C    4.284897   3.786052   2.494547   0.000000
    10  C    3.752320   4.258949   3.777379   2.898169   0.000000
    11  C    5.136629   4.963686   3.827949   1.497590   2.444535
    12  C    4.921859   5.139093   4.306166   2.533927   1.415395
    13  C    2.810626   2.439656   1.418158   1.476707   2.478759
    14  C    2.447298   2.829078   2.465021   2.507934   1.430121
    15  H    6.908442   6.419674   5.074989   2.653872   4.550006
    16  H    8.534083   8.353299   7.134803   4.651101   5.314531
    17  H    8.313308   8.542288   7.598931   5.371136   4.615599
    18  H    6.424800   6.974748   6.362709   4.736093   2.722871
    19  H    4.094443   4.883867   4.643033   3.975417   1.081112
    20  H    2.069758   3.312847   3.805330   4.583767   2.651811
    21  H    1.060684   2.119446   3.385943   5.340600   4.617636
    22  H    2.203141   1.105570   2.153797   4.646421   5.359067
    23  H    3.457050   2.206684   1.113221   2.705604   4.667648
    24  H    4.788268   4.115404   2.770201   1.092184   3.753776
    25  H    4.718517   4.040335   2.711238   1.115546   3.620896
                   11         12         13         14         15
    11  C    0.000000
    12  C    1.406939   0.000000
    13  C    2.524517   2.888026   0.000000
    14  C    2.853700   2.475182   1.416910   0.000000
    15  H    2.110045   3.364325   4.108222   4.842366   0.000000
    16  H    3.414439   3.900375   5.918415   6.168568   2.469012
    17  H    3.878646   3.420097   6.202567   5.877703   4.244157
    18  H    3.457287   2.208881   4.966923   4.147799   4.957579
    19  H    3.414247   2.156500   3.451387   2.181115   5.485984
    20  H    4.824604   4.057750   3.326566   2.085993   6.883619
    21  H    6.171058   5.869404   3.868581   3.415343   7.965484
    22  H    5.930149   6.206241   3.422260   3.930143   7.213471
    23  H    4.184909   4.952556   2.192171   3.466562   4.978169
    24  H    2.173569   3.320071   2.158097   3.301481   2.653024
    25  H    2.096822   3.214516   2.056374   3.179783   2.632823
                   16         17         18         19         20
    16  H    0.000000
    17  H    2.472673   0.000000
    18  H    4.329711   2.500090   0.000000
    19  H    5.918331   4.769567   2.468735   0.000000
    20  H    7.949539   7.163565   4.938282   2.470208   0.000000
    21  H    9.555680   9.218795   7.204246   4.785114   2.440943
    22  H    9.274037   9.594595   8.074289   5.974663   4.252067
    23  H    7.252644   8.058247   7.109274   5.610981   4.917611
    24  H    4.848707   5.824645   5.442037   4.795930   5.295805
    25  H    4.793054   5.816854   5.370072   4.690822   5.202889
                   21         22         23         24         25
    21  H    0.000000
    22  H    2.502630   0.000000
    23  H    4.313633   2.493834   0.000000
    24  H    5.805229   4.850494   2.687275   0.000000
    25  H    5.765521   4.756023   2.629756   1.719316   0.000000
 Stoichiometry    C14H11(1+)
 Framework group  C1[X(C14H11)]
 Deg. of freedom    69
 Full point group                 C1      NOp   1
 Largest Abelian subgroup         C1      NOp   1
 Largest concise Abelian subgroup C1      NOp   1
                         Standard orientation:                         
 ---------------------------------------------------------------------
 Center     Atomic      Atomic             Coordinates (Angstroms)
 Number     Number       Type             X           Y           Z
 ---------------------------------------------------------------------
      1          6           0        2.483222   -1.340823    0.004589
      2          6           0        3.696617   -0.698015   -0.026902
      3          6           0        3.688786    0.671315    0.040197
      4          6           0        2.473388    1.423445   -0.014956
      5          6           0       -2.453315    1.398614   -0.016780
      6          6           0       -3.678614    0.753695    0.044637
      7          6           0       -3.706195   -0.645330   -0.024246
      8          6           0       -2.502621   -1.385198    0.001588
      9          6           0       -0.010367   -1.460631    0.077377
     10          6           0        0.010193    1.434686   -0.049512
     11          6           0        1.257384   -0.667178   -0.000173
     12          6           0        1.242787    0.739531   -0.020995
     13          6           0       -1.267037   -0.689142   -0.001662
     14          6           0       -1.232364    0.727199   -0.021903
     15          1           0        2.471118   -2.392374   -0.053470
     16          1           0        4.628373   -1.193981   -0.131719
     17          1           0        4.618458    1.263040    0.145875
     18          1           0        2.485829    2.564136    0.048450
     19          1           0        0.017896    2.514118    0.010219
     20          1           0       -2.450329    2.419584    0.039444
     21          1           0       -4.600335    1.268755    0.145591
     22          1           0       -4.645633   -1.217820   -0.133780
     23          1           0       -2.505953   -2.496706   -0.060066
     24          1           0       -0.005359   -2.202407    0.879007
     25          1           0       -0.025241   -2.099340   -0.837102
 ---------------------------------------------------------------------
 Rotational constants (GHZ):           2.1244969           0.4445047           0.3685303
 Standard basis: CC-pVTZ (5D, 7F)
 There are   655 symmetry adapted cartesian basis functions of A   symmetry.
 There are   574 symmetry adapted basis functions of A   symmetry.
   574 basis functions,   915 primitive gaussians,   655 cartesian basis functions
    47 alpha electrons       47 beta electrons
       nuclear repulsion energy       780.4069135957 Hartrees.
 NAtoms=   25 NActive=   25 NUniq=   25 SFac= 1.00D+00 NAtFMM=   60 NAOKFM=F Big=F
 Integral buffers will be    131072 words long.
 Regular integral format.
 Two-electron integral symmetry is turned on.
 Nuclear repulsion after empirical dispersion term =      780.4059331980 Hartrees.
 One-electron integrals computed using PRISM.
 NBasis=   574 RedAO= T EigKep=  2.04D-05  NBF=   574
 NBsUse=   574 1.00D-06 EigRej= -1.00D+00 NBFU=   574
 ExpMin= 1.03D-01 ExpMax= 8.24D+03 ExpMxC= 2.81D+02 IAcc=3 IRadAn=         5 AccDes= 0.00D+00
 Harris functional with IExCor= 1009 and IRadAn=       5 diagonalized for initial guess.
 HarFok:  IExCor= 1009 AccDes= 0.00D+00 IRadAn=         5 IDoV= 1 UseB2=F ITyADJ=14
 ICtDFT=  3500011 ScaDFX=  1.000000  1.000000  1.000000  1.000000
 FoFCou: FMM=F IPFlag=           0 FMFlag=      100000 FMFlg1=           0
         NFxFlg=           0 DoJE=T BraDBF=F KetDBF=T FulRan=T
         wScrn=  0.000000 ICntrl=       500 IOpCl=  0 I1Cent=   200000004 NGrid=           0
         NMat0=    1 NMatS0=      1 NMatT0=    0 NMatD0=    1 NMtDS0=    0 NMtDT0=    0
 Petite list used in FoFCou.
 Requested convergence on RMS density matrix=1.00D-08 within 128 cycles.
 Requested convergence on MAX density matrix=1.00D-06.
 Requested convergence on             energy=1.00D-06.
 No special actions if energy rises.
 Integral accuracy reduced to 1.0D-05 until final iterations.
 Initial convergence to 1.0D-05 achieved.  Increase integral accuracy.
 SCF Done:  E(RM062X) =  -539.797490175     A.U. after   14 cycles
            NFock= 14  Conv=0.87D-08     -V/T= 2.0064
 DoSCS=F DFT=T ScalE2(SS,OS)=  1.000000  1.000000
 ExpMin= 1.03D-01 ExpMax= 8.24D+03 ExpMxC= 2.81D+02 IAcc=3 IRadAn=         5 AccDes= 0.00D+00
 HarFok:  IExCor=  205 AccDes= 0.00D+00 IRadAn=         5 IDoV=-2 UseB2=F ITyADJ=14
 ICtDFT= 12500011 ScaDFX=  1.000000  1.000000  1.000000  1.000000
 Range of M.O.s used for correlation:    15   574
 NBasis=   574 NAE=    47 NBE=    47 NFC=    14 NFV=     0
 NROrb=    560 NOA=    33 NOB=    33 NVA=   527 NVB=   527

 **** Warning!!: The largest alpha MO coefficient is  0.43585061D+02

 Orbital symmetries:
       Occupied  (A) (A) (A) (A) (A) (A) (A) (A) (A) (A) (A) (A)
                 (A) (A) (A) (A) (A) (A) (A) (A) (A) (A) (A) (A)
                 (A) (A) (A) (A) (A) (A) (A) (A) (A) (A) (A) (A)
                 (A) (A) (A) (A) (A) (A) (A) (A) (A) (A) (A)
       Virtual   (A) (A) (A) (A) (A) (A) (A) (A) (A) (A) (A) (A)
                 (A) (A) (A) (A) (A) (A) (A) (A) (A) (A) (A) (A)
                 (A) (A) (A) (A) (A) (A) (A) (A) (A) (A) (A) (A)
                 (A) (A) (A) (A) (A) (A) (A) (A) (A) (A) (A) (A)
                 (A) (A) (A) (A) (A) (A) (A) (A) (A) (A) (A) (A)
                 (A) (A) (A) (A) (A) (A) (A) (A) (A) (A) (A) (A)
                 (A) (A) (A) (A) (A) (A) (A) (A) (A) (A) (A) (A)
                 (A) (A) (A) (A) (A) (A) (A) (A) (A) (A) (A) (A)
                 (A) (A) (A) (A) (A) (A) (A) (A) (A) (A) (A) (A)
                 (A) (A) (A) (A) (A) (A) (A) (A) (A) (A) (A) (A)
                 (A) (A) (A) (A) (A) (A) (A) (A) (A) (A) (A) (A)
                 (A) (A) (A) (A) (A) (A) (A) (A) (A) (A) (A) (A)
                 (A) (A) (A) (A) (A) (A) (A) (A) (A) (A) (A) (A)
                 (A) (A) (A) (A) (A) (A) (A) (A) (A) (A) (A) (A)
                 (A) (A) (A) (A) (A) (A) (A) (A) (A) (A) (A) (A)
                 (A) (A) (A) (A) (A) (A) (A) (A) (A) (A) (A) (A)
                 (A) (A) (A) (A) (A) (A) (A) (A) (A) (A) (A) (A)
                 (A) (A) (A) (A) (A) (A) (A) (A) (A) (A) (A) (A)
                 (A) (A) (A) (A) (A) (A) (A) (A) (A) (A) (A) (A)
                 (A) (A) (A) (A) (A) (A) (A) (A) (A) (A) (A) (A)
                 (A) (A) (A) (A) (A) (A) (A) (A) (A) (A) (A) (A)
                 (A) (A) (A) (A) (A) (A) (A) (A) (A) (A) (A) (A)
                 (A) (A) (A) (A) (A) (A) (A) (A) (A) (A) (A) (A)
                 (A) (A) (A) (A) (A) (A) (A) (A) (A) (A) (A) (A)
                 (A) (A) (A) (A) (A) (A) (A) (A) (A) (A) (A) (A)
                 (A) (A) (A) (A) (A) (A) (A) (A) (A) (A) (A) (A)
                 (A) (A) (A) (A) (A) (A) (A) (A) (A) (A) (A) (A)
                 (A) (A) (A) (A) (A) (A) (A) (A) (A) (A) (A) (A)
                 (A) (A) (A) (A) (A) (A) (A) (A) (A) (A) (A) (A)
                 (A) (A) (A) (A) (A) (A) (A) (A) (A) (A) (A) (A)
                 (A) (A) (A) (A) (A) (A) (A) (A) (A) (A) (A) (A)
                 (A) (A) (A) (A) (A) (A) (A) (A) (A) (A) (A) (A)
                 (A) (A) (A) (A) (A) (A) (A) (A) (A) (A) (A) (A)
                 (A) (A) (A) (A) (A) (A) (A) (A) (A) (A) (A) (A)
                 (A) (A) (A) (A) (A) (A) (A) (A) (A) (A) (A) (A)
                 (A) (A) (A) (A) (A) (A) (A) (A) (A) (A) (A) (A)
                 (A) (A) (A) (A) (A) (A) (A) (A) (A) (A) (A) (A)
                 (A) (A) (A) (A) (A) (A) (A) (A) (A) (A) (A) (A)
                 (A) (A) (A) (A) (A) (A) (A) (A) (A) (A) (A) (A)
                 (A) (A) (A) (A) (A) (A) (A) (A) (A) (A) (A) (A)
                 (A) (A) (A) (A) (A) (A) (A) (A) (A) (A) (A) (A)
                 (A) (A) (A) (A) (A) (A) (A) (A) (A) (A) (A) (A)
                 (A) (A) (A) (A) (A) (A) (A) (A) (A) (A) (A) (A)
                 (A) (A) (A) (A) (A) (A) (A) (A) (A) (A) (A)
    12 initial guesses have been made.
 Convergence on wavefunction:    0.001000000000000
 Iteration     1 Dimension    12 NMult     0 NNew     12
 CISAX will form    12 AO SS matrices at one time.
 New state      2 was old state      3
 New state      3 was old state      2
 Iteration     2 Dimension    18 NMult    12 NNew      6
 Iteration     3 Dimension    24 NMult    18 NNew      6
 Iteration     4 Dimension    30 NMult    24 NNew      6
 Iteration     5 Dimension    36 NMult    30 NNew      6
 Iteration     6 Dimension    38 NMult    36 NNew      2
 ***********************************************************************
 Excited states from <AA,BB:AA,BB> singles matrix:
 ***********************************************************************
 
 Ground to excited state transition densities written to RWF  633
 Ground to excited state transition electric dipole moments (Au):
       state          X           Y           Z        Dip. S.      Osc.
         1         0.0342      0.6333     -0.0018      0.4022      0.0275
         2        -0.3703     -0.0414      0.0007      0.1388      0.0110
         3        -2.5007     -0.0603     -0.0001      6.2572      0.5298
 Ground to excited state transition velocity dipole moments (Au):
       state          X           Y           Z        Dip. S.      Osc.
         1        -0.0038     -0.0687      0.0005      0.0047      0.0307
         2         0.0439      0.0052     -0.0001      0.0020      0.0109
         3         0.3270      0.0079      0.0001      0.1070      0.5615
 Ground to excited state transition magnetic dipole moments (Au):
       state          X           Y           Z
         1         0.0244      0.0020     -0.0256
         2        -0.0041     -0.0101     -0.9824
         3         0.0001     -0.0207     -1.0520
 Ground to excited state transition velocity quadrupole moments (Au):
       state          XX          YY          ZZ          XY          XZ          YZ
         1        -0.2616     -0.0306      0.0065     -0.0401      0.0001      0.0036
         2         0.0260     -0.0034     -0.0016     -0.2786      0.0030     -0.0011
         3        -0.0670      0.0214      0.0001     -0.0966     -0.0067     -0.0002
 <0|del|b> * <b|rxdel|0> + <0|del|b> * <b|delr+rdel|0>
 Rotatory Strengths (R) in cgs (10**-40 erg-esu-cm/Gauss)
       state          XX          YY          ZZ    R(velocity)    E-M Angle
         1        -0.5509     -0.3402     -0.7870     -0.5594       95.74
         2         0.2726     -0.4066     -0.4960     -0.2100       90.14
         3        -0.6242     -0.3492     -0.3227     -0.4320       90.04
 1/2[<0|r|b>*<b|rxdel|0> + (<0|rxdel|b>*<b|r|0>)*]
 Rotatory Strengths (R) in cgs (10**-40 erg-esu-cm/Gauss)
       state          XX          YY          ZZ     R(length)
         1        -0.5916     -0.9092     -0.0331     -0.5113
         2        -1.0618     -0.2952      0.5070     -0.2833
         3         0.1847     -0.8804     -0.0965     -0.2641
  1/2[<0|del|b>*<b|r|0> + (<0|r|b>*<b|del|0>)*] (Au)
       state          X           Y           Z        Dip. S.   Osc.(frdel)
         1        -0.0001     -0.0435     -0.0000      0.0436      0.0291
         2        -0.0163     -0.0002     -0.0000      0.0165      0.0110
         3        -0.8177     -0.0005     -0.0000      0.8181      0.5454

 Excitation energies and oscillator strengths:
 
 Excited State   1:      Singlet-A      2.7938 eV  443.78 nm  f=0.0275  <S**2>=0.000
      47 -> 48         0.70405
 This state for optimization and/or second-order correction.
 Total Energy, E(TD-HF/TD-DFT) =  -539.694819347    
 Copying the excited state density for this state as the 1-particle RhoCI density.
 
 Excited State   2:      Singlet-A      3.2418 eV  382.46 nm  f=0.0110  <S**2>=0.000
      45 -> 48         0.58401
      46 -> 48         0.38797
 
 Excited State   3:      Singlet-A      3.4560 eV  358.75 nm  f=0.5298  <S**2>=0.000
      45 -> 48        -0.38998
      46 -> 48         0.57966
 SavETr:  write IOETrn=   770 NScale= 10 NData=  16 NLR=1 NState=    3 LETran=      64.

 **********************************************************************

            Population analysis using the SCF Density.

 **********************************************************************

 Orbital symmetries:
       Occupied  (A) (A) (A) (A) (A) (A) (A) (A) (A) (A) (A) (A)
                 (A) (A) (A) (A) (A) (A) (A) (A) (A) (A) (A) (A)
                 (A) (A) (A) (A) (A) (A) (A) (A) (A) (A) (A) (A)
                 (A) (A) (A) (A) (A) (A) (A) (A) (A) (A) (A)
       Virtual   (A) (A) (A) (A) (A) (A) (A) (A) (A) (A) (A) (A)
                 (A) (A) (A) (A) (A) (A) (A) (A) (A) (A) (A) (A)
                 (A) (A) (A) (A) (A) (A) (A) (A) (A) (A) (A) (A)
                 (A) (A) (A) (A) (A) (A) (A) (A) (A) (A) (A) (A)
                 (A) (A) (A) (A) (A) (A) (A) (A) (A) (A) (A) (A)
                 (A) (A) (A) (A) (A) (A) (A) (A) (A) (A) (A) (A)
                 (A) (A) (A) (A) (A) (A) (A) (A) (A) (A) (A) (A)
                 (A) (A) (A) (A) (A) (A) (A) (A) (A) (A) (A) (A)
                 (A) (A) (A) (A) (A) (A) (A) (A) (A) (A) (A) (A)
                 (A) (A) (A) (A) (A) (A) (A) (A) (A) (A) (A) (A)
                 (A) (A) (A) (A) (A) (A) (A) (A) (A) (A) (A) (A)
                 (A) (A) (A) (A) (A) (A) (A) (A) (A) (A) (A) (A)
                 (A) (A) (A) (A) (A) (A) (A) (A) (A) (A) (A) (A)
                 (A) (A) (A) (A) (A) (A) (A) (A) (A) (A) (A) (A)
                 (A) (A) (A) (A) (A) (A) (A) (A) (A) (A) (A) (A)
                 (A) (A) (A) (A) (A) (A) (A) (A) (A) (A) (A) (A)
                 (A) (A) (A) (A) (A) (A) (A) (A) (A) (A) (A) (A)
                 (A) (A) (A) (A) (A) (A) (A) (A) (A) (A) (A) (A)
                 (A) (A) (A) (A) (A) (A) (A) (A) (A) (A) (A) (A)
                 (A) (A) (A) (A) (A) (A) (A) (A) (A) (A) (A) (A)
                 (A) (A) (A) (A) (A) (A) (A) (A) (A) (A) (A) (A)
                 (A) (A) (A) (A) (A) (A) (A) (A) (A) (A) (A) (A)
                 (A) (A) (A) (A) (A) (A) (A) (A) (A) (A) (A) (A)
                 (A) (A) (A) (A) (A) (A) (A) (A) (A) (A) (A) (A)
                 (A) (A) (A) (A) (A) (A) (A) (A) (A) (A) (A) (A)
                 (A) (A) (A) (A) (A) (A) (A) (A) (A) (A) (A) (A)
                 (A) (A) (A) (A) (A) (A) (A) (A) (A) (A) (A) (A)
                 (A) (A) (A) (A) (A) (A) (A) (A) (A) (A) (A) (A)
                 (A) (A) (A) (A) (A) (A) (A) (A) (A) (A) (A) (A)
                 (A) (A) (A) (A) (A) (A) (A) (A) (A) (A) (A) (A)
                 (A) (A) (A) (A) (A) (A) (A) (A) (A) (A) (A) (A)
                 (A) (A) (A) (A) (A) (A) (A) (A) (A) (A) (A) (A)
                 (A) (A) (A) (A) (A) (A) (A) (A) (A) (A) (A) (A)
                 (A) (A) (A) (A) (A) (A) (A) (A) (A) (A) (A) (A)
                 (A) (A) (A) (A) (A) (A) (A) (A) (A) (A) (A) (A)
                 (A) (A) (A) (A) (A) (A) (A) (A) (A) (A) (A) (A)
                 (A) (A) (A) (A) (A) (A) (A) (A) (A) (A) (A) (A)
                 (A) (A) (A) (A) (A) (A) (A) (A) (A) (A) (A) (A)
                 (A) (A) (A) (A) (A) (A) (A) (A) (A) (A) (A) (A)
                 (A) (A) (A) (A) (A) (A) (A) (A) (A) (A) (A) (A)
                 (A) (A) (A) (A) (A) (A) (A) (A) (A) (A) (A) (A)
                 (A) (A) (A) (A) (A) (A) (A) (A) (A) (A) (A) (A)
                 (A) (A) (A) (A) (A) (A) (A) (A) (A) (A) (A) (A)
                 (A) (A) (A) (A) (A) (A) (A) (A) (A) (A) (A)
 The electronic state is 1-A.
 Alpha  occ. eigenvalues --  -10.77521 -10.73396 -10.73034 -10.72399 -10.72277
 Alpha  occ. eigenvalues --  -10.72135 -10.71546 -10.70952 -10.70477 -10.70383
 Alpha  occ. eigenvalues --  -10.70377 -10.69786 -10.69422 -10.69253  -1.16131
 Alpha  occ. eigenvalues --   -1.12231  -1.06755  -1.05540  -1.01074  -0.99964
 Alpha  occ. eigenvalues --   -0.95541  -0.90867  -0.86215  -0.85553  -0.83671
 Alpha  occ. eigenvalues --   -0.78167  -0.75691  -0.74176  -0.69574  -0.69189
 Alpha  occ. eigenvalues --   -0.68097  -0.67938  -0.67811  -0.64477  -0.63970
 Alpha  occ. eigenvalues --   -0.62821  -0.61670  -0.60006  -0.59653  -0.58495
 Alpha  occ. eigenvalues --   -0.56638  -0.55057  -0.54333  -0.52236  -0.46536
 Alpha  occ. eigenvalues --   -0.45840  -0.44335
 Alpha virt. eigenvalues --   -0.25965  -0.14448  -0.14063  -0.12560  -0.07140
 Alpha virt. eigenvalues --   -0.05442  -0.05404  -0.04072  -0.02749  -0.01599
 Alpha virt. eigenvalues --   -0.00399   0.00303   0.00558   0.01899   0.02273
 Alpha virt. eigenvalues --    0.03936   0.04541   0.06826   0.07614   0.09420
 Alpha virt. eigenvalues --    0.09884   0.10500   0.12618   0.13802   0.14176
 Alpha virt. eigenvalues --    0.15607   0.15909   0.16297   0.16696   0.16943
 Alpha virt. eigenvalues --    0.17509   0.17752   0.18853   0.19583   0.20721
 Alpha virt. eigenvalues --    0.21005   0.21812   0.22669   0.22793   0.24140
 Alpha virt. eigenvalues --    0.25095   0.25418   0.25446   0.26504   0.26715
 Alpha virt. eigenvalues --    0.27448   0.27658   0.28237   0.29570   0.30096
 Alpha virt. eigenvalues --    0.30260   0.30729   0.31357   0.31813   0.32465
 Alpha virt. eigenvalues --    0.33018   0.33257   0.34062   0.34507   0.34795
 Alpha virt. eigenvalues --    0.36004   0.36973   0.37587   0.38318   0.38543
 Alpha virt. eigenvalues --    0.39185   0.39586   0.39978   0.41162   0.42804
 Alpha virt. eigenvalues --    0.44129   0.44317   0.44746   0.45395   0.46515
 Alpha virt. eigenvalues --    0.47993   0.48412   0.49965   0.50424   0.50534
 Alpha virt. eigenvalues --    0.52736   0.52971   0.54488   0.56532   0.56791
 Alpha virt. eigenvalues --    0.58451   0.58703   0.59241   0.59913   0.60620
 Alpha virt. eigenvalues --    0.62028   0.63201   0.63669   0.64009   0.64457
 Alpha virt. eigenvalues --    0.65039   0.66767   0.67245   0.68937   0.69357
 Alpha virt. eigenvalues --    0.69984   0.70892   0.72380   0.73004   0.74228
 Alpha virt. eigenvalues --    0.75177   0.76035   0.76726   0.76954   0.77720
 Alpha virt. eigenvalues --    0.78325   0.81211   0.82468   0.83943   0.84523
 Alpha virt. eigenvalues --    0.85031   0.85491   0.85814   0.86698   0.87329
 Alpha virt. eigenvalues --    0.88146   0.89090   0.89594   0.91581   0.93040
 Alpha virt. eigenvalues --    0.93542   0.94384   0.94929   0.95533   0.95815
 Alpha virt. eigenvalues --    0.96681   0.97923   0.99271   1.00770   1.02389
 Alpha virt. eigenvalues --    1.04005   1.04960   1.05067   1.05882   1.06588
 Alpha virt. eigenvalues --    1.07504   1.09236   1.10482   1.11618   1.11925
 Alpha virt. eigenvalues --    1.12866   1.13124   1.14582   1.14941   1.15825
 Alpha virt. eigenvalues --    1.15947   1.16609   1.17595   1.18078   1.19709
 Alpha virt. eigenvalues --    1.21135   1.21743   1.22958   1.23629   1.24396
 Alpha virt. eigenvalues --    1.25097   1.26449   1.26990   1.27339   1.28150
 Alpha virt. eigenvalues --    1.30062   1.30482   1.30736   1.31944   1.33290
 Alpha virt. eigenvalues --    1.34089   1.35513   1.37186   1.37566   1.38185
 Alpha virt. eigenvalues --    1.39890   1.41716   1.43128   1.44017   1.44906
 Alpha virt. eigenvalues --    1.46006   1.47085   1.47509   1.49708   1.50702
 Alpha virt. eigenvalues --    1.55262   1.56497   1.60944   1.62181   1.65218
 Alpha virt. eigenvalues --    1.66816   1.69297   1.70185   1.73458   1.77612
 Alpha virt. eigenvalues --    1.78687   1.81343   1.84656   1.88481   1.89124
 Alpha virt. eigenvalues --    1.91071   1.92027   1.93199   1.95400   1.97077
 Alpha virt. eigenvalues --    1.98604   2.00428   2.01944   2.03535   2.04341
 Alpha virt. eigenvalues --    2.04884   2.06539   2.07192   2.08697   2.12093
 Alpha virt. eigenvalues --    2.13182   2.15061   2.16102   2.16982   2.18866
 Alpha virt. eigenvalues --    2.21034   2.23769   2.25482   2.26934   2.27947
 Alpha virt. eigenvalues --    2.28287   2.28903   2.30691   2.32012   2.32980
 Alpha virt. eigenvalues --    2.33081   2.33510   2.34358   2.34887   2.36103
 Alpha virt. eigenvalues --    2.36446   2.36765   2.37785   2.38183   2.39358
 Alpha virt. eigenvalues --    2.40045   2.42789   2.43561   2.45365   2.47438
 Alpha virt. eigenvalues --    2.48542   2.50503   2.51556   2.52164   2.53248
 Alpha virt. eigenvalues --    2.53471   2.54281   2.55871   2.56345   2.56996
 Alpha virt. eigenvalues --    2.57757   2.58221   2.58884   2.59727   2.60683
 Alpha virt. eigenvalues --    2.61232   2.62221   2.64729   2.65429   2.65548
 Alpha virt. eigenvalues --    2.66844   2.67500   2.68912   2.69202   2.70857
 Alpha virt. eigenvalues --    2.72306   2.73505   2.74140   2.75880   2.76177
 Alpha virt. eigenvalues --    2.76632   2.77424   2.78404   2.78733   2.79553
 Alpha virt. eigenvalues --    2.80243   2.81548   2.81917   2.82001   2.82845
 Alpha virt. eigenvalues --    2.84038   2.84647   2.85281   2.85714   2.86201
 Alpha virt. eigenvalues --    2.87013   2.87599   2.88650   2.89803   2.90798
 Alpha virt. eigenvalues --    2.91687   2.92185   2.92593   2.93193   2.94170
 Alpha virt. eigenvalues --    2.94450   2.95291   2.95598   2.96257   2.97481
 Alpha virt. eigenvalues --    2.97752   2.98314   2.98682   3.00074   3.01555
 Alpha virt. eigenvalues --    3.01579   3.02525   3.02926   3.03139   3.04401
 Alpha virt. eigenvalues --    3.05155   3.06149   3.06285   3.08245   3.08636
 Alpha virt. eigenvalues --    3.10431   3.12230   3.12331   3.14260   3.14383
 Alpha virt. eigenvalues --    3.14785   3.15121   3.15361   3.16245   3.17197
 Alpha virt. eigenvalues --    3.19613   3.19930   3.20542   3.21000   3.22036
 Alpha virt. eigenvalues --    3.22152   3.22800   3.23550   3.24734   3.26361
 Alpha virt. eigenvalues --    3.27390   3.27710   3.29355   3.29629   3.30374
 Alpha virt. eigenvalues --    3.32809   3.33723   3.34184   3.35656   3.36571
 Alpha virt. eigenvalues --    3.38644   3.39745   3.40708   3.43639   3.44344
 Alpha virt. eigenvalues --    3.45347   3.45740   3.48173   3.48707   3.49473
 Alpha virt. eigenvalues --    3.50894   3.51493   3.53747   3.54302   3.54520
 Alpha virt. eigenvalues --    3.54752   3.55814   3.56591   3.57732   3.58316
 Alpha virt. eigenvalues --    3.59223   3.60563   3.61761   3.61875   3.62778
 Alpha virt. eigenvalues --    3.64740   3.65023   3.65639   3.66434   3.67880
 Alpha virt. eigenvalues --    3.68119   3.68471   3.69379   3.70217   3.70931
 Alpha virt. eigenvalues --    3.71895   3.75025   3.75252   3.75809   3.76787
 Alpha virt. eigenvalues --    3.77894   3.79081   3.79623   3.80791   3.82307
 Alpha virt. eigenvalues --    3.83734   3.84192   3.85044   3.86593   3.87656
 Alpha virt. eigenvalues --    3.88279   3.89214   3.89498   3.90933   3.92864
 Alpha virt. eigenvalues --    3.93225   3.94714   3.95158   3.95556   3.97250
 Alpha virt. eigenvalues --    3.97710   3.98727   4.00781   4.01580   4.01946
 Alpha virt. eigenvalues --    4.02406   4.03446   4.04934   4.05046   4.06168
 Alpha virt. eigenvalues --    4.07300   4.07899   4.08803   4.10961   4.11609
 Alpha virt. eigenvalues --    4.12509   4.12714   4.13383   4.13717   4.15647
 Alpha virt. eigenvalues --    4.16273   4.17287   4.17947   4.19074   4.20585
 Alpha virt. eigenvalues --    4.21507   4.23277   4.24972   4.26711   4.28370
 Alpha virt. eigenvalues --    4.30329   4.31285   4.34086   4.34469   4.38020
 Alpha virt. eigenvalues --    4.40922   4.42999   4.43839   4.45869   4.48094
 Alpha virt. eigenvalues --    4.50017   4.50239   4.51199   4.51755   4.53828
 Alpha virt. eigenvalues --    4.57246   4.57437   4.58373   4.60409   4.61396
 Alpha virt. eigenvalues --    4.64580   4.67228   4.67691   4.69361   4.70545
 Alpha virt. eigenvalues --    4.73750   4.75361   4.77478   4.79211   4.80974
 Alpha virt. eigenvalues --    4.81280   4.82166   4.84418   4.86119   4.87859
 Alpha virt. eigenvalues --    4.89842   4.92216   4.95699   4.98684   5.00024
 Alpha virt. eigenvalues --    5.00422   5.01583   5.04356   5.07146   5.11228
 Alpha virt. eigenvalues --    5.14551   5.16527   5.17733   5.19853   5.23524
 Alpha virt. eigenvalues --    5.24957   5.28460   5.30735   5.36940   5.42148
 Alpha virt. eigenvalues --    5.43804   5.48376   5.50604   5.56189   5.59528
 Alpha virt. eigenvalues --    5.61192   5.65014   5.68015   5.71377   5.76174
 Alpha virt. eigenvalues --    5.78368   5.84006   5.86683   5.97031   6.07234
 Alpha virt. eigenvalues --    6.10138   6.44336   6.58111   8.17815   9.46736
 Alpha virt. eigenvalues --   11.42396  12.06417  12.25316  12.65176  12.79802
 Alpha virt. eigenvalues --   12.90678  13.01677  13.39532  14.37777  14.53639
 Alpha virt. eigenvalues --   14.99172  15.45230
          Condensed to atoms (all electrons):
               1          2          3          4          5          6
     1  C    4.938116   0.493467  -0.063546  -0.021791   0.000050   0.000002
     2  C    0.493467   4.824461   0.462866  -0.053959  -0.000003  -0.000000
     3  C   -0.063546   0.462866   4.931678   0.507616   0.000011   0.000000
     4  C   -0.021791  -0.053959   0.507616   4.950181  -0.000274   0.000012
     5  C    0.000050  -0.000003   0.000011  -0.000274   4.905702   0.516370
     6  C    0.000002  -0.000000   0.000000   0.000012   0.516370   4.907211
     7  C    0.000005  -0.000000  -0.000000  -0.000003  -0.058761   0.455738
     8  C   -0.000047   0.000005   0.000002   0.000030  -0.019572  -0.055827
     9  C   -0.064463   0.005282  -0.001812   0.005542   0.006491  -0.001700
    10  C    0.007360  -0.002170   0.008467  -0.046939  -0.042176   0.008463
    11  C    0.479218  -0.030888  -0.049563  -0.069074  -0.002022   0.000195
    12  C   -0.054736  -0.029638  -0.038747   0.410012   0.007905  -0.000510
    13  C    0.008773  -0.000227   0.000243  -0.001856  -0.068113  -0.042989
    14  C   -0.001649   0.000076  -0.000629   0.007712   0.404735  -0.034357
    15  H    0.436297  -0.043304   0.007440  -0.001234  -0.000000   0.000000
    16  H   -0.041892   0.439167  -0.048346   0.005972   0.000000  -0.000000
    17  H    0.005772  -0.041892   0.428036  -0.041307  -0.000000   0.000000
    18  H   -0.000635   0.004075  -0.026956   0.431606  -0.000005   0.000001
    19  H   -0.000135   0.000011   0.000234  -0.001720  -0.001433   0.000235
    20  H   -0.000000  -0.000000   0.000001  -0.000016   0.450306  -0.040322
    21  H    0.000000   0.000000   0.000000  -0.000000  -0.039466   0.437985
    22  H   -0.000000   0.000000  -0.000000   0.000000   0.004954  -0.037651
    23  H    0.000021   0.000001   0.000000  -0.000000  -0.000752   0.004433
    24  H   -0.005971  -0.000200   0.000117  -0.000067  -0.000128   0.000133
    25  H   -0.013284   0.000068  -0.000115   0.000377   0.000409  -0.000075
               7          8          9         10         11         12
     1  C    0.000005  -0.000047  -0.064463   0.007360   0.479218  -0.054736
     2  C   -0.000000   0.000005   0.005282  -0.002170  -0.030888  -0.029638
     3  C   -0.000000   0.000002  -0.001812   0.008467  -0.049563  -0.038747
     4  C   -0.000003   0.000030   0.005542  -0.046939  -0.069074   0.410012
     5  C   -0.058761  -0.019572   0.006491  -0.042176  -0.002022   0.007905
     6  C    0.455738  -0.055827  -0.001700   0.008463   0.000195  -0.000510
     7  C    4.861744   0.489320   0.005106  -0.002404  -0.000250   0.000077
     8  C    0.489320   4.947231  -0.065225   0.006574   0.008622  -0.001636
     9  C    0.005106  -0.065225   5.039110  -0.026781   0.343201  -0.040908
    10  C   -0.002404   0.006574  -0.026781   4.889365  -0.037074   0.452944
    11  C   -0.000250   0.008622   0.343201  -0.037074   5.113686   0.333554
    12  C    0.000077  -0.001636  -0.040908   0.452944   0.333554   5.051249
    13  C   -0.033907   0.475175   0.323894  -0.042889  -0.009129  -0.045998
    14  C   -0.034629  -0.049205  -0.039282   0.467741  -0.047995  -0.043884
    15  H    0.000001   0.000006   0.000265  -0.000041  -0.063122   0.009731
    16  H    0.000000  -0.000000  -0.000212   0.000041   0.006447  -0.000843
    17  H    0.000000   0.000000   0.000059  -0.000326  -0.000359   0.006693
    18  H   -0.000000  -0.000001  -0.000081  -0.001184   0.005342  -0.059272
    19  H    0.000002  -0.000111  -0.000363   0.422705   0.005430  -0.041494
    20  H    0.006787  -0.001145  -0.000105  -0.002105  -0.000064   0.000709
    21  H   -0.044594   0.005569   0.000052  -0.000251  -0.000004   0.000011
    22  H    0.428260  -0.043539  -0.000252   0.000043   0.000010  -0.000001
    23  H   -0.032642   0.425018   0.002289  -0.000053   0.000196  -0.000026
    24  H   -0.000206  -0.006339   0.394251   0.000343  -0.023309   0.003816
    25  H   -0.000023  -0.012650   0.425191  -0.004817  -0.047885   0.011172
              13         14         15         16         17         18
     1  C    0.008773  -0.001649   0.436297  -0.041892   0.005772  -0.000635
     2  C   -0.000227   0.000076  -0.043304   0.439167  -0.041892   0.004075
     3  C    0.000243  -0.000629   0.007440  -0.048346   0.428036  -0.026956
     4  C   -0.001856   0.007712  -0.001234   0.005972  -0.041307   0.431606
     5  C   -0.068113   0.404735  -0.000000   0.000000  -0.000000  -0.000005
     6  C   -0.042989  -0.034357   0.000000  -0.000000   0.000000   0.000001
     7  C   -0.033907  -0.034629   0.000001   0.000000   0.000000  -0.000000
     8  C    0.475175  -0.049205   0.000006  -0.000000   0.000000  -0.000001
     9  C    0.323894  -0.039282   0.000265  -0.000212   0.000059  -0.000081
    10  C   -0.042889   0.467741  -0.000041   0.000041  -0.000326  -0.001184
    11  C   -0.009129  -0.047995  -0.063122   0.006447  -0.000359   0.005342
    12  C   -0.045998  -0.043884   0.009731  -0.000843   0.006693  -0.059272
    13  C    5.107164   0.336416   0.000232   0.000008  -0.000005  -0.000066
    14  C    0.336416   5.064027  -0.000015  -0.000001   0.000016   0.000869
    15  H    0.000232  -0.000015   0.520667  -0.006388  -0.000238   0.000031
    16  H    0.000008  -0.000001  -0.006388   0.499788  -0.006180  -0.000143
    17  H   -0.000005   0.000016  -0.000238  -0.006180   0.514359  -0.005751
    18  H   -0.000066   0.000869   0.000031  -0.000143  -0.005751   0.516661
    19  H    0.004686  -0.033904   0.000013  -0.000002  -0.000028   0.002798
    20  H    0.006292  -0.069393   0.000000   0.000000  -0.000000   0.000001
    21  H   -0.000565   0.005711  -0.000000   0.000000  -0.000000   0.000000
    22  H    0.007020  -0.000525  -0.000000  -0.000000   0.000000  -0.000000
    23  H   -0.051717   0.008234   0.000007  -0.000000  -0.000000   0.000000
    24  H   -0.025205   0.004059   0.000683  -0.000012  -0.000000   0.000009
    25  H   -0.053254   0.011099   0.000306  -0.000000  -0.000000   0.000013
              19         20         21         22         23         24
     1  C   -0.000135  -0.000000   0.000000  -0.000000   0.000021  -0.005971
     2  C    0.000011  -0.000000   0.000000   0.000000   0.000001  -0.000200
     3  C    0.000234   0.000001   0.000000  -0.000000   0.000000   0.000117
     4  C   -0.001720  -0.000016  -0.000000   0.000000  -0.000000  -0.000067
     5  C   -0.001433   0.450306  -0.039466   0.004954  -0.000752  -0.000128
     6  C    0.000235  -0.040322   0.437985  -0.037651   0.004433   0.000133
     7  C    0.000002   0.006787  -0.044594   0.428260  -0.032642  -0.000206
     8  C   -0.000111  -0.001145   0.005569  -0.043539   0.425018  -0.006339
     9  C   -0.000363  -0.000105   0.000052  -0.000252   0.002289   0.394251
    10  C    0.422705  -0.002105  -0.000251   0.000043  -0.000053   0.000343
    11  C    0.005430  -0.000064  -0.000004   0.000010   0.000196  -0.023309
    12  C   -0.041494   0.000709   0.000011  -0.000001  -0.000026   0.003816
    13  C    0.004686   0.006292  -0.000565   0.007020  -0.051717  -0.025205
    14  C   -0.033904  -0.069393   0.005711  -0.000525   0.008234   0.004059
    15  H    0.000013   0.000000  -0.000000  -0.000000   0.000007   0.000683
    16  H   -0.000002   0.000000   0.000000  -0.000000  -0.000000  -0.000012
    17  H   -0.000028  -0.000000  -0.000000   0.000000  -0.000000  -0.000000
    18  H    0.002798   0.000001   0.000000  -0.000000   0.000000   0.000009
    19  H    0.480991   0.002347  -0.000024  -0.000001   0.000009   0.000048
    20  H    0.002347   0.514715  -0.006696  -0.000176   0.000029   0.000010
    21  H   -0.000024  -0.006696   0.499105  -0.005337  -0.000165  -0.000000
    22  H   -0.000001  -0.000176  -0.005337   0.504011  -0.005467  -0.000012
    23  H    0.000009   0.000029  -0.000165  -0.005467   0.510501   0.000637
    24  H    0.000048   0.000010  -0.000000  -0.000012   0.000637   0.484803
    25  H   -0.000018   0.000019  -0.000001  -0.000008   0.000271  -0.031894
              25
     1  C   -0.013284
     2  C    0.000068
     3  C   -0.000115
     4  C    0.000377
     5  C    0.000409
     6  C   -0.000075
     7  C   -0.000023
     8  C   -0.012650
     9  C    0.425191
    10  C   -0.004817
    11  C   -0.047885
    12  C    0.011172
    13  C   -0.053254
    14  C    0.011099
    15  H    0.000306
    16  H   -0.000000
    17  H   -0.000000
    18  H    0.000013
    19  H   -0.000018
    20  H    0.000019
    21  H   -0.000001
    22  H   -0.000008
    23  H    0.000271
    24  H   -0.031894
    25  H    0.511357
 Mulliken charges:
               1
     1  C   -0.100933
     2  C   -0.027195
     3  C   -0.116995
     4  C   -0.080820
     5  C   -0.064228
     6  C   -0.117346
     7  C   -0.039621
     8  C   -0.102252
     9  C   -0.309547
    10  C   -0.054836
    11  C    0.084838
    12  C    0.069819
    13  C    0.106021
    14  C    0.044773
    15  H    0.138662
    16  H    0.152597
    17  H    0.141151
    18  H    0.132689
    19  H    0.159723
    20  H    0.138807
    21  H    0.148668
    22  H    0.148673
    23  H    0.139176
    24  H    0.204435
    25  H    0.203742
 Sum of Mulliken charges =   1.00000
 Mulliken charges with hydrogens summed into heavy atoms:
               1
     1  C    0.037729
     2  C    0.125402
     3  C    0.024156
     4  C    0.051870
     5  C    0.074579
     6  C    0.031322
     7  C    0.109051
     8  C    0.036923
     9  C    0.098630
    10  C    0.104888
    11  C    0.084838
    12  C    0.069819
    13  C    0.106021
    14  C    0.044773
 Electronic spatial extent (au):  <R**2>=           2858.0531
 Charge=              1.0000 electrons
 Dipole moment (field-independent basis, Debye):
    X=             -0.0600    Y=              0.1864    Z=             -0.0153  Tot=              0.1964
 Quadrupole moment (field-independent basis, Debye-Ang):
   XX=            -31.0645   YY=            -56.3402   ZZ=            -83.3546
   XY=              0.4346   XZ=              0.0373   YZ=              0.8602
 Traceless Quadrupole moment (field-independent basis, Debye-Ang):
   XX=             25.8553   YY=              0.5795   ZZ=            -26.4348
   XY=              0.4346   XZ=              0.0373   YZ=              0.8602
 Octapole moment (field-independent basis, Debye-Ang**2):
  XXX=             -1.5499  YYY=              5.1886  ZZZ=              0.1209  XYY=             -0.0425
  XXY=             -5.0655  XXZ=              0.1651  XZZ=              0.0307  YZZ=             -2.9605
  YYZ=              0.6979  XYZ=             -0.0561
 Hexadecapole moment (field-independent basis, Debye-Ang**3):
 XXXX=          -2127.1320 YYYY=           -610.8859 ZZZZ=            -98.5487 XXXY=             -4.9155
 XXXZ=             -0.2681 YYYX=              8.3023 YYYZ=              3.9667 ZZZX=             -0.1510
 ZZZY=              0.4831 XXYY=           -509.9586 XXZZ=           -583.3606 YYZZ=           -144.7558
 XXYZ=             17.7921 YYXZ=              0.6547 ZZXY=             -2.2510
 N-N= 7.804059331980D+02 E-N=-2.796252403206D+03  KE= 5.363719712517D+02
 Unable to Open any file for archive entry.
 1\1\GINC-GADI-CPU-CLX-0712\SP\RM062X TD-FC\CC-pVTZ\C14H11(1+)\TS1578\2
 5-Jul-2022\0\\#n M062X/cc-pvtz TD EmpiricalDispersion=GD3 SP\\SP_-5\\1
 ,1\C,0,2.4927,1.3291,-0.085\C,0,3.7015,0.6807,-0.015\C,0,3.6839,-0.690
 1,0.\C,0,2.4632,-1.4289,0.1\C,0,-2.4632,-1.3689,0.1\C,0,-3.6839,-0.720
 1,0.\C,0,-3.7015,0.6807,-0.015\C,0,-2.4927,1.4091,-0.085\C,0,0.,1.4621
 ,-0.165\C,0,0.,-1.4205,0.135\C,0,1.2621,0.6657,-0.04\C,0,1.2375,-0.737
 1,0.065\C,0,-1.2621,0.7057,-0.04\C,0,-1.2375,-0.7071,0.065\H,0,2.4881,
 2.3823,-0.09\H,0,4.6368,1.1754,0.06\H,0,4.6093,-1.2937,-0.07\H,0,2.467
 5,-2.5714,0.105\H,0,0.,-2.5016,0.14\H,0,-2.4675,-2.3914,0.105\H,0,-4.6
 093,-1.2337,-0.07\H,0,-4.6368,1.2654,0.06\H,0,-2.4881,2.5223,-0.09\H,0
 ,0.01,2.1545,-1.0096\H,0,-0.01,2.1545,0.7096\\Version=ES64L-G16RevC.01
 \State=1-A\HF=-539.7974902\RMSD=8.668e-09\PG=C01 [X(C14H11)]\\@
 The archive entry for this job was punched.


 GOD GAVE US TWO ENDS... ONE TO SIT ON...    
 AND THE OTHER TO THINK WITH...              
 YOUR SUCCESS DEPENDS UPON WHICH END YOU     
 USE THE MOST...                             
                                             
 IT'S A CASE OF HEADS YOU WIN TAILS YOU LOSE.
          SOURCE UNKNOWN(IT'S JUST AS WELL.) 
 Job cpu time:       0 days  3 hours 22 minutes  1.1 seconds.
 Elapsed time:       0 days  0 hours 14 minutes 45.9 seconds.
 File lengths (MBytes):  RWF=    831 Int=      0 D2E=      0 Chk=     49 Scr=      1
 Normal termination of Gaussian 16 at Mon Jul 25 19:44:49 2022.
