 Entering Gaussian System, Link 0=g16
 Initial command:
 /apps/gaussian/g16c01/g16/l1.exe "/jobfs/52580424.gadi-pbs/Gau-2610023.inp" -scrdir="/jobfs/52580424.gadi-pbs/"
 Entering Link 1 = /apps/gaussian/g16c01/g16/l1.exe PID=   2610024.
  
 Copyright (c) 1988-2019, Gaussian, Inc.  All Rights Reserved.
  
 This is part of the Gaussian(R) 16 program.  It is based on
 the Gaussian(R) 09 system (copyright 2009, Gaussian, Inc.),
 the Gaussian(R) 03 system (copyright 2003, Gaussian, Inc.),
 the Gaussian(R) 98 system (copyright 1998, Gaussian, Inc.),
 the Gaussian(R) 94 system (copyright 1995, Gaussian, Inc.),
 the Gaussian 92(TM) system (copyright 1992, Gaussian, Inc.),
 the Gaussian 90(TM) system (copyright 1990, Gaussian, Inc.),
 the Gaussian 88(TM) system (copyright 1988, Gaussian, Inc.),
 the Gaussian 86(TM) system (copyright 1986, Carnegie Mellon
 University), and the Gaussian 82(TM) system (copyright 1983,
 Carnegie Mellon University). Gaussian is a federally registered
 trademark of Gaussian, Inc.
  
 This software contains proprietary and confidential information,
 including trade secrets, belonging to Gaussian, Inc.
  
 This software is provided under written license and may be
 used, copied, transmitted, or stored only in accord with that
 written license.
  
 The following legend is applicable only to US Government
 contracts under FAR:
  
                    RESTRICTED RIGHTS LEGEND
  
 Use, reproduction and disclosure by the US Government is
 subject to restrictions as set forth in subparagraphs (a)
 and (c) of the Commercial Computer Software - Restricted
 Rights clause in FAR 52.227-19.
  
 Gaussian, Inc.
 340 Quinnipiac St., Bldg. 40, Wallingford CT 06492
  
  
 ---------------------------------------------------------------
 Warning -- This program may not be used in any manner that
 competes with the business of Gaussian, Inc. or will provide
 assistance to any competitor of Gaussian, Inc.  The licensee
 of this program is prohibited from giving any competitor of
 Gaussian, Inc. access to this program.  By using this program,
 the user acknowledges that Gaussian, Inc. is engaged in the
 business of creating and licensing software in the field of
 computational chemistry and represents and warrants to the
 licensee that it is not a competitor of Gaussian, Inc. and that
 it will not use this program in any manner prohibited above.
 ---------------------------------------------------------------
  

 Cite this work as:
 Gaussian 16, Revision C.01,
 M. J. Frisch, G. W. Trucks, H. B. Schlegel, G. E. Scuseria, 
 M. A. Robb, J. R. Cheeseman, G. Scalmani, V. Barone, 
 G. A. Petersson, H. Nakatsuji, X. Li, M. Caricato, A. V. Marenich, 
 J. Bloino, B. G. Janesko, R. Gomperts, B. Mennucci, H. P. Hratchian, 
 J. V. Ortiz, A. F. Izmaylov, J. L. Sonnenberg, D. Williams-Young, 
 F. Ding, F. Lipparini, F. Egidi, J. Goings, B. Peng, A. Petrone, 
 T. Henderson, D. Ranasinghe, V. G. Zakrzewski, J. Gao, N. Rega, 
 G. Zheng, W. Liang, M. Hada, M. Ehara, K. Toyota, R. Fukuda, 
 J. Hasegawa, M. Ishida, T. Nakajima, Y. Honda, O. Kitao, H. Nakai, 
 T. Vreven, K. Throssell, J. A. Montgomery, Jr., J. E. Peralta, 
 F. Ogliaro, M. J. Bearpark, J. J. Heyd, E. N. Brothers, K. N. Kudin, 
 V. N. Staroverov, T. A. Keith, R. Kobayashi, J. Normand, 
 K. Raghavachari, A. P. Rendell, J. C. Burant, S. S. Iyengar, 
 J. Tomasi, M. Cossi, J. M. Millam, M. Klene, C. Adamo, R. Cammi, 
 J. W. Ochterski, R. L. Martin, K. Morokuma, O. Farkas, 
 J. B. Foresman, and D. J. Fox, Gaussian, Inc., Wallingford CT, 2019.
 
 ******************************************
 Gaussian 16:  ES64L-G16RevC.01  3-Jul-2019
                25-Jul-2022 
 ******************************************
 %NProcShared=16
 Will use up to   16 processors via shared memory.
 %mem = 64GB
 %Chk=check_sp_3
 ----------------------------------------------
 #n M062X/cc-pvtz TD EmpiricalDispersion=GD3 SP
 ----------------------------------------------
 1/38=1,172=1/1;
 2/12=2,17=6,18=5,40=1/2;
 3/5=16,6=1,11=9,25=1,30=1,74=-55,124=31/1,2,3,8;
 4//1;
 5/5=2,38=5/2;
 8/6=1,10=1/1;
 9/42=1,70=2/14;
 6/7=2,8=2,9=2,10=2/1;
 99/5=1,9=1/99;
 -----
 SP_-2
 -----
 Symbolic Z-matrix:
 Charge =  1 Multiplicity = 1
 C                     2.4927    1.3531   -0.034 
 C                     3.7015    0.6807   -0.006 
 C                     3.6839   -0.6991    0. 
 C                     2.4632   -1.4109    0.04 
 C                    -2.4632   -1.3869    0.04 
 C                    -3.6839   -0.7111    0. 
 C                    -3.7015    0.6807   -0.006 
 C                    -2.4927    1.3851   -0.034 
 C                     0.        1.4621   -0.066 
 C                     0.       -1.4205    0.054 
 C                     1.2621    0.6777   -0.016 
 C                     1.2375   -0.7281    0.026 
 C                    -1.2621    0.6937   -0.016 
 C                    -1.2375   -0.7161    0.026 
 H                     2.4881    2.4243   -0.036 
 H                     4.6368    1.2024    0.024 
 H                     4.6093   -1.2757   -0.028 
 H                     2.4675   -2.5174    0.042 
 H                     0.       -2.5016    0.056 
 H                    -2.4675   -2.4454    0.042 
 H                    -4.6093   -1.2517   -0.028 
 H                    -4.6368    1.2384    0.024 
 H                    -2.4881    2.4803   -0.036 
 H                     0.004     2.1545   -0.9196 
 H                    -0.004     2.1545    0.7996 
 
                          Input orientation:                          
 ---------------------------------------------------------------------
 Center     Atomic      Atomic             Coordinates (Angstroms)
 Number     Number       Type             X           Y           Z
 ---------------------------------------------------------------------
      1          6           0        2.492700    1.353100   -0.034000
      2          6           0        3.701500    0.680700   -0.006000
      3          6           0        3.683900   -0.699100    0.000000
      4          6           0        2.463200   -1.410900    0.040000
      5          6           0       -2.463200   -1.386900    0.040000
      6          6           0       -3.683900   -0.711100    0.000000
      7          6           0       -3.701500    0.680700   -0.006000
      8          6           0       -2.492700    1.385100   -0.034000
      9          6           0        0.000000    1.462100   -0.066000
     10          6           0        0.000000   -1.420500    0.054000
     11          6           0        1.262100    0.677700   -0.016000
     12          6           0        1.237500   -0.728100    0.026000
     13          6           0       -1.262100    0.693700   -0.016000
     14          6           0       -1.237500   -0.716100    0.026000
     15          1           0        2.488100    2.424300   -0.036000
     16          1           0        4.636800    1.202400    0.024000
     17          1           0        4.609300   -1.275700   -0.028000
     18          1           0        2.467500   -2.517400    0.042000
     19          1           0        0.000000   -2.501600    0.056000
     20          1           0       -2.467500   -2.445400    0.042000
     21          1           0       -4.609300   -1.251700   -0.028000
     22          1           0       -4.636800    1.238400    0.024000
     23          1           0       -2.488100    2.480300   -0.036000
     24          1           0        0.004000    2.154500   -0.919600
     25          1           0       -0.004000    2.154500    0.799600
 ---------------------------------------------------------------------
                    Distance matrix (angstroms):
                    1          2          3          4          5
     1  C    0.000000
     2  C    1.383511   0.000000
     3  C    2.373107   1.379925   0.000000
     4  C    2.765148   2.431110   1.413636   0.000000
     5  C    5.663393   6.502354   6.185589   4.926458   0.000000
     6  C    6.512485   7.515403   7.367810   6.186934   1.395856
     7  C    6.230652   7.403000   7.513190   6.510026   2.410492
     8  C    4.985503   6.234186   6.518852   5.690697   2.773144
     9  C    2.495287   3.783555   4.271564   3.785858   3.767677
    10  C    3.730168   4.256729   3.754258   2.463258   2.463469
    11  C    1.403875   2.439422   2.785848   2.409985   4.259527
    12  C    2.431156   2.838492   2.446710   1.403122   3.758909
    13  C    3.812303   4.963627   5.138391   4.279058   2.403055
    14  C    4.266097   5.132816   4.921498   3.765385   1.397322
    15  H    1.071212   2.124472   3.344677   3.836034   6.248711
    16  H    2.150172   1.071381   2.127039   3.399137   7.557429
    17  H    3.374999   2.156869   1.090696   2.151429   7.073701
    18  H    3.871328   3.428251   2.188060   1.106510   5.058640
    19  H    4.591336   4.881801   4.101617   2.693926   2.703732
    20  H    6.248037   6.916022   6.394611   5.038055   1.058511
    21  H    7.564617   8.532529   8.311637   7.074618   2.151429
    22  H    7.130658   8.356984   8.543333   7.578195   3.408371
    23  H    5.106756   6.445976   6.942871   6.297824   3.868027
    24  H    2.760463   4.083902   4.746616   4.436279   4.421473
    25  H    2.751480   4.068391   4.731067   4.401834   4.377919
                    6          7          8          9         10
     6  C    0.000000
     7  C    1.391924   0.000000
     8  C    2.411259   1.399343   0.000000
     9  C    4.277648   3.783555   2.494094   0.000000
    10  C    3.751971   4.256729   3.754023   2.885097   0.000000
    11  C    5.137308   4.963611   3.820898   1.486835   2.449539
    12  C    4.921498   5.136094   4.287611   2.517309   1.418312
    13  C    2.799792   2.439455   1.411642   1.478457   2.463258
    14  C    2.446543   2.832555   2.448299   2.506876   1.424208
    15  H    6.922833   6.430567   5.088056   2.667840   4.580527
    16  H    8.537922   8.354658   7.132076   4.644939   5.327328
    17  H    8.312444   8.537996   7.584082   5.361216   4.612303
    18  H    6.411256   6.948864   6.311804   4.683657   2.700350
    19  H    4.096358   4.881801   4.618235   3.965577   1.081102
    20  H    2.118771   3.361184   3.831337   4.622637   2.671913
    21  H    1.072100   2.135124   3.381234   5.349000   4.613119
    22  H    2.170056   1.089365   2.149895   4.643065   5.345144
    23  H    3.408265   2.170668   1.095211   2.688545   4.627632
    24  H    4.760035   4.091147   2.758582   1.099121   3.705204
    25  H    4.732091   4.061106   2.735049   1.108466   3.651926
                   11         12         13         14         15
    11  C    0.000000
    12  C    1.406642   0.000000
    13  C    2.524251   2.875983   0.000000
    14  C    2.862244   2.475029   1.410640   0.000000
    15  H    2.134031   3.391971   4.130300   4.872992   0.000000
    16  H    3.415481   3.909229   5.920929   6.179648   2.472560
    17  H    3.875521   3.416404   6.192901   5.873767   4.264921
    18  H    3.415409   2.171348   4.921833   4.119704   4.942358
    19  H    3.421407   2.162778   3.436280   2.172629   5.519384
    20  H    4.864878   4.083675   3.363079   2.122177   6.948240
    21  H    6.180297   5.870447   3.871495   3.414501   7.992880
    22  H    5.925623   6.194718   3.418611   3.921137   7.223168
    23  H    4.160981   4.917090   2.166891   3.432902   4.976515
    24  H    2.140151   3.274914   2.133879   3.267388   2.650338
    25  H    2.109301   3.232516   2.093312   3.218746   2.642268
                   16         17         18         19         20
    16  H    0.000000
    17  H    2.478798   0.000000
    18  H    4.306170   2.476697   0.000000
    19  H    5.934691   4.770276   2.467590   0.000000
    20  H    7.986103   7.173158   4.935525   2.468180   0.000000
    21  H    9.566383   9.218631   7.189436   4.776500   2.452983
    22  H    9.273670   9.581950   8.036009   5.957226   4.275110
    23  H    7.238842   8.029987   7.038541   5.569419   4.926361
    24  H    4.822832   5.811197   5.368441   4.757213   5.309620
    25  H    4.800529   5.808075   5.339374   4.715106   5.272748
                   21         22         23         24         25
    21  H    0.000000
    22  H    2.490795   0.000000
    23  H    4.292712   2.482504   0.000000
    24  H    5.803420   4.823551   2.664105   0.000000
    25  H    5.787565   4.785774   2.641046   1.719219   0.000000
 Stoichiometry    C14H11(1+)
 Framework group  C1[X(C14H11)]
 Deg. of freedom    69
 Full point group                 C1      NOp   1
 Largest Abelian subgroup         C1      NOp   1
 Largest concise Abelian subgroup C1      NOp   1
                         Standard orientation:                         
 ---------------------------------------------------------------------
 Center     Atomic      Atomic             Coordinates (Angstroms)
 Number     Number       Type             X           Y           Z
 ---------------------------------------------------------------------
      1          6           0        2.488859   -1.351937    0.001485
      2          6           0        3.699570   -0.682506   -0.010470
      3          6           0        3.685902    0.697086    0.016600
      4          6           0        2.467235    1.413115   -0.006252
      5          6           0       -2.459213    1.403157   -0.006511
      6          6           0       -3.681834    0.730072    0.017360
      7          6           0       -3.703400   -0.661416   -0.009996
      8          6           0       -2.496612   -1.369725    0.001037
      9          6           0       -0.004142   -1.454571    0.031023
     10          6           0        0.004073    1.430065   -0.019860
     11          6           0        1.260188   -0.672797   -0.000245
     12          6           0        1.239595    0.733670   -0.008541
     13          6           0       -1.264047   -0.681601   -0.000467
     14          6           0       -1.235430    0.728725   -0.008670
     15          1           0        2.481206   -2.422860   -0.022187
     16          1           0        4.633380   -1.205999   -0.053024
     17          1           0        4.612941    1.270211    0.058351
     18          1           0        2.474688    2.519329    0.018266
     19          1           0        0.007153    2.510898    0.004050
     20          1           0       -2.460497    2.461408    0.016857
     21          1           0       -4.605690    1.272480    0.058367
     22          1           0       -4.640285   -1.215570   -0.053293
     23          1           0       -2.495133   -2.464667   -0.023210
     24          1           0       -0.002118   -2.167238    0.867784
     25          1           0       -0.010111   -2.126014   -0.850922
 ---------------------------------------------------------------------
 Rotational constants (GHZ):           2.1343320           0.4446000           0.3687743
 Standard basis: CC-pVTZ (5D, 7F)
 There are   655 symmetry adapted cartesian basis functions of A   symmetry.
 There are   574 symmetry adapted basis functions of A   symmetry.
   574 basis functions,   915 primitive gaussians,   655 cartesian basis functions
    47 alpha electrons       47 beta electrons
       nuclear repulsion energy       781.0664782320 Hartrees.
 NAtoms=   25 NActive=   25 NUniq=   25 SFac= 1.00D+00 NAtFMM=   60 NAOKFM=F Big=F
 Integral buffers will be    131072 words long.
 Regular integral format.
 Two-electron integral symmetry is turned on.
 Nuclear repulsion after empirical dispersion term =      781.0654985943 Hartrees.
 One-electron integrals computed using PRISM.
 NBasis=   574 RedAO= T EigKep=  1.79D-05  NBF=   574
 NBsUse=   574 1.00D-06 EigRej= -1.00D+00 NBFU=   574
 ExpMin= 1.03D-01 ExpMax= 8.24D+03 ExpMxC= 2.81D+02 IAcc=3 IRadAn=         5 AccDes= 0.00D+00
 Harris functional with IExCor= 1009 and IRadAn=       5 diagonalized for initial guess.
 HarFok:  IExCor= 1009 AccDes= 0.00D+00 IRadAn=         5 IDoV= 1 UseB2=F ITyADJ=14
 ICtDFT=  3500011 ScaDFX=  1.000000  1.000000  1.000000  1.000000
 FoFCou: FMM=F IPFlag=           0 FMFlag=      100000 FMFlg1=           0
         NFxFlg=           0 DoJE=T BraDBF=F KetDBF=T FulRan=T
         wScrn=  0.000000 ICntrl=       500 IOpCl=  0 I1Cent=   200000004 NGrid=           0
         NMat0=    1 NMatS0=      1 NMatT0=    0 NMatD0=    1 NMtDS0=    0 NMtDT0=    0
 Petite list used in FoFCou.
 Requested convergence on RMS density matrix=1.00D-08 within 128 cycles.
 Requested convergence on MAX density matrix=1.00D-06.
 Requested convergence on             energy=1.00D-06.
 No special actions if energy rises.
 Integral accuracy reduced to 1.0D-05 until final iterations.
 Initial convergence to 1.0D-05 achieved.  Increase integral accuracy.
 SCF Done:  E(RM062X) =  -539.812906968     A.U. after   14 cycles
            NFock= 14  Conv=0.65D-08     -V/T= 2.0063
 DoSCS=F DFT=T ScalE2(SS,OS)=  1.000000  1.000000
 ExpMin= 1.03D-01 ExpMax= 8.24D+03 ExpMxC= 2.81D+02 IAcc=3 IRadAn=         5 AccDes= 0.00D+00
 HarFok:  IExCor=  205 AccDes= 0.00D+00 IRadAn=         5 IDoV=-2 UseB2=F ITyADJ=14
 ICtDFT= 12500011 ScaDFX=  1.000000  1.000000  1.000000  1.000000
 Range of M.O.s used for correlation:    15   574
 NBasis=   574 NAE=    47 NBE=    47 NFC=    14 NFV=     0
 NROrb=    560 NOA=    33 NOB=    33 NVA=   527 NVB=   527

 **** Warning!!: The largest alpha MO coefficient is  0.51410300D+02

 Orbital symmetries:
       Occupied  (A) (A) (A) (A) (A) (A) (A) (A) (A) (A) (A) (A)
                 (A) (A) (A) (A) (A) (A) (A) (A) (A) (A) (A) (A)
                 (A) (A) (A) (A) (A) (A) (A) (A) (A) (A) (A) (A)
                 (A) (A) (A) (A) (A) (A) (A) (A) (A) (A) (A)
       Virtual   (A) (A) (A) (A) (A) (A) (A) (A) (A) (A) (A) (A)
                 (A) (A) (A) (A) (A) (A) (A) (A) (A) (A) (A) (A)
                 (A) (A) (A) (A) (A) (A) (A) (A) (A) (A) (A) (A)
                 (A) (A) (A) (A) (A) (A) (A) (A) (A) (A) (A) (A)
                 (A) (A) (A) (A) (A) (A) (A) (A) (A) (A) (A) (A)
                 (A) (A) (A) (A) (A) (A) (A) (A) (A) (A) (A) (A)
                 (A) (A) (A) (A) (A) (A) (A) (A) (A) (A) (A) (A)
                 (A) (A) (A) (A) (A) (A) (A) (A) (A) (A) (A) (A)
                 (A) (A) (A) (A) (A) (A) (A) (A) (A) (A) (A) (A)
                 (A) (A) (A) (A) (A) (A) (A) (A) (A) (A) (A) (A)
                 (A) (A) (A) (A) (A) (A) (A) (A) (A) (A) (A) (A)
                 (A) (A) (A) (A) (A) (A) (A) (A) (A) (A) (A) (A)
                 (A) (A) (A) (A) (A) (A) (A) (A) (A) (A) (A) (A)
                 (A) (A) (A) (A) (A) (A) (A) (A) (A) (A) (A) (A)
                 (A) (A) (A) (A) (A) (A) (A) (A) (A) (A) (A) (A)
                 (A) (A) (A) (A) (A) (A) (A) (A) (A) (A) (A) (A)
                 (A) (A) (A) (A) (A) (A) (A) (A) (A) (A) (A) (A)
                 (A) (A) (A) (A) (A) (A) (A) (A) (A) (A) (A) (A)
                 (A) (A) (A) (A) (A) (A) (A) (A) (A) (A) (A) (A)
                 (A) (A) (A) (A) (A) (A) (A) (A) (A) (A) (A) (A)
                 (A) (A) (A) (A) (A) (A) (A) (A) (A) (A) (A) (A)
                 (A) (A) (A) (A) (A) (A) (A) (A) (A) (A) (A) (A)
                 (A) (A) (A) (A) (A) (A) (A) (A) (A) (A) (A) (A)
                 (A) (A) (A) (A) (A) (A) (A) (A) (A) (A) (A) (A)
                 (A) (A) (A) (A) (A) (A) (A) (A) (A) (A) (A) (A)
                 (A) (A) (A) (A) (A) (A) (A) (A) (A) (A) (A) (A)
                 (A) (A) (A) (A) (A) (A) (A) (A) (A) (A) (A) (A)
                 (A) (A) (A) (A) (A) (A) (A) (A) (A) (A) (A) (A)
                 (A) (A) (A) (A) (A) (A) (A) (A) (A) (A) (A) (A)
                 (A) (A) (A) (A) (A) (A) (A) (A) (A) (A) (A) (A)
                 (A) (A) (A) (A) (A) (A) (A) (A) (A) (A) (A) (A)
                 (A) (A) (A) (A) (A) (A) (A) (A) (A) (A) (A) (A)
                 (A) (A) (A) (A) (A) (A) (A) (A) (A) (A) (A) (A)
                 (A) (A) (A) (A) (A) (A) (A) (A) (A) (A) (A) (A)
                 (A) (A) (A) (A) (A) (A) (A) (A) (A) (A) (A) (A)
                 (A) (A) (A) (A) (A) (A) (A) (A) (A) (A) (A) (A)
                 (A) (A) (A) (A) (A) (A) (A) (A) (A) (A) (A) (A)
                 (A) (A) (A) (A) (A) (A) (A) (A) (A) (A) (A) (A)
                 (A) (A) (A) (A) (A) (A) (A) (A) (A) (A) (A) (A)
                 (A) (A) (A) (A) (A) (A) (A) (A) (A) (A) (A) (A)
                 (A) (A) (A) (A) (A) (A) (A) (A) (A) (A) (A) (A)
                 (A) (A) (A) (A) (A) (A) (A) (A) (A) (A) (A) (A)
                 (A) (A) (A) (A) (A) (A) (A) (A) (A) (A) (A) (A)
                 (A) (A) (A) (A) (A) (A) (A) (A) (A) (A) (A)
    12 initial guesses have been made.
 Convergence on wavefunction:    0.001000000000000
 Iteration     1 Dimension    12 NMult     0 NNew     12
 CISAX will form    12 AO SS matrices at one time.
 New state      2 was old state      3
 New state      3 was old state      2
 Iteration     2 Dimension    18 NMult    12 NNew      6
 Iteration     3 Dimension    24 NMult    18 NNew      6
 Iteration     4 Dimension    30 NMult    24 NNew      6
 Iteration     5 Dimension    36 NMult    30 NNew      6
 Iteration     6 Dimension    40 NMult    36 NNew      4
 ***********************************************************************
 Excited states from <AA,BB:AA,BB> singles matrix:
 ***********************************************************************
 
 Ground to excited state transition densities written to RWF  633
 Ground to excited state transition electric dipole moments (Au):
       state          X           Y           Z        Dip. S.      Osc.
         1        -0.0159     -0.6322      0.0006      0.3999      0.0276
         2         0.2352      0.0156     -0.0002      0.0556      0.0044
         3        -2.5258     -0.0246      0.0001      6.3805      0.5441
 Ground to excited state transition velocity dipole moments (Au):
       state          X           Y           Z        Dip. S.      Osc.
         1         0.0018      0.0693     -0.0002      0.0048      0.0309
         2        -0.0274     -0.0020      0.0000      0.0008      0.0042
         3         0.3326      0.0032      0.0000      0.1106      0.5767
 Ground to excited state transition magnetic dipole moments (Au):
       state          X           Y           Z
         1        -0.0101     -0.0007      0.0102
         2         0.0008      0.0039      0.9416
         3        -0.0000     -0.0086     -1.1058
 Ground to excited state transition velocity quadrupole moments (Au):
       state          XX          YY          ZZ          XY          XZ          YZ
         1         0.2712      0.0303     -0.0075      0.0163     -0.0001     -0.0015
         2        -0.0116      0.0017      0.0007      0.2791     -0.0013      0.0001
         3        -0.0269      0.0085     -0.0000     -0.1105     -0.0027      0.0000
 <0|del|b> * <b|rxdel|0> + <0|del|b> * <b|delr+rdel|0>
 Rotatory Strengths (R) in cgs (10**-40 erg-esu-cm/Gauss)
       state          XX          YY          ZZ    R(velocity)    E-M Angle
         1        -0.1727     -0.0661     -0.2346     -0.1578       90.00
         2         0.0816     -0.0134     -0.0651      0.0010       90.00
         3        -0.0870     -0.0213     -0.1251     -0.0778       90.00
 1/2[<0|r|b>*<b|rxdel|0> + (<0|rxdel|b>*<b|r|0>)*]
 Rotatory Strengths (R) in cgs (10**-40 erg-esu-cm/Gauss)
       state          XX          YY          ZZ     R(length)
         1        -0.1140     -0.3198     -0.0045     -0.1461
         2        -0.1283     -0.0429      0.1126     -0.0195
         3        -0.0171     -0.1500      0.0465     -0.0402
  1/2[<0|del|b>*<b|r|0> + (<0|r|b>*<b|del|0>)*] (Au)
       state          X           Y           Z        Dip. S.   Osc.(frdel)
         1        -0.0000     -0.0438     -0.0000      0.0438      0.0292
         2        -0.0064     -0.0000     -0.0000      0.0065      0.0043
         3        -0.8401     -0.0001      0.0000      0.8402      0.5601

 Excitation energies and oscillator strengths:
 
 Excited State   1:      Singlet-A      2.8178 eV  440.00 nm  f=0.0276  <S**2>=0.000
      47 -> 48         0.70414
 This state for optimization and/or second-order correction.
 Total Energy, E(TD-HF/TD-DFT) =  -539.709354431    
 Copying the excited state density for this state as the 1-particle RhoCI density.
 
 Excited State   2:      Singlet-A      3.2607 eV  380.24 nm  f=0.0044  <S**2>=0.000
      45 -> 48         0.60862
      46 -> 48        -0.34873
 
 Excited State   3:      Singlet-A      3.4806 eV  356.22 nm  f=0.5441  <S**2>=0.000
      45 -> 48         0.35071
      46 -> 48         0.60421
 SavETr:  write IOETrn=   770 NScale= 10 NData=  16 NLR=1 NState=    3 LETran=      64.

 **********************************************************************

            Population analysis using the SCF Density.

 **********************************************************************

 Orbital symmetries:
       Occupied  (A) (A) (A) (A) (A) (A) (A) (A) (A) (A) (A) (A)
                 (A) (A) (A) (A) (A) (A) (A) (A) (A) (A) (A) (A)
                 (A) (A) (A) (A) (A) (A) (A) (A) (A) (A) (A) (A)
                 (A) (A) (A) (A) (A) (A) (A) (A) (A) (A) (A)
       Virtual   (A) (A) (A) (A) (A) (A) (A) (A) (A) (A) (A) (A)
                 (A) (A) (A) (A) (A) (A) (A) (A) (A) (A) (A) (A)
                 (A) (A) (A) (A) (A) (A) (A) (A) (A) (A) (A) (A)
                 (A) (A) (A) (A) (A) (A) (A) (A) (A) (A) (A) (A)
                 (A) (A) (A) (A) (A) (A) (A) (A) (A) (A) (A) (A)
                 (A) (A) (A) (A) (A) (A) (A) (A) (A) (A) (A) (A)
                 (A) (A) (A) (A) (A) (A) (A) (A) (A) (A) (A) (A)
                 (A) (A) (A) (A) (A) (A) (A) (A) (A) (A) (A) (A)
                 (A) (A) (A) (A) (A) (A) (A) (A) (A) (A) (A) (A)
                 (A) (A) (A) (A) (A) (A) (A) (A) (A) (A) (A) (A)
                 (A) (A) (A) (A) (A) (A) (A) (A) (A) (A) (A) (A)
                 (A) (A) (A) (A) (A) (A) (A) (A) (A) (A) (A) (A)
                 (A) (A) (A) (A) (A) (A) (A) (A) (A) (A) (A) (A)
                 (A) (A) (A) (A) (A) (A) (A) (A) (A) (A) (A) (A)
                 (A) (A) (A) (A) (A) (A) (A) (A) (A) (A) (A) (A)
                 (A) (A) (A) (A) (A) (A) (A) (A) (A) (A) (A) (A)
                 (A) (A) (A) (A) (A) (A) (A) (A) (A) (A) (A) (A)
                 (A) (A) (A) (A) (A) (A) (A) (A) (A) (A) (A) (A)
                 (A) (A) (A) (A) (A) (A) (A) (A) (A) (A) (A) (A)
                 (A) (A) (A) (A) (A) (A) (A) (A) (A) (A) (A) (A)
                 (A) (A) (A) (A) (A) (A) (A) (A) (A) (A) (A) (A)
                 (A) (A) (A) (A) (A) (A) (A) (A) (A) (A) (A) (A)
                 (A) (A) (A) (A) (A) (A) (A) (A) (A) (A) (A) (A)
                 (A) (A) (A) (A) (A) (A) (A) (A) (A) (A) (A) (A)
                 (A) (A) (A) (A) (A) (A) (A) (A) (A) (A) (A) (A)
                 (A) (A) (A) (A) (A) (A) (A) (A) (A) (A) (A) (A)
                 (A) (A) (A) (A) (A) (A) (A) (A) (A) (A) (A) (A)
                 (A) (A) (A) (A) (A) (A) (A) (A) (A) (A) (A) (A)
                 (A) (A) (A) (A) (A) (A) (A) (A) (A) (A) (A) (A)
                 (A) (A) (A) (A) (A) (A) (A) (A) (A) (A) (A) (A)
                 (A) (A) (A) (A) (A) (A) (A) (A) (A) (A) (A) (A)
                 (A) (A) (A) (A) (A) (A) (A) (A) (A) (A) (A) (A)
                 (A) (A) (A) (A) (A) (A) (A) (A) (A) (A) (A) (A)
                 (A) (A) (A) (A) (A) (A) (A) (A) (A) (A) (A) (A)
                 (A) (A) (A) (A) (A) (A) (A) (A) (A) (A) (A) (A)
                 (A) (A) (A) (A) (A) (A) (A) (A) (A) (A) (A) (A)
                 (A) (A) (A) (A) (A) (A) (A) (A) (A) (A) (A) (A)
                 (A) (A) (A) (A) (A) (A) (A) (A) (A) (A) (A) (A)
                 (A) (A) (A) (A) (A) (A) (A) (A) (A) (A) (A) (A)
                 (A) (A) (A) (A) (A) (A) (A) (A) (A) (A) (A) (A)
                 (A) (A) (A) (A) (A) (A) (A) (A) (A) (A) (A) (A)
                 (A) (A) (A) (A) (A) (A) (A) (A) (A) (A) (A) (A)
                 (A) (A) (A) (A) (A) (A) (A) (A) (A) (A) (A) (A)
                 (A) (A) (A) (A) (A) (A) (A) (A) (A) (A) (A)
 The electronic state is 1-A.
 Alpha  occ. eigenvalues --  -10.77534 -10.73195 -10.73056 -10.72297 -10.72246
 Alpha  occ. eigenvalues --  -10.71593 -10.71156 -10.70885 -10.70858 -10.70688
 Alpha  occ. eigenvalues --  -10.70089 -10.69614 -10.69598 -10.69465  -1.16237
 Alpha  occ. eigenvalues --   -1.12279  -1.06774  -1.05570  -1.01145  -1.00023
 Alpha  occ. eigenvalues --   -0.95619  -0.90877  -0.86214  -0.85702  -0.83655
 Alpha  occ. eigenvalues --   -0.78227  -0.75769  -0.74196  -0.69395  -0.69092
 Alpha  occ. eigenvalues --   -0.68261  -0.68005  -0.67950  -0.64498  -0.64046
 Alpha  occ. eigenvalues --   -0.62821  -0.61661  -0.59966  -0.59663  -0.58821
 Alpha  occ. eigenvalues --   -0.56683  -0.55005  -0.54556  -0.52387  -0.46570
 Alpha  occ. eigenvalues --   -0.45973  -0.44423
 Alpha virt. eigenvalues --   -0.25962  -0.14409  -0.13975  -0.12498  -0.06900
 Alpha virt. eigenvalues --   -0.05496  -0.05370  -0.04073  -0.02688  -0.01618
 Alpha virt. eigenvalues --   -0.00238   0.00368   0.00574   0.01931   0.02301
 Alpha virt. eigenvalues --    0.04259   0.04512   0.07126   0.07783   0.09461
 Alpha virt. eigenvalues --    0.09925   0.10416   0.12682   0.14027   0.14179
 Alpha virt. eigenvalues --    0.15744   0.15882   0.16434   0.16734   0.16956
 Alpha virt. eigenvalues --    0.17694   0.17910   0.19335   0.19622   0.20554
 Alpha virt. eigenvalues --    0.20764   0.21943   0.22559   0.22900   0.24271
 Alpha virt. eigenvalues --    0.25235   0.26229   0.26727   0.26959   0.27234
 Alpha virt. eigenvalues --    0.27900   0.28050   0.28205   0.29096   0.30128
 Alpha virt. eigenvalues --    0.30133   0.30578   0.30795   0.31343   0.32321
 Alpha virt. eigenvalues --    0.33061   0.33131   0.34327   0.34526   0.34707
 Alpha virt. eigenvalues --    0.36033   0.37009   0.38214   0.38422   0.38665
 Alpha virt. eigenvalues --    0.39389   0.39592   0.39662   0.41068   0.42977
 Alpha virt. eigenvalues --    0.43554   0.44698   0.44930   0.45665   0.46628
 Alpha virt. eigenvalues --    0.47953   0.48887   0.49694   0.49851   0.50878
 Alpha virt. eigenvalues --    0.52882   0.53191   0.55423   0.56293   0.57766
 Alpha virt. eigenvalues --    0.58558   0.58620   0.59018   0.61004   0.61161
 Alpha virt. eigenvalues --    0.62066   0.62769   0.63276   0.63712   0.65546
 Alpha virt. eigenvalues --    0.65998   0.66905   0.67323   0.68392   0.69836
 Alpha virt. eigenvalues --    0.70395   0.70638   0.72038   0.72287   0.74025
 Alpha virt. eigenvalues --    0.75117   0.76373   0.76789   0.77084   0.78818
 Alpha virt. eigenvalues --    0.79923   0.80724   0.82382   0.83864   0.84674
 Alpha virt. eigenvalues --    0.85590   0.85705   0.85962   0.86184   0.88098
 Alpha virt. eigenvalues --    0.88584   0.88993   0.89642   0.91986   0.93161
 Alpha virt. eigenvalues --    0.93457   0.94723   0.94922   0.95479   0.96086
 Alpha virt. eigenvalues --    0.96476   0.97706   0.99268   1.01115   1.03170
 Alpha virt. eigenvalues --    1.04076   1.04840   1.05218   1.06321   1.07168
 Alpha virt. eigenvalues --    1.07732   1.09532   1.10614   1.11926   1.12223
 Alpha virt. eigenvalues --    1.12842   1.13642   1.14810   1.15354   1.15727
 Alpha virt. eigenvalues --    1.16387   1.16817   1.17972   1.18097   1.19894
 Alpha virt. eigenvalues --    1.21795   1.22060   1.22631   1.24233   1.24565
 Alpha virt. eigenvalues --    1.25864   1.26340   1.27498   1.27982   1.28305
 Alpha virt. eigenvalues --    1.29795   1.30195   1.30426   1.31916   1.32875
 Alpha virt. eigenvalues --    1.34751   1.35871   1.37311   1.37470   1.37812
 Alpha virt. eigenvalues --    1.40983   1.42201   1.42802   1.44279   1.45431
 Alpha virt. eigenvalues --    1.46621   1.46957   1.47324   1.49719   1.50639
 Alpha virt. eigenvalues --    1.56269   1.56799   1.62437   1.63090   1.65528
 Alpha virt. eigenvalues --    1.68348   1.70272   1.72400   1.76079   1.80535
 Alpha virt. eigenvalues --    1.81290   1.82201   1.85790   1.87712   1.89725
 Alpha virt. eigenvalues --    1.91166   1.92036   1.92824   1.94547   1.95440
 Alpha virt. eigenvalues --    1.97000   2.00162   2.02944   2.03836   2.04421
 Alpha virt. eigenvalues --    2.04889   2.06357   2.08273   2.08489   2.10973
 Alpha virt. eigenvalues --    2.13047   2.13806   2.15821   2.15932   2.19092
 Alpha virt. eigenvalues --    2.22135   2.23903   2.24197   2.26706   2.28386
 Alpha virt. eigenvalues --    2.28630   2.29226   2.30151   2.32256   2.32378
 Alpha virt. eigenvalues --    2.33315   2.33650   2.34776   2.35714   2.36048
 Alpha virt. eigenvalues --    2.36679   2.37019   2.38210   2.38585   2.39237
 Alpha virt. eigenvalues --    2.39583   2.43478   2.44242   2.45247   2.46999
 Alpha virt. eigenvalues --    2.48401   2.50402   2.50855   2.52692   2.53410
 Alpha virt. eigenvalues --    2.53764   2.55239   2.57038   2.57311   2.57403
 Alpha virt. eigenvalues --    2.58025   2.58616   2.58807   2.59588   2.60105
 Alpha virt. eigenvalues --    2.61253   2.61865   2.64416   2.64974   2.65357
 Alpha virt. eigenvalues --    2.66457   2.66934   2.68512   2.69241   2.70772
 Alpha virt. eigenvalues --    2.72768   2.73922   2.74341   2.75535   2.75657
 Alpha virt. eigenvalues --    2.76202   2.76673   2.78013   2.79300   2.80049
 Alpha virt. eigenvalues --    2.80232   2.81197   2.81461   2.82383   2.83541
 Alpha virt. eigenvalues --    2.84517   2.84892   2.85435   2.85641   2.85965
 Alpha virt. eigenvalues --    2.87747   2.88305   2.88867   2.89926   2.91614
 Alpha virt. eigenvalues --    2.92052   2.92471   2.92660   2.93001   2.93902
 Alpha virt. eigenvalues --    2.94097   2.95333   2.95602   2.96748   2.96821
 Alpha virt. eigenvalues --    2.98049   2.98260   2.98839   3.00102   3.01462
 Alpha virt. eigenvalues --    3.01791   3.02179   3.03130   3.03283   3.04221
 Alpha virt. eigenvalues --    3.05684   3.05937   3.06222   3.07824   3.08070
 Alpha virt. eigenvalues --    3.10667   3.12683   3.13099   3.14806   3.15230
 Alpha virt. eigenvalues --    3.15351   3.15736   3.16083   3.16620   3.17865
 Alpha virt. eigenvalues --    3.20330   3.20633   3.21015   3.21303   3.22227
 Alpha virt. eigenvalues --    3.22605   3.23426   3.23795   3.24583   3.26767
 Alpha virt. eigenvalues --    3.28573   3.28684   3.29488   3.29841   3.31113
 Alpha virt. eigenvalues --    3.33153   3.33615   3.34286   3.34729   3.36665
 Alpha virt. eigenvalues --    3.39129   3.40191   3.41055   3.43687   3.45136
 Alpha virt. eigenvalues --    3.46461   3.46747   3.49071   3.50236   3.50367
 Alpha virt. eigenvalues --    3.50871   3.53418   3.53712   3.54585   3.55461
 Alpha virt. eigenvalues --    3.55931   3.56796   3.57173   3.57560   3.59502
 Alpha virt. eigenvalues --    3.59939   3.61138   3.61763   3.62239   3.63051
 Alpha virt. eigenvalues --    3.64314   3.65341   3.66721   3.67120   3.67632
 Alpha virt. eigenvalues --    3.68044   3.68133   3.68938   3.69504   3.70889
 Alpha virt. eigenvalues --    3.71916   3.75705   3.76112   3.76593   3.77734
 Alpha virt. eigenvalues --    3.78438   3.78993   3.80298   3.82712   3.83096
 Alpha virt. eigenvalues --    3.83458   3.84781   3.85285   3.86434   3.87627
 Alpha virt. eigenvalues --    3.89121   3.89291   3.89866   3.91846   3.94130
 Alpha virt. eigenvalues --    3.94840   3.95250   3.96001   3.96644   3.97823
 Alpha virt. eigenvalues --    3.97888   3.98368   4.01359   4.01753   4.02071
 Alpha virt. eigenvalues --    4.03714   4.04798   4.05665   4.06347   4.07335
 Alpha virt. eigenvalues --    4.07645   4.08286   4.08637   4.11536   4.11701
 Alpha virt. eigenvalues --    4.11914   4.12705   4.13127   4.13961   4.15150
 Alpha virt. eigenvalues --    4.15792   4.17154   4.18452   4.18952   4.21316
 Alpha virt. eigenvalues --    4.21719   4.23476   4.24542   4.27755   4.29736
 Alpha virt. eigenvalues --    4.30897   4.32976   4.33941   4.34811   4.38053
 Alpha virt. eigenvalues --    4.40692   4.43096   4.43225   4.47014   4.50662
 Alpha virt. eigenvalues --    4.50758   4.51716   4.52359   4.53561   4.55010
 Alpha virt. eigenvalues --    4.56574   4.57451   4.58725   4.61380   4.63283
 Alpha virt. eigenvalues --    4.65361   4.67213   4.68822   4.69420   4.70401
 Alpha virt. eigenvalues --    4.75920   4.76057   4.79220   4.80832   4.81320
 Alpha virt. eigenvalues --    4.82477   4.83193   4.84344   4.87279   4.88504
 Alpha virt. eigenvalues --    4.89527   4.91857   4.93745   4.97045   4.98702
 Alpha virt. eigenvalues --    5.00375   5.02613   5.05115   5.07149   5.10843
 Alpha virt. eigenvalues --    5.15861   5.16315   5.17235   5.19574   5.23452
 Alpha virt. eigenvalues --    5.24160   5.27851   5.31731   5.33873   5.43205
 Alpha virt. eigenvalues --    5.45709   5.48615   5.50882   5.57737   5.61598
 Alpha virt. eigenvalues --    5.62233   5.64904   5.69412   5.70139   5.77904
 Alpha virt. eigenvalues --    5.78609   5.83681   5.86944   5.99266   6.10646
 Alpha virt. eigenvalues --    6.13720   6.47544   6.62346   8.16987   9.50748
 Alpha virt. eigenvalues --   11.50883  12.18045  12.40712  12.68938  12.83233
 Alpha virt. eigenvalues --   12.94442  13.04033  13.37289  14.47522  14.58071
 Alpha virt. eigenvalues --   15.07835  15.62318
          Condensed to atoms (all electrons):
               1          2          3          4          5          6
     1  C    4.935760   0.499146  -0.064070  -0.020973   0.000049   0.000001
     2  C    0.499146   4.819612   0.470166  -0.061157  -0.000003  -0.000000
     3  C   -0.064070   0.470166   4.911901   0.515953   0.000012   0.000000
     4  C   -0.020973  -0.061157   0.515953   4.926919  -0.000258   0.000012
     5  C    0.000049  -0.000003   0.000012  -0.000258   4.905530   0.521427
     6  C    0.000001  -0.000000   0.000000   0.000012   0.521427   4.900294
     7  C    0.000006  -0.000000  -0.000000  -0.000003  -0.064379   0.468046
     8  C   -0.000052   0.000006   0.000001   0.000039  -0.019782  -0.060827
     9  C   -0.065318   0.004627  -0.001506   0.005400   0.005762  -0.001471
    10  C    0.006694  -0.001666   0.007781  -0.043375  -0.040794   0.007706
    11  C    0.483342  -0.037957  -0.042771  -0.072719  -0.001979   0.000165
    12  C   -0.056217  -0.024956  -0.042273   0.413625   0.007565  -0.000434
    13  C    0.008718  -0.000147   0.000188  -0.001927  -0.072700  -0.040293
    14  C   -0.001474  -0.000030  -0.000490   0.007557   0.412993  -0.041234
    15  H    0.432813  -0.039464   0.006154  -0.000961  -0.000000   0.000000
    16  H   -0.043602   0.438981  -0.045895   0.005924   0.000000  -0.000000
    17  H    0.005835  -0.043357   0.433071  -0.041597  -0.000000   0.000000
    18  H   -0.000541   0.004317  -0.028883   0.436536  -0.000005   0.000001
    19  H   -0.000161   0.000034   0.000187  -0.001333  -0.001159   0.000180
    20  H   -0.000001  -0.000000   0.000001  -0.000010   0.443570  -0.034054
    21  H    0.000000   0.000000   0.000000  -0.000000  -0.040830   0.436956
    22  H   -0.000000   0.000000  -0.000000   0.000000   0.005541  -0.041610
    23  H    0.000019   0.000001   0.000000  -0.000000  -0.000746   0.004942
    24  H   -0.008307  -0.000136   0.000070   0.000047   0.000027   0.000081
    25  H   -0.011448  -0.000007  -0.000038   0.000280   0.000286  -0.000027
               7          8          9         10         11         12
     1  C    0.000006  -0.000052  -0.065318   0.006694   0.483342  -0.056217
     2  C   -0.000000   0.000006   0.004627  -0.001666  -0.037957  -0.024956
     3  C   -0.000000   0.000001  -0.001506   0.007781  -0.042771  -0.042273
     4  C   -0.000003   0.000039   0.005400  -0.043375  -0.072719   0.413625
     5  C   -0.064379  -0.019782   0.005762  -0.040794  -0.001979   0.007565
     6  C    0.468046  -0.060827  -0.001471   0.007706   0.000165  -0.000434
     7  C    4.835168   0.497188   0.004609  -0.001747  -0.000156  -0.000026
     8  C    0.497188   4.939321  -0.065863   0.006432   0.008677  -0.001512
     9  C    0.004609  -0.065863   5.047050  -0.024238   0.329955  -0.040737
    10  C   -0.001747   0.006432  -0.024238   4.876803  -0.037594   0.465806
    11  C   -0.000156   0.008677   0.329955  -0.037594   5.105681   0.338644
    12  C   -0.000026  -0.001512  -0.040737   0.465806   0.338644   5.041468
    13  C   -0.038843   0.481176   0.322038  -0.040458  -0.002987  -0.048508
    14  C   -0.026507  -0.053903  -0.040043   0.471894  -0.049295  -0.046021
    15  H    0.000001   0.000013   0.001307  -0.000062  -0.058973   0.008837
    16  H    0.000000  -0.000000  -0.000218   0.000040   0.006911  -0.000892
    17  H    0.000000   0.000000   0.000058  -0.000304  -0.000523   0.006653
    18  H   -0.000000  -0.000001  -0.000104  -0.000749   0.005040  -0.061644
    19  H    0.000031  -0.000150  -0.000221   0.418487   0.005081  -0.037241
    20  H    0.005352  -0.000740  -0.000117  -0.001023  -0.000057   0.000771
    21  H   -0.044290   0.005709   0.000056  -0.000276  -0.000005   0.000014
    22  H    0.434529  -0.044209  -0.000233   0.000040   0.000009  -0.000001
    23  H   -0.035205   0.428307   0.002138  -0.000068   0.000287  -0.000012
    24  H   -0.000157  -0.008301   0.405992  -0.001076  -0.032634   0.006118
    25  H   -0.000027  -0.011285   0.420214  -0.003506  -0.043479   0.009360
              13         14         15         16         17         18
     1  C    0.008718  -0.001474   0.432813  -0.043602   0.005835  -0.000541
     2  C   -0.000147  -0.000030  -0.039464   0.438981  -0.043357   0.004317
     3  C    0.000188  -0.000490   0.006154  -0.045895   0.433071  -0.028883
     4  C   -0.001927   0.007557  -0.000961   0.005924  -0.041597   0.436536
     5  C   -0.072700   0.412993  -0.000000   0.000000  -0.000000  -0.000005
     6  C   -0.040293  -0.041234   0.000000  -0.000000   0.000000   0.000001
     7  C   -0.038843  -0.026507   0.000001   0.000000   0.000000  -0.000000
     8  C    0.481176  -0.053903   0.000013  -0.000000   0.000000  -0.000001
     9  C    0.322038  -0.040043   0.001307  -0.000218   0.000058  -0.000104
    10  C   -0.040458   0.471894  -0.000062   0.000040  -0.000304  -0.000749
    11  C   -0.002987  -0.049295  -0.058973   0.006911  -0.000523   0.005040
    12  C   -0.048508  -0.046021   0.008837  -0.000892   0.006653  -0.061644
    13  C    5.103729   0.339673   0.000298   0.000008  -0.000005  -0.000062
    14  C    0.339673   5.046249  -0.000006  -0.000001   0.000015   0.000858
    15  H    0.000298  -0.000006   0.518465  -0.006254  -0.000210   0.000034
    16  H    0.000008  -0.000001  -0.006254   0.502210  -0.006092  -0.000149
    17  H   -0.000005   0.000015  -0.000210  -0.006092   0.510950  -0.006179
    18  H   -0.000062   0.000858   0.000034  -0.000149  -0.006179   0.517946
    19  H    0.004791  -0.034078   0.000012  -0.000002  -0.000027   0.002744
    20  H    0.005392  -0.065583   0.000000   0.000000  -0.000000   0.000002
    21  H   -0.000574   0.006188  -0.000000   0.000000  -0.000000   0.000000
    22  H    0.007173  -0.000785  -0.000000  -0.000000   0.000000   0.000000
    23  H   -0.054352   0.008251   0.000010  -0.000000  -0.000000   0.000000
    24  H   -0.033637   0.006175   0.000524  -0.000010  -0.000000   0.000011
    25  H   -0.045497   0.009326   0.000345  -0.000005  -0.000000   0.000013
              19         20         21         22         23         24
     1  C   -0.000161  -0.000001   0.000000  -0.000000   0.000019  -0.008307
     2  C    0.000034  -0.000000   0.000000   0.000000   0.000001  -0.000136
     3  C    0.000187   0.000001   0.000000  -0.000000   0.000000   0.000070
     4  C   -0.001333  -0.000010  -0.000000   0.000000  -0.000000   0.000047
     5  C   -0.001159   0.443570  -0.040830   0.005541  -0.000746   0.000027
     6  C    0.000180  -0.034054   0.436956  -0.041610   0.004942   0.000081
     7  C    0.000031   0.005352  -0.044290   0.434529  -0.035205  -0.000157
     8  C   -0.000150  -0.000740   0.005709  -0.044209   0.428307  -0.008301
     9  C   -0.000221  -0.000117   0.000056  -0.000233   0.002138   0.405992
    10  C    0.418487  -0.001023  -0.000276   0.000040  -0.000068  -0.001076
    11  C    0.005081  -0.000057  -0.000005   0.000009   0.000287  -0.032634
    12  C   -0.037241   0.000771   0.000014  -0.000001  -0.000012   0.006118
    13  C    0.004791   0.005392  -0.000574   0.007173  -0.054352  -0.033637
    14  C   -0.034078  -0.065583   0.006188  -0.000785   0.008251   0.006175
    15  H    0.000012   0.000000  -0.000000  -0.000000   0.000010   0.000524
    16  H   -0.000002   0.000000   0.000000  -0.000000  -0.000000  -0.000010
    17  H   -0.000027  -0.000000  -0.000000   0.000000  -0.000000  -0.000000
    18  H    0.002744   0.000002   0.000000   0.000000   0.000000   0.000011
    19  H    0.480280   0.002595  -0.000026  -0.000001   0.000010   0.000032
    20  H    0.002595   0.517473  -0.006562  -0.000160   0.000033   0.000011
    21  H   -0.000026  -0.006562   0.505030  -0.005751  -0.000183  -0.000000
    22  H   -0.000001  -0.000160  -0.005751   0.503678  -0.005875  -0.000011
    23  H    0.000010   0.000033  -0.000183  -0.005875   0.514280   0.000502
    24  H    0.000032   0.000011  -0.000000  -0.000011   0.000502   0.494117
    25  H    0.000001   0.000015  -0.000001  -0.000007   0.000331  -0.032243
              25
     1  C   -0.011448
     2  C   -0.000007
     3  C   -0.000038
     4  C    0.000280
     5  C    0.000286
     6  C   -0.000027
     7  C   -0.000027
     8  C   -0.011285
     9  C    0.420214
    10  C   -0.003506
    11  C   -0.043479
    12  C    0.009360
    13  C   -0.045497
    14  C    0.009326
    15  H    0.000345
    16  H   -0.000005
    17  H   -0.000000
    18  H    0.000013
    19  H    0.000001
    20  H    0.000015
    21  H   -0.000001
    22  H   -0.000007
    23  H    0.000331
    24  H   -0.032243
    25  H    0.504048
 Mulliken charges:
               1
     1  C   -0.100221
     2  C   -0.028007
     3  C   -0.119557
     4  C   -0.067978
     5  C   -0.060127
     6  C   -0.119862
     7  C   -0.033589
     8  C   -0.100245
     9  C   -0.309134
    10  C   -0.064747
    11  C    0.097339
    12  C    0.061616
    13  C    0.106809
    14  C    0.050271
    15  H    0.137120
    16  H    0.149046
    17  H    0.141713
    18  H    0.130816
    19  H    0.159935
    20  H    0.133092
    21  H    0.144545
    22  H    0.147675
    23  H    0.137331
    24  H    0.202807
    25  H    0.203352
 Sum of Mulliken charges =   1.00000
 Mulliken charges with hydrogens summed into heavy atoms:
               1
     1  C    0.036899
     2  C    0.121039
     3  C    0.022155
     4  C    0.062838
     5  C    0.072965
     6  C    0.024683
     7  C    0.114086
     8  C    0.037086
     9  C    0.097025
    10  C    0.095188
    11  C    0.097339
    12  C    0.061616
    13  C    0.106809
    14  C    0.050271
 Electronic spatial extent (au):  <R**2>=           2855.8066
 Charge=              1.0000 electrons
 Dipole moment (field-independent basis, Debye):
    X=             -0.0233    Y=              0.1951    Z=             -0.0064  Tot=              0.1966
 Quadrupole moment (field-independent basis, Debye-Ang):
   XX=            -30.9722   YY=            -56.3987   ZZ=            -83.3690
   XY=              0.1737   XZ=              0.0099   YZ=              0.3450
 Traceless Quadrupole moment (field-independent basis, Debye-Ang):
   XX=             25.9411   YY=              0.5146   ZZ=            -26.4557
   XY=              0.1737   XZ=              0.0099   YZ=              0.3450
 Octapole moment (field-independent basis, Debye-Ang**2):
  XXX=             -0.6100  YYY=              5.2269  ZZZ=              0.0482  XYY=             -0.0193
  XXY=             -5.1206  XXZ=              0.0667  XZZ=              0.0128  YZZ=             -2.9615
  YYZ=              0.2776  XYZ=             -0.0195
 Hexadecapole moment (field-independent basis, Debye-Ang**3):
 XXXX=          -2121.9207 YYYY=           -609.9161 ZZZZ=            -97.7595 XXXY=             -1.9854
 XXXZ=             -0.0557 YYYX=              3.3157 YYYZ=              1.5894 ZZZX=             -0.0169
 ZZZY=              0.1887 XXYY=           -508.3878 XXZZ=           -584.3831 YYZZ=           -144.3943
 XXYZ=              7.1544 YYXZ=              0.1266 ZZXY=             -0.9116
 N-N= 7.810654985943D+02 E-N=-2.797631283916D+03  KE= 5.364293606869D+02
 Unable to Open any file for archive entry.
 1\1\GINC-GADI-CPU-CLX-0712\SP\RM062X TD-FC\CC-pVTZ\C14H11(1+)\TS1578\2
 5-Jul-2022\0\\#n M062X/cc-pvtz TD EmpiricalDispersion=GD3 SP\\SP_-2\\1
 ,1\C,0,2.4927,1.3531,-0.034\C,0,3.7015,0.6807,-0.006\C,0,3.6839,-0.699
 1,0.\C,0,2.4632,-1.4109,0.04\C,0,-2.4632,-1.3869,0.04\C,0,-3.6839,-0.7
 111,0.\C,0,-3.7015,0.6807,-0.006\C,0,-2.4927,1.3851,-0.034\C,0,0.,1.46
 21,-0.066\C,0,0.,-1.4205,0.054\C,0,1.2621,0.6777,-0.016\C,0,1.2375,-0.
 7281,0.026\C,0,-1.2621,0.6937,-0.016\C,0,-1.2375,-0.7161,0.026\H,0,2.4
 881,2.4243,-0.036\H,0,4.6368,1.2024,0.024\H,0,4.6093,-1.2757,-0.028\H,
 0,2.4675,-2.5174,0.042\H,0,0.,-2.5016,0.056\H,0,-2.4675,-2.4454,0.042\
 H,0,-4.6093,-1.2517,-0.028\H,0,-4.6368,1.2384,0.024\H,0,-2.4881,2.4803
 ,-0.036\H,0,0.004,2.1545,-0.9196\H,0,-0.004,2.1545,0.7996\\Version=ES6
 4L-G16RevC.01\State=1-A\HF=-539.812907\RMSD=6.501e-09\PG=C01 [X(C14H11
 )]\\@
 The archive entry for this job was punched.


 Not by the face shall a man be known, but by the mask.
                               -- Karen Blixen
 Job cpu time:       0 days  3 hours 28 minutes 53.1 seconds.
 Elapsed time:       0 days  0 hours 15 minutes 27.7 seconds.
 File lengths (MBytes):  RWF=    831 Int=      0 D2E=      0 Chk=     49 Scr=      1
 Normal termination of Gaussian 16 at Mon Jul 25 20:32:20 2022.
