 Entering Gaussian System, Link 0=g16
 Initial command:
 /apps/gaussian/g16c01/g16/l1.exe "/jobfs/52580424.gadi-pbs/Gau-2617358.inp" -scrdir="/jobfs/52580424.gadi-pbs/"
 Entering Link 1 = /apps/gaussian/g16c01/g16/l1.exe PID=   2617359.
  
 Copyright (c) 1988-2019, Gaussian, Inc.  All Rights Reserved.
  
 This is part of the Gaussian(R) 16 program.  It is based on
 the Gaussian(R) 09 system (copyright 2009, Gaussian, Inc.),
 the Gaussian(R) 03 system (copyright 2003, Gaussian, Inc.),
 the Gaussian(R) 98 system (copyright 1998, Gaussian, Inc.),
 the Gaussian(R) 94 system (copyright 1995, Gaussian, Inc.),
 the Gaussian 92(TM) system (copyright 1992, Gaussian, Inc.),
 the Gaussian 90(TM) system (copyright 1990, Gaussian, Inc.),
 the Gaussian 88(TM) system (copyright 1988, Gaussian, Inc.),
 the Gaussian 86(TM) system (copyright 1986, Carnegie Mellon
 University), and the Gaussian 82(TM) system (copyright 1983,
 Carnegie Mellon University). Gaussian is a federally registered
 trademark of Gaussian, Inc.
  
 This software contains proprietary and confidential information,
 including trade secrets, belonging to Gaussian, Inc.
  
 This software is provided under written license and may be
 used, copied, transmitted, or stored only in accord with that
 written license.
  
 The following legend is applicable only to US Government
 contracts under FAR:
  
                    RESTRICTED RIGHTS LEGEND
  
 Use, reproduction and disclosure by the US Government is
 subject to restrictions as set forth in subparagraphs (a)
 and (c) of the Commercial Computer Software - Restricted
 Rights clause in FAR 52.227-19.
  
 Gaussian, Inc.
 340 Quinnipiac St., Bldg. 40, Wallingford CT 06492
  
  
 ---------------------------------------------------------------
 Warning -- This program may not be used in any manner that
 competes with the business of Gaussian, Inc. or will provide
 assistance to any competitor of Gaussian, Inc.  The licensee
 of this program is prohibited from giving any competitor of
 Gaussian, Inc. access to this program.  By using this program,
 the user acknowledges that Gaussian, Inc. is engaged in the
 business of creating and licensing software in the field of
 computational chemistry and represents and warrants to the
 licensee that it is not a competitor of Gaussian, Inc. and that
 it will not use this program in any manner prohibited above.
 ---------------------------------------------------------------
  

 Cite this work as:
 Gaussian 16, Revision C.01,
 M. J. Frisch, G. W. Trucks, H. B. Schlegel, G. E. Scuseria, 
 M. A. Robb, J. R. Cheeseman, G. Scalmani, V. Barone, 
 G. A. Petersson, H. Nakatsuji, X. Li, M. Caricato, A. V. Marenich, 
 J. Bloino, B. G. Janesko, R. Gomperts, B. Mennucci, H. P. Hratchian, 
 J. V. Ortiz, A. F. Izmaylov, J. L. Sonnenberg, D. Williams-Young, 
 F. Ding, F. Lipparini, F. Egidi, J. Goings, B. Peng, A. Petrone, 
 T. Henderson, D. Ranasinghe, V. G. Zakrzewski, J. Gao, N. Rega, 
 G. Zheng, W. Liang, M. Hada, M. Ehara, K. Toyota, R. Fukuda, 
 J. Hasegawa, M. Ishida, T. Nakajima, Y. Honda, O. Kitao, H. Nakai, 
 T. Vreven, K. Throssell, J. A. Montgomery, Jr., J. E. Peralta, 
 F. Ogliaro, M. J. Bearpark, J. J. Heyd, E. N. Brothers, K. N. Kudin, 
 V. N. Staroverov, T. A. Keith, R. Kobayashi, J. Normand, 
 K. Raghavachari, A. P. Rendell, J. C. Burant, S. S. Iyengar, 
 J. Tomasi, M. Cossi, J. M. Millam, M. Klene, C. Adamo, R. Cammi, 
 J. W. Ochterski, R. L. Martin, K. Morokuma, O. Farkas, 
 J. B. Foresman, and D. J. Fox, Gaussian, Inc., Wallingford CT, 2019.
 
 ******************************************
 Gaussian 16:  ES64L-G16RevC.01  3-Jul-2019
                25-Jul-2022 
 ******************************************
 %NProcShared=16
 Will use up to   16 processors via shared memory.
 %mem = 64GB
 %Chk=check_sp_6
 ----------------------------------------------
 #n M062X/cc-pvtz TD EmpiricalDispersion=GD3 SP
 ----------------------------------------------
 1/38=1,172=1/1;
 2/12=2,17=6,18=5,40=1/2;
 3/5=16,6=1,11=9,25=1,30=1,74=-55,124=31/1,2,3,8;
 4//1;
 5/5=2,38=5/2;
 8/6=1,10=1/1;
 9/42=1,70=2/14;
 6/7=2,8=2,9=2,10=2/1;
 99/5=1,9=1/99;
 ----
 SP_1
 ----
 Symbolic Z-matrix:
 Charge =  1 Multiplicity = 1
 C                     2.4927    1.3771    0.017 
 C                     3.7015    0.6807    0.003 
 C                     3.6839   -0.7081    0. 
 C                     2.4632   -1.3929   -0.02 
 C                    -2.4632   -1.4049   -0.02 
 C                    -3.6839   -0.7021    0. 
 C                    -3.7015    0.6807    0.003 
 C                    -2.4927    1.3611    0.017 
 C                     0.        1.4621    0.033 
 C                     0.       -1.4205   -0.027 
 C                     1.2621    0.6897    0.008 
 C                     1.2375   -0.7191   -0.013 
 C                    -1.2621    0.6817    0.008 
 C                    -1.2375   -0.7251   -0.013 
 H                     2.4881    2.4663    0.018 
 H                     4.6368    1.2294   -0.012 
 H                     4.6093   -1.2577    0.014 
 H                     2.4675   -2.4634   -0.021 
 H                     0.       -2.5016   -0.028 
 H                    -2.4675   -2.4994   -0.021 
 H                    -4.6093   -1.2697    0.014 
 H                    -4.6368    1.2114   -0.012 
 H                    -2.4881    2.4383    0.018 
 H                    -0.002     2.1545   -0.8296 
 H                     0.002     2.1545    0.8896 
 
                          Input orientation:                          
 ---------------------------------------------------------------------
 Center     Atomic      Atomic             Coordinates (Angstroms)
 Number     Number       Type             X           Y           Z
 ---------------------------------------------------------------------
      1          6           0        2.492700    1.377100    0.017000
      2          6           0        3.701500    0.680700    0.003000
      3          6           0        3.683900   -0.708100    0.000000
      4          6           0        2.463200   -1.392900   -0.020000
      5          6           0       -2.463200   -1.404900   -0.020000
      6          6           0       -3.683900   -0.702100    0.000000
      7          6           0       -3.701500    0.680700    0.003000
      8          6           0       -2.492700    1.361100    0.017000
      9          6           0        0.000000    1.462100    0.033000
     10          6           0        0.000000   -1.420500   -0.027000
     11          6           0        1.262100    0.689700    0.008000
     12          6           0        1.237500   -0.719100   -0.013000
     13          6           0       -1.262100    0.681700    0.008000
     14          6           0       -1.237500   -0.725100   -0.013000
     15          1           0        2.488100    2.466300    0.018000
     16          1           0        4.636800    1.229400   -0.012000
     17          1           0        4.609300   -1.257700    0.014000
     18          1           0        2.467500   -2.463400   -0.021000
     19          1           0        0.000000   -2.501600   -0.028000
     20          1           0       -2.467500   -2.499400   -0.021000
     21          1           0       -4.609300   -1.269700    0.014000
     22          1           0       -4.636800    1.211400   -0.012000
     23          1           0       -2.488100    2.438300    0.018000
     24          1           0       -0.002000    2.154500   -0.829600
     25          1           0        0.002000    2.154500    0.889600
 ---------------------------------------------------------------------
                    Distance matrix (angstroms):
                    1          2          3          4          5
     1  C    0.000000
     2  C    1.395122   0.000000
     3  C    2.401521   1.388915   0.000000
     4  C    2.770404   2.415312   1.399807   0.000000
     5  C    5.683471   6.507978   6.186499   4.926415   0.000000
     6  C    6.517189   7.513739   7.367802   6.185826   1.408700
     7  C    6.233240   7.403000   7.514846   6.504143   2.425622
     8  C    4.985426   6.231473   6.514005   5.669817   2.766405
     9  C    2.494200   3.783198   4.275743   3.771099   3.780192
    10  C    3.747273   4.256412   3.752248   2.463365   2.463259
    11  C    1.409601   2.439422   2.796252   2.404298   4.273873
    12  C    2.443457   2.833900   2.446459   1.398712   3.763715
    13  C    3.818663   4.963603   5.137560   4.264107   2.407763
    14  C    4.281885   5.135197   4.921447   3.760477   1.401612
    15  H    1.089210   2.158919   3.392208   3.859467   6.285142
    16  H    2.149377   1.084474   2.159182   3.406033   7.572952
    17  H    3.379671   2.140471   1.076393   2.150623   7.074113
    18  H    3.840771   3.377676   2.135684   1.070509   5.043037
    19  H    4.610845   4.881506   4.097383   2.701228   2.696325
    20  H    6.295417   6.940474   6.406943   5.053330   1.094509
    21  H    7.579180   8.536602   8.312205   7.073655   2.150623
    22  H    7.131484   8.355185   8.539243   7.562569   3.401415
    23  H    5.092594   6.434324   6.927752   6.260584   3.843469
    24  H    2.746745   4.072005   4.740103   4.395078   4.402532
    25  H    2.751248   4.079761   4.747868   4.412360   4.424241
                    6          7          8          9         10
     6  C    0.000000
     7  C    1.382915   0.000000
     8  C    2.382444   1.387205   0.000000
     9  C    4.272701   3.783198   2.494797   0.000000
    10  C    3.753391   4.256412   3.735343   2.883224   0.000000
    11  C    5.138102   4.963611   3.814365   1.479906   2.459078
    12  C    4.921447   5.133558   4.271127   2.508218   1.422520
    13  C    2.789280   2.439405   1.405718   1.484098   2.452217
    14  C    2.446543   2.836869   2.434883   2.513437   1.419572
    15  H    6.937771   6.442029   5.101944   2.683148   4.615179
    16  H    8.541949   8.356348   7.130775   4.642853   5.340609
    17  H    8.311802   8.533869   7.569447   5.351945   4.612356
    18  H    6.398620   6.924052   6.263532   4.636920   2.678849
    19  H    4.100013   4.881506   4.597394   3.964169   1.081100
    20  H    2.170336   3.411212   3.860769   4.667436   2.693068
    21  H    1.085694   2.151344   3.376553   5.358054   4.611948
    22  H    2.137673   1.075478   2.149515   4.643790   5.331701
    23  H    3.360413   2.135819   1.077210   2.672795   4.591623
    24  H    4.733370   4.068367   2.747690   1.106120   3.663986
    25  H    4.747358   4.083388   2.759428   1.101447   3.690635
                   11         12         13         14         15
    11  C    0.000000
    12  C    1.409171   0.000000
    13  C    2.524213   2.865429   0.000000
    14  C    2.872299   2.475007   1.407172   0.000000
    15  H    2.158584   3.422241   4.153179   4.905720   0.000000
    16  H    3.417642   3.918149   5.924306   6.190918   2.479462
    17  H    3.872486   3.414653   6.183417   5.871070   4.285753
    18  H    3.375777   2.134373   4.878771   4.092527   4.929897
    19  H    3.431995   2.170009   3.424557   2.165083   5.556329
    20  H    4.907251   4.110542   3.401945   2.158959   7.015531
    21  H    6.189719   5.872730   3.874499   3.415604   8.020648
    22  H    5.921958   6.183384   3.416077   3.912196   7.234630
    23  H    4.137838   4.883670   2.142153   3.401773   4.976279
    24  H    2.108355   3.234312   2.111532   3.238115   2.648819
    25  H    2.123843   3.255568   2.131738   3.262383   2.652847
                   16         17         18         19         20
    16  H    0.000000
    17  H    2.487388   0.000000
    18  H    4.282840   2.458098   0.000000
    19  H    5.951515   4.774379   2.467806   0.000000
    20  H    8.023410   7.184994   4.935131   2.467511   0.000000
    21  H    9.577920   9.218608   7.176855   4.771267   2.469958
    22  H    9.273617   9.570136   7.998457   5.940247   4.298369
    23  H    7.226793   8.002095   6.970377   5.531308   4.937897
    24  H    4.800286   5.798177   5.298798   4.724599   5.328350
    25  H    4.811451   5.799741   5.313462   4.745657   5.346626
                   21         22         23         24         25
    21  H    0.000000
    22  H    2.481389   0.000000
    23  H    4.271858   2.474489   0.000000
    24  H    5.802070   4.799925   2.641905   0.000000
    25  H    5.809984   4.818795   2.653456   1.719205   0.000000
 Stoichiometry    C14H11(1+)
 Framework group  C1[X(C14H11)]
 Deg. of freedom    69
 Full point group                 C1      NOp   1
 Largest Abelian subgroup         C1      NOp   1
 Largest concise Abelian subgroup C1      NOp   1
                         Standard orientation:                         
 ---------------------------------------------------------------------
 Center     Atomic      Atomic             Coordinates (Angstroms)
 Number     Number       Type             X           Y           Z
 ---------------------------------------------------------------------
      1          6           0       -2.494647   -1.364968    0.000556
      2          6           0       -3.702454   -0.666728   -0.005088
      3          6           0       -3.682875    0.721982    0.008555
      4          6           0       -2.461200    1.405232   -0.003246
      5          6           0        2.465212    1.410212   -0.003140
      6          6           0        3.684909    0.705484    0.008426
      7          6           0        3.700539   -0.677276   -0.005145
      8          6           0        2.490770   -1.356072    0.000709
      9          6           0       -0.002071   -1.453705    0.015517
     10          6           0        0.002037    1.429404   -0.009934
     11          6           0       -1.263069   -0.679263   -0.000215
     12          6           0       -1.236462    0.729651   -0.004331
     13          6           0        1.261140   -0.674860   -0.000139
     14          6           0        1.238544    0.732124   -0.004278
     15          1           0       -2.491599   -2.454107   -0.011497
     16          1           0       -4.638534   -1.213876   -0.026656
     17          1           0       -4.607491    1.272692    0.029148
     18          1           0       -2.463975    2.475672    0.008583
     19          1           0        0.003577    2.510438    0.002022
     20          1           0        2.471071    2.504638    0.008976
     21          1           0        4.611117    1.271557    0.029220
     22          1           0        4.635082   -1.209090   -0.026511
     23          1           0        2.484636   -2.433199   -0.011200
     24          1           0       -0.001050   -2.135720   -0.855319
     25          1           0       -0.005066   -2.156317    0.863758
 ---------------------------------------------------------------------
 Rotational constants (GHZ):           2.1357444           0.4446136           0.3688091
 Standard basis: CC-pVTZ (5D, 7F)
 There are   655 symmetry adapted cartesian basis functions of A   symmetry.
 There are   574 symmetry adapted basis functions of A   symmetry.
   574 basis functions,   915 primitive gaussians,   655 cartesian basis functions
    47 alpha electrons       47 beta electrons
       nuclear repulsion energy       781.1610039043 Hartrees.
 NAtoms=   25 NActive=   25 NUniq=   25 SFac= 1.00D+00 NAtFMM=   60 NAOKFM=F Big=F
 Integral buffers will be    131072 words long.
 Regular integral format.
 Two-electron integral symmetry is turned on.
 Nuclear repulsion after empirical dispersion term =      781.1600243745 Hartrees.
 One-electron integrals computed using PRISM.
 NBasis=   574 RedAO= T EigKep=  1.75D-05  NBF=   574
 NBsUse=   574 1.00D-06 EigRej= -1.00D+00 NBFU=   574
 ExpMin= 1.03D-01 ExpMax= 8.24D+03 ExpMxC= 2.81D+02 IAcc=3 IRadAn=         5 AccDes= 0.00D+00
 Harris functional with IExCor= 1009 and IRadAn=       5 diagonalized for initial guess.
 HarFok:  IExCor= 1009 AccDes= 0.00D+00 IRadAn=         5 IDoV= 1 UseB2=F ITyADJ=14
 ICtDFT=  3500011 ScaDFX=  1.000000  1.000000  1.000000  1.000000
 FoFCou: FMM=F IPFlag=           0 FMFlag=      100000 FMFlg1=           0
         NFxFlg=           0 DoJE=T BraDBF=F KetDBF=T FulRan=T
         wScrn=  0.000000 ICntrl=       500 IOpCl=  0 I1Cent=   200000004 NGrid=           0
         NMat0=    1 NMatS0=      1 NMatT0=    0 NMatD0=    1 NMtDS0=    0 NMtDT0=    0
 Petite list used in FoFCou.
 Requested convergence on RMS density matrix=1.00D-08 within 128 cycles.
 Requested convergence on MAX density matrix=1.00D-06.
 Requested convergence on             energy=1.00D-06.
 No special actions if energy rises.
 Integral accuracy reduced to 1.0D-05 until final iterations.
 Initial convergence to 1.0D-05 achieved.  Increase integral accuracy.
 SCF Done:  E(RM062X) =  -539.815098798     A.U. after   14 cycles
            NFock= 14  Conv=0.61D-08     -V/T= 2.0063
 DoSCS=F DFT=T ScalE2(SS,OS)=  1.000000  1.000000
 ExpMin= 1.03D-01 ExpMax= 8.24D+03 ExpMxC= 2.81D+02 IAcc=3 IRadAn=         5 AccDes= 0.00D+00
 HarFok:  IExCor=  205 AccDes= 0.00D+00 IRadAn=         5 IDoV=-2 UseB2=F ITyADJ=14
 ICtDFT= 12500011 ScaDFX=  1.000000  1.000000  1.000000  1.000000
 Range of M.O.s used for correlation:    15   574
 NBasis=   574 NAE=    47 NBE=    47 NFC=    14 NFV=     0
 NROrb=    560 NOA=    33 NOB=    33 NVA=   527 NVB=   527

 **** Warning!!: The largest alpha MO coefficient is  0.53669332D+02

 Orbital symmetries:
       Occupied  (A) (A) (A) (A) (A) (A) (A) (A) (A) (A) (A) (A)
                 (A) (A) (A) (A) (A) (A) (A) (A) (A) (A) (A) (A)
                 (A) (A) (A) (A) (A) (A) (A) (A) (A) (A) (A) (A)
                 (A) (A) (A) (A) (A) (A) (A) (A) (A) (A) (A)
       Virtual   (A) (A) (A) (A) (A) (A) (A) (A) (A) (A) (A) (A)
                 (A) (A) (A) (A) (A) (A) (A) (A) (A) (A) (A) (A)
                 (A) (A) (A) (A) (A) (A) (A) (A) (A) (A) (A) (A)
                 (A) (A) (A) (A) (A) (A) (A) (A) (A) (A) (A) (A)
                 (A) (A) (A) (A) (A) (A) (A) (A) (A) (A) (A) (A)
                 (A) (A) (A) (A) (A) (A) (A) (A) (A) (A) (A) (A)
                 (A) (A) (A) (A) (A) (A) (A) (A) (A) (A) (A) (A)
                 (A) (A) (A) (A) (A) (A) (A) (A) (A) (A) (A) (A)
                 (A) (A) (A) (A) (A) (A) (A) (A) (A) (A) (A) (A)
                 (A) (A) (A) (A) (A) (A) (A) (A) (A) (A) (A) (A)
                 (A) (A) (A) (A) (A) (A) (A) (A) (A) (A) (A) (A)
                 (A) (A) (A) (A) (A) (A) (A) (A) (A) (A) (A) (A)
                 (A) (A) (A) (A) (A) (A) (A) (A) (A) (A) (A) (A)
                 (A) (A) (A) (A) (A) (A) (A) (A) (A) (A) (A) (A)
                 (A) (A) (A) (A) (A) (A) (A) (A) (A) (A) (A) (A)
                 (A) (A) (A) (A) (A) (A) (A) (A) (A) (A) (A) (A)
                 (A) (A) (A) (A) (A) (A) (A) (A) (A) (A) (A) (A)
                 (A) (A) (A) (A) (A) (A) (A) (A) (A) (A) (A) (A)
                 (A) (A) (A) (A) (A) (A) (A) (A) (A) (A) (A) (A)
                 (A) (A) (A) (A) (A) (A) (A) (A) (A) (A) (A) (A)
                 (A) (A) (A) (A) (A) (A) (A) (A) (A) (A) (A) (A)
                 (A) (A) (A) (A) (A) (A) (A) (A) (A) (A) (A) (A)
                 (A) (A) (A) (A) (A) (A) (A) (A) (A) (A) (A) (A)
                 (A) (A) (A) (A) (A) (A) (A) (A) (A) (A) (A) (A)
                 (A) (A) (A) (A) (A) (A) (A) (A) (A) (A) (A) (A)
                 (A) (A) (A) (A) (A) (A) (A) (A) (A) (A) (A) (A)
                 (A) (A) (A) (A) (A) (A) (A) (A) (A) (A) (A) (A)
                 (A) (A) (A) (A) (A) (A) (A) (A) (A) (A) (A) (A)
                 (A) (A) (A) (A) (A) (A) (A) (A) (A) (A) (A) (A)
                 (A) (A) (A) (A) (A) (A) (A) (A) (A) (A) (A) (A)
                 (A) (A) (A) (A) (A) (A) (A) (A) (A) (A) (A) (A)
                 (A) (A) (A) (A) (A) (A) (A) (A) (A) (A) (A) (A)
                 (A) (A) (A) (A) (A) (A) (A) (A) (A) (A) (A) (A)
                 (A) (A) (A) (A) (A) (A) (A) (A) (A) (A) (A) (A)
                 (A) (A) (A) (A) (A) (A) (A) (A) (A) (A) (A) (A)
                 (A) (A) (A) (A) (A) (A) (A) (A) (A) (A) (A) (A)
                 (A) (A) (A) (A) (A) (A) (A) (A) (A) (A) (A) (A)
                 (A) (A) (A) (A) (A) (A) (A) (A) (A) (A) (A) (A)
                 (A) (A) (A) (A) (A) (A) (A) (A) (A) (A) (A) (A)
                 (A) (A) (A) (A) (A) (A) (A) (A) (A) (A) (A) (A)
                 (A) (A) (A) (A) (A) (A) (A) (A) (A) (A) (A) (A)
                 (A) (A) (A) (A) (A) (A) (A) (A) (A) (A) (A) (A)
                 (A) (A) (A) (A) (A) (A) (A) (A) (A) (A) (A) (A)
                 (A) (A) (A) (A) (A) (A) (A) (A) (A) (A) (A)
    12 initial guesses have been made.
 Convergence on wavefunction:    0.001000000000000
 Iteration     1 Dimension    12 NMult     0 NNew     12
 CISAX will form    12 AO SS matrices at one time.
 New state      2 was old state      3
 New state      3 was old state      2
 Iteration     2 Dimension    18 NMult    12 NNew      6
 Iteration     3 Dimension    24 NMult    18 NNew      6
 Iteration     4 Dimension    30 NMult    24 NNew      6
 Iteration     5 Dimension    36 NMult    30 NNew      6
 Iteration     6 Dimension    40 NMult    36 NNew      4
 ***********************************************************************
 Excited states from <AA,BB:AA,BB> singles matrix:
 ***********************************************************************
 
 Ground to excited state transition densities written to RWF  633
 Ground to excited state transition electric dipole moments (Au):
       state          X           Y           Z        Dip. S.      Osc.
         1        -0.0082     -0.6321      0.0003      0.3996      0.0276
         2         0.2161      0.0078      0.0000      0.0468      0.0037
         3        -2.5287     -0.0123     -0.0001      6.3946      0.5458
 Ground to excited state transition velocity dipole moments (Au):
       state          X           Y           Z        Dip. S.      Osc.
         1         0.0009      0.0694     -0.0001      0.0048      0.0310
         2        -0.0250     -0.0010      0.0000      0.0006      0.0035
         3         0.3333      0.0016      0.0000      0.1111      0.5785
 Ground to excited state transition magnetic dipole moments (Au):
       state          X           Y           Z
         1        -0.0051      0.0003      0.0052
         2         0.0001      0.0019      0.9356
         3        -0.0000     -0.0043     -1.1134
 Ground to excited state transition velocity quadrupole moments (Au):
       state          XX          YY          ZZ          XY          XZ          YZ
         1         0.2726      0.0303     -0.0077      0.0082     -0.0000     -0.0008
         2        -0.0059      0.0009      0.0004      0.2791     -0.0007      0.0001
         3        -0.0135      0.0043      0.0000     -0.1126     -0.0014     -0.0001
 <0|del|b> * <b|rxdel|0> + <0|del|b> * <b|delr+rdel|0>
 Rotatory Strengths (R) in cgs (10**-40 erg-esu-cm/Gauss)
       state          XX          YY          ZZ    R(velocity)    E-M Angle
         1         0.0796     -0.0172      0.0667      0.0430       90.00
         2        -0.0029     -0.0103     -0.0019     -0.0050       90.00
         3        -0.0280     -0.0731      0.0293     -0.0239       90.00
 1/2[<0|r|b>*<b|rxdel|0> + (<0|rxdel|b>*<b|r|0>)*]
 Rotatory Strengths (R) in cgs (10**-40 erg-esu-cm/Gauss)
       state          XX          YY          ZZ     R(length)
         1        -0.0295      0.1549     -0.0011      0.0414
         2        -0.0116     -0.0105     -0.0173     -0.0131
         3        -0.0063     -0.0376     -0.0561     -0.0333
  1/2[<0|del|b>*<b|r|0> + (<0|r|b>*<b|del|0>)*] (Au)
       state          X           Y           Z        Dip. S.   Osc.(frdel)
         1        -0.0000     -0.0439     -0.0000      0.0439      0.0292
         2        -0.0054     -0.0000      0.0000      0.0054      0.0036
         3        -0.8429     -0.0000     -0.0000      0.8429      0.5619

 Excitation energies and oscillator strengths:
 
 Excited State   1:      Singlet-A      2.8213 eV  439.46 nm  f=0.0276  <S**2>=0.000
      47 -> 48         0.70415
 This state for optimization and/or second-order correction.
 Total Energy, E(TD-HF/TD-DFT) =  -539.711418803    
 Copying the excited state density for this state as the 1-particle RhoCI density.
 
 Excited State   2:      Singlet-A      3.2633 eV  379.93 nm  f=0.0037  <S**2>=0.000
      45 -> 48         0.61205
      46 -> 48        -0.34276
 
 Excited State   3:      Singlet-A      3.4842 eV  355.85 nm  f=0.5458  <S**2>=0.000
      45 -> 48         0.34474
      46 -> 48         0.60764
 SavETr:  write IOETrn=   770 NScale= 10 NData=  16 NLR=1 NState=    3 LETran=      64.

 **********************************************************************

            Population analysis using the SCF Density.

 **********************************************************************

 Orbital symmetries:
       Occupied  (A) (A) (A) (A) (A) (A) (A) (A) (A) (A) (A) (A)
                 (A) (A) (A) (A) (A) (A) (A) (A) (A) (A) (A) (A)
                 (A) (A) (A) (A) (A) (A) (A) (A) (A) (A) (A) (A)
                 (A) (A) (A) (A) (A) (A) (A) (A) (A) (A) (A)
       Virtual   (A) (A) (A) (A) (A) (A) (A) (A) (A) (A) (A) (A)
                 (A) (A) (A) (A) (A) (A) (A) (A) (A) (A) (A) (A)
                 (A) (A) (A) (A) (A) (A) (A) (A) (A) (A) (A) (A)
                 (A) (A) (A) (A) (A) (A) (A) (A) (A) (A) (A) (A)
                 (A) (A) (A) (A) (A) (A) (A) (A) (A) (A) (A) (A)
                 (A) (A) (A) (A) (A) (A) (A) (A) (A) (A) (A) (A)
                 (A) (A) (A) (A) (A) (A) (A) (A) (A) (A) (A) (A)
                 (A) (A) (A) (A) (A) (A) (A) (A) (A) (A) (A) (A)
                 (A) (A) (A) (A) (A) (A) (A) (A) (A) (A) (A) (A)
                 (A) (A) (A) (A) (A) (A) (A) (A) (A) (A) (A) (A)
                 (A) (A) (A) (A) (A) (A) (A) (A) (A) (A) (A) (A)
                 (A) (A) (A) (A) (A) (A) (A) (A) (A) (A) (A) (A)
                 (A) (A) (A) (A) (A) (A) (A) (A) (A) (A) (A) (A)
                 (A) (A) (A) (A) (A) (A) (A) (A) (A) (A) (A) (A)
                 (A) (A) (A) (A) (A) (A) (A) (A) (A) (A) (A) (A)
                 (A) (A) (A) (A) (A) (A) (A) (A) (A) (A) (A) (A)
                 (A) (A) (A) (A) (A) (A) (A) (A) (A) (A) (A) (A)
                 (A) (A) (A) (A) (A) (A) (A) (A) (A) (A) (A) (A)
                 (A) (A) (A) (A) (A) (A) (A) (A) (A) (A) (A) (A)
                 (A) (A) (A) (A) (A) (A) (A) (A) (A) (A) (A) (A)
                 (A) (A) (A) (A) (A) (A) (A) (A) (A) (A) (A) (A)
                 (A) (A) (A) (A) (A) (A) (A) (A) (A) (A) (A) (A)
                 (A) (A) (A) (A) (A) (A) (A) (A) (A) (A) (A) (A)
                 (A) (A) (A) (A) (A) (A) (A) (A) (A) (A) (A) (A)
                 (A) (A) (A) (A) (A) (A) (A) (A) (A) (A) (A) (A)
                 (A) (A) (A) (A) (A) (A) (A) (A) (A) (A) (A) (A)
                 (A) (A) (A) (A) (A) (A) (A) (A) (A) (A) (A) (A)
                 (A) (A) (A) (A) (A) (A) (A) (A) (A) (A) (A) (A)
                 (A) (A) (A) (A) (A) (A) (A) (A) (A) (A) (A) (A)
                 (A) (A) (A) (A) (A) (A) (A) (A) (A) (A) (A) (A)
                 (A) (A) (A) (A) (A) (A) (A) (A) (A) (A) (A) (A)
                 (A) (A) (A) (A) (A) (A) (A) (A) (A) (A) (A) (A)
                 (A) (A) (A) (A) (A) (A) (A) (A) (A) (A) (A) (A)
                 (A) (A) (A) (A) (A) (A) (A) (A) (A) (A) (A) (A)
                 (A) (A) (A) (A) (A) (A) (A) (A) (A) (A) (A) (A)
                 (A) (A) (A) (A) (A) (A) (A) (A) (A) (A) (A) (A)
                 (A) (A) (A) (A) (A) (A) (A) (A) (A) (A) (A) (A)
                 (A) (A) (A) (A) (A) (A) (A) (A) (A) (A) (A) (A)
                 (A) (A) (A) (A) (A) (A) (A) (A) (A) (A) (A) (A)
                 (A) (A) (A) (A) (A) (A) (A) (A) (A) (A) (A) (A)
                 (A) (A) (A) (A) (A) (A) (A) (A) (A) (A) (A) (A)
                 (A) (A) (A) (A) (A) (A) (A) (A) (A) (A) (A) (A)
                 (A) (A) (A) (A) (A) (A) (A) (A) (A) (A) (A) (A)
                 (A) (A) (A) (A) (A) (A) (A) (A) (A) (A) (A)
 The electronic state is 1-A.
 Alpha  occ. eigenvalues --  -10.77536 -10.73147 -10.73079 -10.72275 -10.72250
 Alpha  occ. eigenvalues --  -10.71413 -10.71058 -10.71034 -10.70844 -10.70800
 Alpha  occ. eigenvalues --  -10.69964 -10.69718 -10.69568 -10.69493  -1.16253
 Alpha  occ. eigenvalues --   -1.12286  -1.06777  -1.05574  -1.01156  -1.00032
 Alpha  occ. eigenvalues --   -0.95631  -0.90878  -0.86214  -0.85724  -0.83653
 Alpha  occ. eigenvalues --   -0.78236  -0.75780  -0.74198  -0.69362  -0.69081
 Alpha  occ. eigenvalues --   -0.68290  -0.68012  -0.67974  -0.64501  -0.64057
 Alpha  occ. eigenvalues --   -0.62819  -0.61661  -0.59951  -0.59665  -0.58877
 Alpha  occ. eigenvalues --   -0.56690  -0.54995  -0.54591  -0.52409  -0.46575
 Alpha  occ. eigenvalues --   -0.45992  -0.44436
 Alpha virt. eigenvalues --   -0.25961  -0.14403  -0.13962  -0.12490  -0.06863
 Alpha virt. eigenvalues --   -0.05507  -0.05365  -0.04073  -0.02679  -0.01622
 Alpha virt. eigenvalues --   -0.00214   0.00378   0.00576   0.01934   0.02304
 Alpha virt. eigenvalues --    0.04306   0.04507   0.07171   0.07808   0.09465
 Alpha virt. eigenvalues --    0.09930   0.10403   0.12692   0.14081   0.14158
 Alpha virt. eigenvalues --    0.15737   0.15901   0.16464   0.16724   0.16961
 Alpha virt. eigenvalues --    0.17724   0.17935   0.19417   0.19666   0.20437
 Alpha virt. eigenvalues --    0.20768   0.21973   0.22530   0.22918   0.24290
 Alpha virt. eigenvalues --    0.25248   0.26364   0.26755   0.26996   0.27410
 Alpha virt. eigenvalues --    0.28154   0.28162   0.28622   0.28846   0.29896
 Alpha virt. eigenvalues --    0.30109   0.30300   0.30729   0.31351   0.32302
 Alpha virt. eigenvalues --    0.33067   0.33134   0.34405   0.34531   0.34658
 Alpha virt. eigenvalues --    0.36032   0.37010   0.38290   0.38510   0.38696
 Alpha virt. eigenvalues --    0.39432   0.39490   0.39646   0.41052   0.43030
 Alpha virt. eigenvalues --    0.43431   0.44753   0.44951   0.45700   0.46668
 Alpha virt. eigenvalues --    0.47943   0.49018   0.49617   0.49729   0.50947
 Alpha virt. eigenvalues --    0.52908   0.53219   0.55690   0.56137   0.57984
 Alpha virt. eigenvalues --    0.58525   0.58600   0.58961   0.61160   0.61372
 Alpha virt. eigenvalues --    0.62028   0.62597   0.63222   0.63662   0.65849
 Alpha virt. eigenvalues --    0.66181   0.66810   0.67312   0.68289   0.69874
 Alpha virt. eigenvalues --    0.70295   0.70994   0.71737   0.72225   0.73991
 Alpha virt. eigenvalues --    0.75105   0.76395   0.76745   0.77177   0.79069
 Alpha virt. eigenvalues --    0.80371   0.80578   0.82178   0.83847   0.84666
 Alpha virt. eigenvalues --    0.85542   0.85843   0.86016   0.86161   0.88278
 Alpha virt. eigenvalues --    0.88641   0.88947   0.89659   0.92071   0.93150
 Alpha virt. eigenvalues --    0.93418   0.94832   0.94914   0.95380   0.96001
 Alpha virt. eigenvalues --    0.96737   0.97574   0.99254   1.01165   1.03303
 Alpha virt. eigenvalues --    1.04054   1.04786   1.05262   1.06351   1.07302
 Alpha virt. eigenvalues --    1.07773   1.09598   1.10530   1.12022   1.12286
 Alpha virt. eigenvalues --    1.12821   1.13809   1.14691   1.15385   1.15741
 Alpha virt. eigenvalues --    1.16562   1.16791   1.18006   1.18137   1.19922
 Alpha virt. eigenvalues --    1.22011   1.22109   1.22468   1.24369   1.24591
 Alpha virt. eigenvalues --    1.25750   1.26562   1.27578   1.28103   1.28584
 Alpha virt. eigenvalues --    1.29480   1.30043   1.30482   1.31915   1.32778
 Alpha virt. eigenvalues --    1.34848   1.35909   1.37261   1.37506   1.37742
 Alpha virt. eigenvalues --    1.41287   1.42307   1.42725   1.44062   1.45524
 Alpha virt. eigenvalues --    1.46710   1.47083   1.47307   1.49735   1.50620
 Alpha virt. eigenvalues --    1.56466   1.56807   1.62679   1.63259   1.65554
 Alpha virt. eigenvalues --    1.68596   1.70219   1.73079   1.76555   1.81244
 Alpha virt. eigenvalues --    1.81751   1.82252   1.86179   1.87167   1.89641
 Alpha virt. eigenvalues --    1.91177   1.92268   1.92835   1.94262   1.95005
 Alpha virt. eigenvalues --    1.96821   2.00105   2.03155   2.03719   2.04536
 Alpha virt. eigenvalues --    2.04792   2.06400   2.08387   2.08821   2.10539
 Alpha virt. eigenvalues --    2.13026   2.13581   2.15614   2.15887   2.19108
 Alpha virt. eigenvalues --    2.22610   2.23697   2.23926   2.26682   2.28459
 Alpha virt. eigenvalues --    2.28592   2.29277   2.30229   2.32170   2.32327
 Alpha virt. eigenvalues --    2.33318   2.33665   2.34820   2.35875   2.36105
 Alpha virt. eigenvalues --    2.36640   2.37074   2.38316   2.38736   2.39125
 Alpha virt. eigenvalues --    2.39469   2.43545   2.44443   2.45250   2.46856
 Alpha virt. eigenvalues --    2.48398   2.50368   2.50682   2.52867   2.53373
 Alpha virt. eigenvalues --    2.53799   2.55476   2.57235   2.57411   2.57489
 Alpha virt. eigenvalues --    2.58025   2.58562   2.59036   2.59565   2.59827
 Alpha virt. eigenvalues --    2.61401   2.61740   2.64336   2.64897   2.65386
 Alpha virt. eigenvalues --    2.66312   2.66848   2.68338   2.69220   2.70843
 Alpha virt. eigenvalues --    2.72608   2.74351   2.74428   2.75243   2.75575
 Alpha virt. eigenvalues --    2.76200   2.76469   2.78050   2.79396   2.80156
 Alpha virt. eigenvalues --    2.80224   2.81100   2.81275   2.82497   2.83647
 Alpha virt. eigenvalues --    2.84674   2.84907   2.85408   2.85618   2.85888
 Alpha virt. eigenvalues --    2.87893   2.88644   2.88985   2.89804   2.91527
 Alpha virt. eigenvalues --    2.92217   2.92518   2.92572   2.93009   2.93873
 Alpha virt. eigenvalues --    2.94011   2.95385   2.95745   2.96387   2.96877
 Alpha virt. eigenvalues --    2.98084   2.98280   2.98911   3.00150   3.01425
 Alpha virt. eigenvalues --    3.01814   3.02058   3.03277   3.03341   3.04148
 Alpha virt. eigenvalues --    3.05689   3.06036   3.06180   3.07703   3.07978
 Alpha virt. eigenvalues --    3.10699   3.12725   3.13165   3.15060   3.15332
 Alpha virt. eigenvalues --    3.15398   3.15661   3.16175   3.16877   3.17911
 Alpha virt. eigenvalues --    3.20413   3.20772   3.21014   3.21443   3.22241
 Alpha virt. eigenvalues --    3.22715   3.23497   3.23991   3.24394   3.26850
 Alpha virt. eigenvalues --    3.28860   3.28917   3.29414   3.29806   3.31300
 Alpha virt. eigenvalues --    3.33078   3.33748   3.34146   3.34675   3.36579
 Alpha virt. eigenvalues --    3.39252   3.40246   3.41114   3.43678   3.45272
 Alpha virt. eigenvalues --    3.46639   3.46899   3.49116   3.50486   3.50579
 Alpha virt. eigenvalues --    3.50774   3.53668   3.53689   3.54615   3.55792
 Alpha virt. eigenvalues --    3.56270   3.56885   3.57121   3.57474   3.59672
 Alpha virt. eigenvalues --    3.60341   3.61230   3.61677   3.62074   3.63223
 Alpha virt. eigenvalues --    3.64081   3.65399   3.66480   3.67536   3.67745
 Alpha virt. eigenvalues --    3.67986   3.68134   3.68745   3.69394   3.70851
 Alpha virt. eigenvalues --    3.71998   3.75757   3.76222   3.76706   3.78143
 Alpha virt. eigenvalues --    3.78529   3.78795   3.80534   3.82981   3.83250
 Alpha virt. eigenvalues --    3.83352   3.85073   3.85238   3.85955   3.87826
 Alpha virt. eigenvalues --    3.89294   3.89332   3.89904   3.92005   3.94342
 Alpha virt. eigenvalues --    3.95154   3.95339   3.95942   3.96790   3.97899
 Alpha virt. eigenvalues --    3.98018   3.98225   4.01328   4.01806   4.02152
 Alpha virt. eigenvalues --    4.03734   4.05397   4.05778   4.06588   4.07445
 Alpha virt. eigenvalues --    4.07650   4.08433   4.08536   4.11308   4.11489
 Alpha virt. eigenvalues --    4.12083   4.12722   4.13131   4.14178   4.15039
 Alpha virt. eigenvalues --    4.15665   4.17087   4.18539   4.18874   4.21440
 Alpha virt. eigenvalues --    4.21695   4.23734   4.24398   4.27871   4.29979
 Alpha virt. eigenvalues --    4.31060   4.32691   4.33781   4.35714   4.37707
 Alpha virt. eigenvalues --    4.40616   4.43056   4.43120   4.47154   4.50799
 Alpha virt. eigenvalues --    4.50833   4.52656   4.52760   4.53868   4.54672
 Alpha virt. eigenvalues --    4.56634   4.57704   4.58507   4.61273   4.63260
 Alpha virt. eigenvalues --    4.65985   4.66903   4.68903   4.69670   4.70341
 Alpha virt. eigenvalues --    4.76082   4.76416   4.79670   4.80513   4.81839
 Alpha virt. eigenvalues --    4.82909   4.83458   4.84123   4.86898   4.88712
 Alpha virt. eigenvalues --    4.89892   4.91608   4.93220   4.96759   4.98600
 Alpha virt. eigenvalues --    5.00362   5.02437   5.05377   5.07419   5.10791
 Alpha virt. eigenvalues --    5.16222   5.16360   5.16909   5.19529   5.23438
 Alpha virt. eigenvalues --    5.24173   5.27734   5.31895   5.33299   5.43372
 Alpha virt. eigenvalues --    5.46125   5.48576   5.50858   5.58036   5.61726
 Alpha virt. eigenvalues --    5.62596   5.64925   5.69291   5.70191   5.77940
 Alpha virt. eigenvalues --    5.78873   5.83553   5.87044   5.99619   6.11202
 Alpha virt. eigenvalues --    6.14314   6.48030   6.62990   8.16839   9.51355
 Alpha virt. eigenvalues --   11.52231  12.19835  12.43354  12.69369  12.83445
 Alpha virt. eigenvalues --   12.93328  13.06146  13.36642  14.48637  14.59003
 Alpha virt. eigenvalues --   15.09371  15.65129
          Condensed to atoms (all electrons):
               1          2          3          4          5          6
     1  C    4.937499   0.498921  -0.062186  -0.019911   0.000042   0.000001
     2  C    0.498921   4.828609   0.470340  -0.064803  -0.000003  -0.000000
     3  C   -0.062186   0.470340   4.900950   0.521358   0.000012   0.000000
     4  C   -0.019911  -0.064803   0.521358   4.908647  -0.000256   0.000012
     5  C    0.000042  -0.000003   0.000012  -0.000256   4.919751   0.518420
     6  C    0.000001  -0.000000   0.000000   0.000012   0.518420   4.906917
     7  C    0.000006  -0.000000  -0.000000  -0.000003  -0.063048   0.471305
     8  C   -0.000053   0.000006   0.000001   0.000048  -0.020560  -0.063808
     9  C   -0.065824   0.004514  -0.001430   0.005583   0.005408  -0.001448
    10  C    0.006409  -0.001620   0.007584  -0.040946  -0.042315   0.007633
    11  C    0.482628  -0.039742  -0.040036  -0.073503  -0.001941   0.000175
    12  C   -0.055068  -0.024932  -0.042511   0.414325   0.007511  -0.000457
    13  C    0.008682  -0.000139   0.000164  -0.001964  -0.073465  -0.041274
    14  C   -0.001474  -0.000046  -0.000428   0.007503   0.414469  -0.042949
    15  H    0.429400  -0.036155   0.005178  -0.000774  -0.000000   0.000000
    16  H   -0.044241   0.436106  -0.042808   0.005680   0.000000  -0.000000
    17  H    0.005753  -0.044140   0.436289  -0.041149  -0.000000   0.000000
    18  H   -0.000645   0.004988  -0.032394   0.441599  -0.000008   0.000001
    19  H   -0.000158   0.000036   0.000173  -0.001143  -0.001236   0.000177
    20  H   -0.000001  -0.000000   0.000001  -0.000006   0.438122  -0.029825
    21  H    0.000000   0.000000   0.000000  -0.000000  -0.041537   0.434356
    22  H   -0.000000   0.000000  -0.000000   0.000000   0.005870  -0.044951
    23  H    0.000015   0.000001   0.000000  -0.000000  -0.000883   0.005785
    24  H   -0.010612  -0.000056  -0.000001   0.000223   0.000227  -0.000009
    25  H   -0.009089  -0.000115   0.000052   0.000096   0.000100   0.000048
               7          8          9         10         11         12
     1  C    0.000006  -0.000053  -0.065824   0.006409   0.482628  -0.055068
     2  C   -0.000000   0.000006   0.004514  -0.001620  -0.039742  -0.024932
     3  C   -0.000000   0.000001  -0.001430   0.007584  -0.040036  -0.042511
     4  C   -0.000003   0.000048   0.005583  -0.040946  -0.073503   0.414325
     5  C   -0.063048  -0.020560   0.005408  -0.042315  -0.001941   0.007511
     6  C    0.471305  -0.063808  -0.001448   0.007633   0.000175  -0.000457
     7  C    4.820856   0.499873   0.004521  -0.001583  -0.000135  -0.000047
     8  C    0.499873   4.935704  -0.065526   0.006539   0.008700  -0.001452
     9  C    0.004521  -0.065526   5.048179  -0.023765   0.322783  -0.040259
    10  C   -0.001583   0.006539  -0.023765   4.874607  -0.039564   0.471754
    11  C   -0.000135   0.008700   0.322783  -0.039564   5.103002   0.340369
    12  C   -0.000047  -0.001452  -0.040259   0.471754   0.340369   5.042603
    13  C   -0.039311   0.483794   0.326817  -0.038095  -0.002044  -0.049389
    14  C   -0.024214  -0.056231  -0.040642   0.468720  -0.048991  -0.046390
    15  H    0.000001   0.000018   0.002003  -0.000070  -0.055378   0.008318
    16  H    0.000000  -0.000000  -0.000228   0.000040   0.007156  -0.000836
    17  H    0.000000   0.000000   0.000057  -0.000283  -0.000572   0.006335
    18  H   -0.000000  -0.000001  -0.000117  -0.000822   0.005196  -0.064457
    19  H    0.000037  -0.000164  -0.000199   0.417807   0.004847  -0.034539
    20  H    0.004475  -0.000546  -0.000111  -0.000694  -0.000060   0.000840
    21  H   -0.043688   0.005820   0.000058  -0.000297  -0.000005   0.000015
    22  H    0.438341  -0.043942  -0.000221   0.000040   0.000008  -0.000001
    23  H   -0.038293   0.431641   0.001583  -0.000067   0.000308  -0.000006
    24  H   -0.000036  -0.010701   0.417233  -0.002918  -0.042196   0.008586
    25  H   -0.000114  -0.009109   0.409976  -0.001675  -0.036603   0.006957
              13         14         15         16         17         18
     1  C    0.008682  -0.001474   0.429400  -0.044241   0.005753  -0.000645
     2  C   -0.000139  -0.000046  -0.036155   0.436106  -0.044140   0.004988
     3  C    0.000164  -0.000428   0.005178  -0.042808   0.436289  -0.032394
     4  C   -0.001964   0.007503  -0.000774   0.005680  -0.041149   0.441599
     5  C   -0.073465   0.414469  -0.000000   0.000000  -0.000000  -0.000008
     6  C   -0.041274  -0.042949   0.000000  -0.000000   0.000000   0.000001
     7  C   -0.039311  -0.024214   0.000001   0.000000   0.000000  -0.000000
     8  C    0.483794  -0.056231   0.000018  -0.000000   0.000000  -0.000001
     9  C    0.326817  -0.040642   0.002003  -0.000228   0.000057  -0.000117
    10  C   -0.038095   0.468720  -0.000070   0.000040  -0.000283  -0.000822
    11  C   -0.002044  -0.048991  -0.055378   0.007156  -0.000572   0.005196
    12  C   -0.049389  -0.046390   0.008318  -0.000836   0.006335  -0.064457
    13  C    5.103947   0.339797   0.000304   0.000008  -0.000005  -0.000057
    14  C    0.339797   5.040297  -0.000009  -0.000001   0.000014   0.000794
    15  H    0.000304  -0.000009   0.515405  -0.005990  -0.000189   0.000034
    16  H    0.000008  -0.000001  -0.005990   0.503469  -0.005862  -0.000157
    17  H   -0.000005   0.000014  -0.000189  -0.005862   0.506709  -0.006487
    18  H   -0.000057   0.000794   0.000034  -0.000157  -0.006487   0.517887
    19  H    0.004990  -0.036133   0.000010  -0.000001  -0.000027   0.002651
    20  H    0.005023  -0.062496   0.000000   0.000000   0.000000   0.000003
    21  H   -0.000549   0.006573  -0.000000   0.000000  -0.000000   0.000000
    22  H    0.007023  -0.000888  -0.000000  -0.000000   0.000000   0.000000
    23  H   -0.057681   0.008615   0.000010  -0.000000  -0.000000   0.000000
    24  H   -0.041571   0.008582   0.000366  -0.000008  -0.000000   0.000014
    25  H   -0.035688   0.006966   0.000458  -0.000010  -0.000000   0.000012
              19         20         21         22         23         24
     1  C   -0.000158  -0.000001   0.000000  -0.000000   0.000015  -0.010612
     2  C    0.000036  -0.000000   0.000000   0.000000   0.000001  -0.000056
     3  C    0.000173   0.000001   0.000000  -0.000000   0.000000  -0.000001
     4  C   -0.001143  -0.000006  -0.000000   0.000000  -0.000000   0.000223
     5  C   -0.001236   0.438122  -0.041537   0.005870  -0.000883   0.000227
     6  C    0.000177  -0.029825   0.434356  -0.044951   0.005785  -0.000009
     7  C    0.000037   0.004475  -0.043688   0.438341  -0.038293  -0.000036
     8  C   -0.000164  -0.000546   0.005820  -0.043942   0.431641  -0.010701
     9  C   -0.000199  -0.000111   0.000058  -0.000221   0.001583   0.417233
    10  C    0.417807  -0.000694  -0.000297   0.000040  -0.000067  -0.002918
    11  C    0.004847  -0.000060  -0.000005   0.000008   0.000308  -0.042196
    12  C   -0.034539   0.000840   0.000015  -0.000001  -0.000006   0.008586
    13  C    0.004990   0.005023  -0.000549   0.007023  -0.057681  -0.041571
    14  C   -0.036133  -0.062496   0.006573  -0.000888   0.008615   0.008582
    15  H    0.000010   0.000000  -0.000000  -0.000000   0.000010   0.000366
    16  H   -0.000001   0.000000   0.000000  -0.000000  -0.000000  -0.000008
    17  H   -0.000027   0.000000  -0.000000   0.000000  -0.000000  -0.000000
    18  H    0.002651   0.000003   0.000000   0.000000   0.000000   0.000014
    19  H    0.480149   0.002722  -0.000027  -0.000002   0.000011   0.000008
    20  H    0.002722   0.518094  -0.006295  -0.000151   0.000034   0.000013
    21  H   -0.000027  -0.006295   0.509659  -0.006033  -0.000203  -0.000000
    22  H   -0.000002  -0.000151  -0.006033   0.502752  -0.006180  -0.000007
    23  H    0.000011   0.000034  -0.000203  -0.006180   0.517529   0.000379
    24  H    0.000008   0.000013  -0.000000  -0.000007   0.000379   0.501723
    25  H    0.000024   0.000012  -0.000000  -0.000009   0.000467  -0.032319
              25
     1  C   -0.009089
     2  C   -0.000115
     3  C    0.000052
     4  C    0.000096
     5  C    0.000100
     6  C    0.000048
     7  C   -0.000114
     8  C   -0.009109
     9  C    0.409976
    10  C   -0.001675
    11  C   -0.036603
    12  C    0.006957
    13  C   -0.035688
    14  C    0.006966
    15  H    0.000458
    16  H   -0.000010
    17  H   -0.000000
    18  H    0.000012
    19  H    0.000024
    20  H    0.000012
    21  H   -0.000000
    22  H   -0.000009
    23  H    0.000467
    24  H   -0.032319
    25  H    0.496821
 Mulliken charges:
               1
     1  C   -0.100093
     2  C   -0.031768
     3  C   -0.120307
     4  C   -0.060616
     5  C   -0.064679
     6  C   -0.120109
     7  C   -0.028942
     8  C   -0.100051
     9  C   -0.308944
    10  C   -0.066419
    11  C    0.105596
    12  C    0.052731
    13  C    0.100683
    14  C    0.058560
    15  H    0.137059
    16  H    0.147682
    17  H    0.143559
    18  H    0.131967
    19  H    0.159985
    20  H    0.130847
    21  H    0.142154
    22  H    0.148351
    23  H    0.136934
    24  H    0.203080
    25  H    0.202742
 Sum of Mulliken charges =   1.00000
 Mulliken charges with hydrogens summed into heavy atoms:
               1
     1  C    0.036966
     2  C    0.115913
     3  C    0.023252
     4  C    0.071351
     5  C    0.066168
     6  C    0.022045
     7  C    0.119409
     8  C    0.036883
     9  C    0.096877
    10  C    0.093566
    11  C    0.105596
    12  C    0.052731
    13  C    0.100683
    14  C    0.058560
 Electronic spatial extent (au):  <R**2>=           2855.4858
 Charge=              1.0000 electrons
 Dipole moment (field-independent basis, Debye):
    X=             -0.0116    Y=              0.1963    Z=             -0.0032  Tot=              0.1967
 Quadrupole moment (field-independent basis, Debye-Ang):
   XX=            -30.9591   YY=            -56.4072   ZZ=            -83.3710
   XY=              0.0870   XZ=             -0.0023   YZ=              0.1726
 Traceless Quadrupole moment (field-independent basis, Debye-Ang):
   XX=             25.9533   YY=              0.5052   ZZ=            -26.4586
   XY=              0.0870   XZ=             -0.0023   YZ=              0.1726
 Octapole moment (field-independent basis, Debye-Ang**2):
  XXX=             -0.3050  YYY=              5.2320  ZZZ=              0.0240  XYY=             -0.0101
  XXY=             -5.1287  XXZ=              0.0334  XZZ=              0.0063  YZZ=             -2.9617
  YYZ=              0.1386  XYZ=              0.0083
 Hexadecapole moment (field-independent basis, Debye-Ang**3):
 XXXX=          -2121.1795 YYYY=           -609.7777 ZZZZ=            -97.6465 XXXY=             -0.9948
 XXXZ=              0.0051 YYYX=              1.6605 YYYZ=              0.7954 ZZZX=             -0.0133
 ZZZY=              0.0941 XXYY=           -508.1641 XXZZ=           -584.5302 YYZZ=           -144.3430
 XXYZ=              3.5799 YYXZ=              0.0043 ZZXY=             -0.4561
 N-N= 7.811600243745D+02 E-N=-2.797828842132D+03  KE= 5.364376087187D+02
 Unable to Open any file for archive entry.
 1\1\GINC-GADI-CPU-CLX-0712\SP\RM062X TD-FC\CC-pVTZ\C14H11(1+)\TS1578\2
 5-Jul-2022\0\\#n M062X/cc-pvtz TD EmpiricalDispersion=GD3 SP\\SP_1\\1,
 1\C,0,2.4927,1.3771,0.017\C,0,3.7015,0.6807,0.003\C,0,3.6839,-0.7081,0
 .\C,0,2.4632,-1.3929,-0.02\C,0,-2.4632,-1.4049,-0.02\C,0,-3.6839,-0.70
 21,0.\C,0,-3.7015,0.6807,0.003\C,0,-2.4927,1.3611,0.017\C,0,0.,1.4621,
 0.033\C,0,0.,-1.4205,-0.027\C,0,1.2621,0.6897,0.008\C,0,1.2375,-0.7191
 ,-0.013\C,0,-1.2621,0.6817,0.008\C,0,-1.2375,-0.7251,-0.013\H,0,2.4881
 ,2.4663,0.018\H,0,4.6368,1.2294,-0.012\H,0,4.6093,-1.2577,0.014\H,0,2.
 4675,-2.4634,-0.021\H,0,0.,-2.5016,-0.028\H,0,-2.4675,-2.4994,-0.021\H
 ,0,-4.6093,-1.2697,0.014\H,0,-4.6368,1.2114,-0.012\H,0,-2.4881,2.4383,
 0.018\H,0,-0.002,2.1545,-0.8296\H,0,0.002,2.1545,0.8896\\Version=ES64L
 -G16RevC.01\State=1-A\HF=-539.8150988\RMSD=6.051e-09\PG=C01 [X(C14H11)
 ]\\@
 The archive entry for this job was punched.


 AND THIS OUR LIFE, EXEMPT FROM PUBLIC HAUNT,
 FINDS TONGUES IN TREES, BOOKS IN THE RUNNING BROOKS,
 SERMONS IN STONES, AND GOOD IN EVERYTHING.
 I WOULD NOT CHANGE IT. -- W. SHAKESPEARE
 AS YOU LIKE IT, ACT II, SCENE 1.
 Job cpu time:       0 days  3 hours 17 minutes 38.0 seconds.
 Elapsed time:       0 days  0 hours 13 minutes  7.9 seconds.
 File lengths (MBytes):  RWF=    831 Int=      0 D2E=      0 Chk=     49 Scr=      1
 Normal termination of Gaussian 16 at Mon Jul 25 21:05:53 2022.
