 Entering Gaussian System, Link 0=g16
 Initial command:
 /apps/gaussian/g16c01/g16/l1.exe "/jobfs/52580424.gadi-pbs/Gau-2609227.inp" -scrdir="/jobfs/52580424.gadi-pbs/"
 Entering Link 1 = /apps/gaussian/g16c01/g16/l1.exe PID=   2609228.
  
 Copyright (c) 1988-2019, Gaussian, Inc.  All Rights Reserved.
  
 This is part of the Gaussian(R) 16 program.  It is based on
 the Gaussian(R) 09 system (copyright 2009, Gaussian, Inc.),
 the Gaussian(R) 03 system (copyright 2003, Gaussian, Inc.),
 the Gaussian(R) 98 system (copyright 1998, Gaussian, Inc.),
 the Gaussian(R) 94 system (copyright 1995, Gaussian, Inc.),
 the Gaussian 92(TM) system (copyright 1992, Gaussian, Inc.),
 the Gaussian 90(TM) system (copyright 1990, Gaussian, Inc.),
 the Gaussian 88(TM) system (copyright 1988, Gaussian, Inc.),
 the Gaussian 86(TM) system (copyright 1986, Carnegie Mellon
 University), and the Gaussian 82(TM) system (copyright 1983,
 Carnegie Mellon University). Gaussian is a federally registered
 trademark of Gaussian, Inc.
  
 This software contains proprietary and confidential information,
 including trade secrets, belonging to Gaussian, Inc.
  
 This software is provided under written license and may be
 used, copied, transmitted, or stored only in accord with that
 written license.
  
 The following legend is applicable only to US Government
 contracts under FAR:
  
                    RESTRICTED RIGHTS LEGEND
  
 Use, reproduction and disclosure by the US Government is
 subject to restrictions as set forth in subparagraphs (a)
 and (c) of the Commercial Computer Software - Restricted
 Rights clause in FAR 52.227-19.
  
 Gaussian, Inc.
 340 Quinnipiac St., Bldg. 40, Wallingford CT 06492
  
  
 ---------------------------------------------------------------
 Warning -- This program may not be used in any manner that
 competes with the business of Gaussian, Inc. or will provide
 assistance to any competitor of Gaussian, Inc.  The licensee
 of this program is prohibited from giving any competitor of
 Gaussian, Inc. access to this program.  By using this program,
 the user acknowledges that Gaussian, Inc. is engaged in the
 business of creating and licensing software in the field of
 computational chemistry and represents and warrants to the
 licensee that it is not a competitor of Gaussian, Inc. and that
 it will not use this program in any manner prohibited above.
 ---------------------------------------------------------------
  

 Cite this work as:
 Gaussian 16, Revision C.01,
 M. J. Frisch, G. W. Trucks, H. B. Schlegel, G. E. Scuseria, 
 M. A. Robb, J. R. Cheeseman, G. Scalmani, V. Barone, 
 G. A. Petersson, H. Nakatsuji, X. Li, M. Caricato, A. V. Marenich, 
 J. Bloino, B. G. Janesko, R. Gomperts, B. Mennucci, H. P. Hratchian, 
 J. V. Ortiz, A. F. Izmaylov, J. L. Sonnenberg, D. Williams-Young, 
 F. Ding, F. Lipparini, F. Egidi, J. Goings, B. Peng, A. Petrone, 
 T. Henderson, D. Ranasinghe, V. G. Zakrzewski, J. Gao, N. Rega, 
 G. Zheng, W. Liang, M. Hada, M. Ehara, K. Toyota, R. Fukuda, 
 J. Hasegawa, M. Ishida, T. Nakajima, Y. Honda, O. Kitao, H. Nakai, 
 T. Vreven, K. Throssell, J. A. Montgomery, Jr., J. E. Peralta, 
 F. Ogliaro, M. J. Bearpark, J. J. Heyd, E. N. Brothers, K. N. Kudin, 
 V. N. Staroverov, T. A. Keith, R. Kobayashi, J. Normand, 
 K. Raghavachari, A. P. Rendell, J. C. Burant, S. S. Iyengar, 
 J. Tomasi, M. Cossi, J. M. Millam, M. Klene, C. Adamo, R. Cammi, 
 J. W. Ochterski, R. L. Martin, K. Morokuma, O. Farkas, 
 J. B. Foresman, and D. J. Fox, Gaussian, Inc., Wallingford CT, 2019.
 
 ******************************************
 Gaussian 16:  ES64L-G16RevC.01  3-Jul-2019
                25-Jul-2022 
 ******************************************
 %NProcShared=16
 Will use up to   16 processors via shared memory.
 %mem = 64GB
 %Chk=check_sp_2
 ----------------------------------------------
 #n M062X/cc-pvtz TD EmpiricalDispersion=GD3 SP
 ----------------------------------------------
 1/38=1,172=1/1;
 2/12=2,17=6,18=5,40=1/2;
 3/5=16,6=1,11=9,25=1,30=1,74=-55,124=31/1,2,3,8;
 4//1;
 5/5=2,38=5/2;
 8/6=1,10=1/1;
 9/42=1,70=2/14;
 6/7=2,8=2,9=2,10=2/1;
 99/5=1,9=1/99;
 -----
 SP_-3
 -----
 Symbolic Z-matrix:
 Charge =  1 Multiplicity = 1
 C                     2.4927    1.3451   -0.051 
 C                     3.7015    0.6807   -0.009 
 C                     3.6839   -0.6961    0. 
 C                     2.4632   -1.4169    0.06 
 C                    -2.4632   -1.3809    0.06 
 C                    -3.6839   -0.7141    0. 
 C                    -3.7015    0.6807   -0.009 
 C                    -2.4927    1.3931   -0.051 
 C                     0.        1.4621   -0.099 
 C                     0.       -1.4205    0.081 
 C                     1.2621    0.6737   -0.024 
 C                     1.2375   -0.7311    0.039 
 C                    -1.2621    0.6977   -0.024 
 C                    -1.2375   -0.7131    0.039 
 H                     2.4881    2.4103   -0.054 
 H                     4.6368    1.1934    0.036 
 H                     4.6093   -1.2817   -0.042 
 H                     2.4675   -2.5354    0.063 
 H                     0.       -2.5016    0.084 
 H                    -2.4675   -2.4274    0.063 
 H                    -4.6093   -1.2457   -0.042 
 H                    -4.6368    1.2474    0.036 
 H                    -2.4881    2.4943   -0.054 
 H                     0.006     2.1545   -0.9496 
 H                    -0.006     2.1545    0.7696 
 
                          Input orientation:                          
 ---------------------------------------------------------------------
 Center     Atomic      Atomic             Coordinates (Angstroms)
 Number     Number       Type             X           Y           Z
 ---------------------------------------------------------------------
      1          6           0        2.492700    1.345100   -0.051000
      2          6           0        3.701500    0.680700   -0.009000
      3          6           0        3.683900   -0.696100    0.000000
      4          6           0        2.463200   -1.416900    0.060000
      5          6           0       -2.463200   -1.380900    0.060000
      6          6           0       -3.683900   -0.714100    0.000000
      7          6           0       -3.701500    0.680700   -0.009000
      8          6           0       -2.492700    1.393100   -0.051000
      9          6           0        0.000000    1.462100   -0.099000
     10          6           0        0.000000   -1.420500    0.081000
     11          6           0        1.262100    0.673700   -0.024000
     12          6           0        1.237500   -0.731100    0.039000
     13          6           0       -1.262100    0.697700   -0.024000
     14          6           0       -1.237500   -0.713100    0.039000
     15          1           0        2.488100    2.410300   -0.054000
     16          1           0        4.636800    1.193400    0.036000
     17          1           0        4.609300   -1.281700   -0.042000
     18          1           0        2.467500   -2.535400    0.063000
     19          1           0        0.000000   -2.501600    0.084000
     20          1           0       -2.467500   -2.427400    0.063000
     21          1           0       -4.609300   -1.245700   -0.042000
     22          1           0       -4.636800    1.247400    0.036000
     23          1           0       -2.488100    2.494300   -0.054000
     24          1           0        0.006000    2.154500   -0.949600
     25          1           0       -0.006000    2.154500    0.769600
 ---------------------------------------------------------------------
                    Distance matrix (angstroms):
                    1          2          3          4          5
     1  C    0.000000
     2  C    1.379996   0.000000
     3  C    2.363907   1.376942   0.000000
     4  C    2.764387   2.436816   1.418894   0.000000
     5  C    5.657238   6.500652   6.185417   4.926532   0.000000
     6  C    6.511013   7.515962   7.367822   6.187436   1.392239
     7  C    6.229872   7.403000   7.512642   6.512159   2.405897
     8  C    4.985631   6.235174   6.520563   5.698190   2.776377
     9  C    2.495906   3.784150   4.270685   3.792265   3.765008
    10  C    3.725523   4.257258   3.755321   2.463292   2.463608
    11  C    1.402100   2.439456   2.782453   2.412531   4.255149
    12  C    2.427804   2.840208   2.446961   1.404672   3.757374
    13  C    3.810299   4.963652   5.138693   4.284443   2.402140
    14  C    4.261300   5.132125   4.921584   3.767089   1.395972
    15  H    1.065214   2.113263   3.329050   3.828978   6.237112
    16  H    2.151220   1.067554   2.116489   3.396878   7.552324
    17  H    3.373449   2.162453   1.095927   2.152772   7.073931
    18  H    3.882256   3.445466   2.206042   1.118512   5.064058
    19  H    4.585726   4.882293   4.103414   2.691562   2.706270
    20  H    6.232843   6.908113   6.390703   5.033182   1.046513
    21  H    7.559810   8.531208   8.311497   7.075307   2.152772
    22  H    7.130700   8.357656   8.544737   7.583474   3.410729
    23  H    5.111657   6.449986   6.948032   6.310773   3.876956
    24  H    2.765192   4.088219   4.749169   4.451070   4.428916
    25  H    2.751729   4.064955   4.725840   4.399475   4.363533
                    6          7          8          9         10
     6  C    0.000000
     7  C    1.394940   0.000000
     8  C    2.421126   1.403736   0.000000
     9  C    4.279809   3.784150   2.494117   0.000000
    10  C    3.751890   4.257258   3.761293   2.888214   0.000000
    11  C    5.137069   4.963628   3.823191   1.489999   2.447365
    12  C    4.921584   5.137042   4.293567   2.522018   1.417195
    13  C    2.803368   2.439505   1.413749   1.477440   2.467933
    14  C    2.446711   2.831303   2.453509   2.506381   1.426038
    15  H    6.917975   6.426872   5.083608   2.663034   4.569890
    16  H    8.536621   8.354169   7.132827   4.646541   5.323008
    17  H    8.312707   8.539409   7.589008   5.364451   4.613029
    18  H    6.415670   6.957373   6.328483   4.700511   2.707745
    19  H    4.095526   4.882293   4.626064   3.967922   1.081104
    20  H    2.102141   3.344881   3.822284   4.609014   2.665094
    21  H    1.068049   2.129837   3.382801   5.346127   4.614253
    22  H    2.181008   1.094514   2.150805   4.643731   5.349732
    23  H    3.424425   2.182547   1.101214   2.694087   4.640531
    24  H    4.769273   4.099070   2.762375   1.096802   3.720591
    25  H    4.727378   4.054013   2.727048   1.110819   3.640718
                   11         12         13         14         15
    11  C    0.000000
    12  C    1.406427   0.000000
    13  C    2.524314   2.879833   0.000000
    14  C    2.859228   2.475065   1.412420   0.000000
    15  H    2.125972   3.382461   4.122851   4.862548   0.000000
    16  H    3.415009   3.906271   5.919995   6.175933   2.471003
    17  H    3.876553   3.417420   6.196103   5.874941   4.257992
    18  H    3.429122   2.183798   4.936641   4.128968   4.947127
    19  H    3.418639   2.160579   3.440942   2.175354   5.507853
    20  H    4.851217   4.074928   3.350643   2.110048   6.926399
    21  H    6.177197   5.869961   3.870514   3.414566   7.983706
    22  H    5.927036   6.198538   3.419703   3.924132   7.219739
    23  H    4.168871   4.928686   2.175258   3.443844   4.976909
    24  H    2.151114   3.289469   2.141747   3.278224   2.651104
    25  H    2.104910   3.225950   2.080830   3.205230   2.638993
                   16         17         18         19         20
    16  H    0.000000
    17  H    2.476481   0.000000
    18  H    4.313994   2.483968   0.000000
    19  H    5.929186   4.769662   2.467821   0.000000
    20  H    7.973832   7.169711   4.936182   2.468705   0.000000
    21  H    9.562722   9.218670   7.194126   4.778996   2.448417
    22  H    9.273757   9.586073   8.048688   5.962987   4.267405
    23  H    7.243248   8.039366   7.061837   5.582894   4.923134
    24  H    4.831090   5.815632   5.392541   4.769448   5.304467
    25  H    4.797653   5.810952   5.349079   4.706310   5.249007
                   21         22         23         24         25
    21  H    0.000000
    22  H    2.494471   0.000000
    23  H    4.299678   2.485915   0.000000
    24  H    5.803972   4.832166   2.671722   0.000000
    25  H    5.780175   4.775490   2.637158   1.719242   0.000000
 Stoichiometry    C14H11(1+)
 Framework group  C1[X(C14H11)]
 Deg. of freedom    69
 Full point group                 C1      NOp   1
 Largest Abelian subgroup         C1      NOp   1
 Largest concise Abelian subgroup C1      NOp   1
                         Standard orientation:                         
 ---------------------------------------------------------------------
 Center     Atomic      Atomic             Coordinates (Angstroms)
 Number     Number       Type             X           Y           Z
 ---------------------------------------------------------------------
      1          6           0        2.486964   -1.348016    0.002406
      2          6           0        3.698593   -0.687706   -0.015851
      3          6           0        3.686879    0.688590    0.024641
      4          6           0        2.469272    1.416290   -0.009248
      5          6           0       -2.457237    1.401361   -0.009872
      6          6           0       -3.680777    0.738056    0.026289
      7          6           0       -3.704339   -0.656078   -0.014846
      8          6           0       -2.498596   -1.374685    0.001358
      9          6           0       -0.006214   -1.456015    0.046509
     10          6           0        0.006111    1.431166   -0.029770
     11          6           0        1.259245   -0.670828   -0.000278
     12          6           0        1.240652    0.735421   -0.012743
     13          6           0       -1.265034   -0.684028   -0.000798
     14          6           0       -1.234403    0.728007   -0.013054
     15          1           0        2.477811   -2.412606   -0.032880
     16          1           0        4.631694   -1.202449   -0.079377
     17          1           0        4.614773    1.268343    0.087536
     18          1           0        2.478353    2.534146    0.027954
     19          1           0        0.010732    2.511665    0.006088
     20          1           0       -2.457063    2.447301    0.024743
     21          1           0       -4.603897    1.271752    0.087494
     22          1           0       -4.642052   -1.216793   -0.080057
     23          1           0       -2.498703   -2.475291   -0.035223
     24          1           0       -0.003189   -2.178559    0.871672
     25          1           0       -0.015159   -2.116717   -0.846415
 ---------------------------------------------------------------------
 Rotational constants (GHZ):           2.1319820           0.4445773           0.3687162
 Standard basis: CC-pVTZ (5D, 7F)
 There are   655 symmetry adapted cartesian basis functions of A   symmetry.
 There are   574 symmetry adapted basis functions of A   symmetry.
   574 basis functions,   915 primitive gaussians,   655 cartesian basis functions
    47 alpha electrons       47 beta electrons
       nuclear repulsion energy       780.9091036714 Hartrees.
 NAtoms=   25 NActive=   25 NUniq=   25 SFac= 1.00D+00 NAtFMM=   60 NAOKFM=F Big=F
 Integral buffers will be    131072 words long.
 Regular integral format.
 Two-electron integral symmetry is turned on.
 Nuclear repulsion after empirical dispersion term =      780.9081238534 Hartrees.
 One-electron integrals computed using PRISM.
 NBasis=   574 RedAO= T EigKep=  1.85D-05  NBF=   574
 NBsUse=   574 1.00D-06 EigRej= -1.00D+00 NBFU=   574
 ExpMin= 1.03D-01 ExpMax= 8.24D+03 ExpMxC= 2.81D+02 IAcc=3 IRadAn=         5 AccDes= 0.00D+00
 Harris functional with IExCor= 1009 and IRadAn=       5 diagonalized for initial guess.
 HarFok:  IExCor= 1009 AccDes= 0.00D+00 IRadAn=         5 IDoV= 1 UseB2=F ITyADJ=14
 ICtDFT=  3500011 ScaDFX=  1.000000  1.000000  1.000000  1.000000
 FoFCou: FMM=F IPFlag=           0 FMFlag=      100000 FMFlg1=           0
         NFxFlg=           0 DoJE=T BraDBF=F KetDBF=T FulRan=T
         wScrn=  0.000000 ICntrl=       500 IOpCl=  0 I1Cent=   200000004 NGrid=           0
         NMat0=    1 NMatS0=      1 NMatT0=    0 NMatD0=    1 NMtDS0=    0 NMtDT0=    0
 Petite list used in FoFCou.
 Requested convergence on RMS density matrix=1.00D-08 within 128 cycles.
 Requested convergence on MAX density matrix=1.00D-06.
 Requested convergence on             energy=1.00D-06.
 No special actions if energy rises.
 Integral accuracy reduced to 1.0D-05 until final iterations.
 Initial convergence to 1.0D-05 achieved.  Increase integral accuracy.
 SCF Done:  E(RM062X) =  -539.809247508     A.U. after   14 cycles
            NFock= 14  Conv=0.72D-08     -V/T= 2.0063
 DoSCS=F DFT=T ScalE2(SS,OS)=  1.000000  1.000000
 ExpMin= 1.03D-01 ExpMax= 8.24D+03 ExpMxC= 2.81D+02 IAcc=3 IRadAn=         5 AccDes= 0.00D+00
 HarFok:  IExCor=  205 AccDes= 0.00D+00 IRadAn=         5 IDoV=-2 UseB2=F ITyADJ=14
 ICtDFT= 12500011 ScaDFX=  1.000000  1.000000  1.000000  1.000000
 Range of M.O.s used for correlation:    15   574
 NBasis=   574 NAE=    47 NBE=    47 NFC=    14 NFV=     0
 NROrb=    560 NOA=    33 NOB=    33 NVA=   527 NVB=   527

 **** Warning!!: The largest alpha MO coefficient is  0.49402067D+02

 Orbital symmetries:
       Occupied  (A) (A) (A) (A) (A) (A) (A) (A) (A) (A) (A) (A)
                 (A) (A) (A) (A) (A) (A) (A) (A) (A) (A) (A) (A)
                 (A) (A) (A) (A) (A) (A) (A) (A) (A) (A) (A) (A)
                 (A) (A) (A) (A) (A) (A) (A) (A) (A) (A) (A)
       Virtual   (A) (A) (A) (A) (A) (A) (A) (A) (A) (A) (A) (A)
                 (A) (A) (A) (A) (A) (A) (A) (A) (A) (A) (A) (A)
                 (A) (A) (A) (A) (A) (A) (A) (A) (A) (A) (A) (A)
                 (A) (A) (A) (A) (A) (A) (A) (A) (A) (A) (A) (A)
                 (A) (A) (A) (A) (A) (A) (A) (A) (A) (A) (A) (A)
                 (A) (A) (A) (A) (A) (A) (A) (A) (A) (A) (A) (A)
                 (A) (A) (A) (A) (A) (A) (A) (A) (A) (A) (A) (A)
                 (A) (A) (A) (A) (A) (A) (A) (A) (A) (A) (A) (A)
                 (A) (A) (A) (A) (A) (A) (A) (A) (A) (A) (A) (A)
                 (A) (A) (A) (A) (A) (A) (A) (A) (A) (A) (A) (A)
                 (A) (A) (A) (A) (A) (A) (A) (A) (A) (A) (A) (A)
                 (A) (A) (A) (A) (A) (A) (A) (A) (A) (A) (A) (A)
                 (A) (A) (A) (A) (A) (A) (A) (A) (A) (A) (A) (A)
                 (A) (A) (A) (A) (A) (A) (A) (A) (A) (A) (A) (A)
                 (A) (A) (A) (A) (A) (A) (A) (A) (A) (A) (A) (A)
                 (A) (A) (A) (A) (A) (A) (A) (A) (A) (A) (A) (A)
                 (A) (A) (A) (A) (A) (A) (A) (A) (A) (A) (A) (A)
                 (A) (A) (A) (A) (A) (A) (A) (A) (A) (A) (A) (A)
                 (A) (A) (A) (A) (A) (A) (A) (A) (A) (A) (A) (A)
                 (A) (A) (A) (A) (A) (A) (A) (A) (A) (A) (A) (A)
                 (A) (A) (A) (A) (A) (A) (A) (A) (A) (A) (A) (A)
                 (A) (A) (A) (A) (A) (A) (A) (A) (A) (A) (A) (A)
                 (A) (A) (A) (A) (A) (A) (A) (A) (A) (A) (A) (A)
                 (A) (A) (A) (A) (A) (A) (A) (A) (A) (A) (A) (A)
                 (A) (A) (A) (A) (A) (A) (A) (A) (A) (A) (A) (A)
                 (A) (A) (A) (A) (A) (A) (A) (A) (A) (A) (A) (A)
                 (A) (A) (A) (A) (A) (A) (A) (A) (A) (A) (A) (A)
                 (A) (A) (A) (A) (A) (A) (A) (A) (A) (A) (A) (A)
                 (A) (A) (A) (A) (A) (A) (A) (A) (A) (A) (A) (A)
                 (A) (A) (A) (A) (A) (A) (A) (A) (A) (A) (A) (A)
                 (A) (A) (A) (A) (A) (A) (A) (A) (A) (A) (A) (A)
                 (A) (A) (A) (A) (A) (A) (A) (A) (A) (A) (A) (A)
                 (A) (A) (A) (A) (A) (A) (A) (A) (A) (A) (A) (A)
                 (A) (A) (A) (A) (A) (A) (A) (A) (A) (A) (A) (A)
                 (A) (A) (A) (A) (A) (A) (A) (A) (A) (A) (A) (A)
                 (A) (A) (A) (A) (A) (A) (A) (A) (A) (A) (A) (A)
                 (A) (A) (A) (A) (A) (A) (A) (A) (A) (A) (A) (A)
                 (A) (A) (A) (A) (A) (A) (A) (A) (A) (A) (A) (A)
                 (A) (A) (A) (A) (A) (A) (A) (A) (A) (A) (A) (A)
                 (A) (A) (A) (A) (A) (A) (A) (A) (A) (A) (A) (A)
                 (A) (A) (A) (A) (A) (A) (A) (A) (A) (A) (A) (A)
                 (A) (A) (A) (A) (A) (A) (A) (A) (A) (A) (A) (A)
                 (A) (A) (A) (A) (A) (A) (A) (A) (A) (A) (A) (A)
                 (A) (A) (A) (A) (A) (A) (A) (A) (A) (A) (A)
    12 initial guesses have been made.
 Convergence on wavefunction:    0.001000000000000
 Iteration     1 Dimension    12 NMult     0 NNew     12
 CISAX will form    12 AO SS matrices at one time.
 New state      2 was old state      3
 New state      3 was old state      2
 Iteration     2 Dimension    18 NMult    12 NNew      6
 Iteration     3 Dimension    24 NMult    18 NNew      6
 Iteration     4 Dimension    30 NMult    24 NNew      6
 Iteration     5 Dimension    36 NMult    30 NNew      6
 Iteration     6 Dimension    40 NMult    36 NNew      4
 ***********************************************************************
 Excited states from <AA,BB:AA,BB> singles matrix:
 ***********************************************************************
 
 Ground to excited state transition densities written to RWF  633
 Ground to excited state transition electric dipole moments (Au):
       state          X           Y           Z        Dip. S.      Osc.
         1        -0.0231     -0.6325      0.0010      0.4005      0.0276
         2        -0.2673     -0.0238      0.0003      0.0720      0.0057
         3        -2.5207     -0.0367      0.0001      6.3553      0.5410
 Ground to excited state transition velocity dipole moments (Au):
       state          X           Y           Z        Dip. S.      Osc.
         1         0.0026      0.0691     -0.0003      0.0048      0.0309
         2         0.0313      0.0030     -0.0001      0.0010      0.0055
         3         0.3314      0.0048      0.0000      0.1098      0.5735
 Ground to excited state transition magnetic dipole moments (Au):
       state          X           Y           Z
         1        -0.0150     -0.0011      0.0153
         2        -0.0016     -0.0059     -0.9514
         3        -0.0000     -0.0128     -1.0930
 Ground to excited state transition velocity quadrupole moments (Au):
       state          XX          YY          ZZ          XY          XZ          YZ
         1         0.2689      0.0304     -0.0073      0.0243     -0.0001     -0.0022
         2         0.0170     -0.0025     -0.0010     -0.2790      0.0020     -0.0003
         3        -0.0404      0.0128      0.0000     -0.1070     -0.0040     -0.0001
 <0|del|b> * <b|rxdel|0> + <0|del|b> * <b|delr+rdel|0>
 Rotatory Strengths (R) in cgs (10**-40 erg-esu-cm/Gauss)
       state          XX          YY          ZZ    R(velocity)    E-M Angle
         1        -0.2800     -0.1422     -0.3980     -0.2734       94.62
         2         0.1131     -0.0795     -0.1495     -0.0386       90.00
         3        -0.1974     -0.1380     -0.1980     -0.1778       90.00
 1/2[<0|r|b>*<b|rxdel|0> + (<0|rxdel|b>*<b|r|0>)*]
 Rotatory Strengths (R) in cgs (10**-40 erg-esu-cm/Gauss)
       state          XX          YY          ZZ     R(length)
         1        -0.2453     -0.4987     -0.0105     -0.2515
         2        -0.3002     -0.0986      0.2113     -0.0625
         3        -0.0445     -0.3327      0.0399     -0.1125
  1/2[<0|del|b>*<b|r|0> + (<0|r|b>*<b|del|0>)*] (Au)
       state          X           Y           Z        Dip. S.   Osc.(frdel)
         1        -0.0001     -0.0437     -0.0000      0.0438      0.0292
         2        -0.0084     -0.0001     -0.0000      0.0084      0.0056
         3        -0.8354     -0.0002      0.0000      0.8355      0.5570

 Excitation energies and oscillator strengths:
 
 Excited State   1:      Singlet-A      2.8121 eV  440.90 nm  f=0.0276  <S**2>=0.000
      47 -> 48         0.70412
 This state for optimization and/or second-order correction.
 Total Energy, E(TD-HF/TD-DFT) =  -539.705906466    
 Copying the excited state density for this state as the 1-particle RhoCI density.
 
 Excited State   2:      Singlet-A      3.2563 eV  380.75 nm  f=0.0057  <S**2>=0.000
      45 -> 48         0.60285
      46 -> 48         0.35846
 
 Excited State   3:      Singlet-A      3.4746 eV  356.83 nm  f=0.5410  <S**2>=0.000
      45 -> 48        -0.36045
      46 -> 48         0.59846
 SavETr:  write IOETrn=   770 NScale= 10 NData=  16 NLR=1 NState=    3 LETran=      64.

 **********************************************************************

            Population analysis using the SCF Density.

 **********************************************************************

 Orbital symmetries:
       Occupied  (A) (A) (A) (A) (A) (A) (A) (A) (A) (A) (A) (A)
                 (A) (A) (A) (A) (A) (A) (A) (A) (A) (A) (A) (A)
                 (A) (A) (A) (A) (A) (A) (A) (A) (A) (A) (A) (A)
                 (A) (A) (A) (A) (A) (A) (A) (A) (A) (A) (A)
       Virtual   (A) (A) (A) (A) (A) (A) (A) (A) (A) (A) (A) (A)
                 (A) (A) (A) (A) (A) (A) (A) (A) (A) (A) (A) (A)
                 (A) (A) (A) (A) (A) (A) (A) (A) (A) (A) (A) (A)
                 (A) (A) (A) (A) (A) (A) (A) (A) (A) (A) (A) (A)
                 (A) (A) (A) (A) (A) (A) (A) (A) (A) (A) (A) (A)
                 (A) (A) (A) (A) (A) (A) (A) (A) (A) (A) (A) (A)
                 (A) (A) (A) (A) (A) (A) (A) (A) (A) (A) (A) (A)
                 (A) (A) (A) (A) (A) (A) (A) (A) (A) (A) (A) (A)
                 (A) (A) (A) (A) (A) (A) (A) (A) (A) (A) (A) (A)
                 (A) (A) (A) (A) (A) (A) (A) (A) (A) (A) (A) (A)
                 (A) (A) (A) (A) (A) (A) (A) (A) (A) (A) (A) (A)
                 (A) (A) (A) (A) (A) (A) (A) (A) (A) (A) (A) (A)
                 (A) (A) (A) (A) (A) (A) (A) (A) (A) (A) (A) (A)
                 (A) (A) (A) (A) (A) (A) (A) (A) (A) (A) (A) (A)
                 (A) (A) (A) (A) (A) (A) (A) (A) (A) (A) (A) (A)
                 (A) (A) (A) (A) (A) (A) (A) (A) (A) (A) (A) (A)
                 (A) (A) (A) (A) (A) (A) (A) (A) (A) (A) (A) (A)
                 (A) (A) (A) (A) (A) (A) (A) (A) (A) (A) (A) (A)
                 (A) (A) (A) (A) (A) (A) (A) (A) (A) (A) (A) (A)
                 (A) (A) (A) (A) (A) (A) (A) (A) (A) (A) (A) (A)
                 (A) (A) (A) (A) (A) (A) (A) (A) (A) (A) (A) (A)
                 (A) (A) (A) (A) (A) (A) (A) (A) (A) (A) (A) (A)
                 (A) (A) (A) (A) (A) (A) (A) (A) (A) (A) (A) (A)
                 (A) (A) (A) (A) (A) (A) (A) (A) (A) (A) (A) (A)
                 (A) (A) (A) (A) (A) (A) (A) (A) (A) (A) (A) (A)
                 (A) (A) (A) (A) (A) (A) (A) (A) (A) (A) (A) (A)
                 (A) (A) (A) (A) (A) (A) (A) (A) (A) (A) (A) (A)
                 (A) (A) (A) (A) (A) (A) (A) (A) (A) (A) (A) (A)
                 (A) (A) (A) (A) (A) (A) (A) (A) (A) (A) (A) (A)
                 (A) (A) (A) (A) (A) (A) (A) (A) (A) (A) (A) (A)
                 (A) (A) (A) (A) (A) (A) (A) (A) (A) (A) (A) (A)
                 (A) (A) (A) (A) (A) (A) (A) (A) (A) (A) (A) (A)
                 (A) (A) (A) (A) (A) (A) (A) (A) (A) (A) (A) (A)
                 (A) (A) (A) (A) (A) (A) (A) (A) (A) (A) (A) (A)
                 (A) (A) (A) (A) (A) (A) (A) (A) (A) (A) (A) (A)
                 (A) (A) (A) (A) (A) (A) (A) (A) (A) (A) (A) (A)
                 (A) (A) (A) (A) (A) (A) (A) (A) (A) (A) (A) (A)
                 (A) (A) (A) (A) (A) (A) (A) (A) (A) (A) (A) (A)
                 (A) (A) (A) (A) (A) (A) (A) (A) (A) (A) (A) (A)
                 (A) (A) (A) (A) (A) (A) (A) (A) (A) (A) (A) (A)
                 (A) (A) (A) (A) (A) (A) (A) (A) (A) (A) (A) (A)
                 (A) (A) (A) (A) (A) (A) (A) (A) (A) (A) (A) (A)
                 (A) (A) (A) (A) (A) (A) (A) (A) (A) (A) (A) (A)
                 (A) (A) (A) (A) (A) (A) (A) (A) (A) (A) (A)
 The electronic state is 1-A.
 Alpha  occ. eigenvalues --  -10.77531 -10.73253 -10.73041 -10.72325 -10.72249
 Alpha  occ. eigenvalues --  -10.71775 -10.71282 -10.70880 -10.70714 -10.70580
 Alpha  occ. eigenvalues --  -10.70217 -10.69666 -10.69481 -10.69444  -1.16212
 Alpha  occ. eigenvalues --   -1.12267  -1.06769  -1.05563  -1.01128  -1.00009
 Alpha  occ. eigenvalues --   -0.95601  -0.90875  -0.86215  -0.85666  -0.83659
 Alpha  occ. eigenvalues --   -0.78213  -0.75750  -0.74191  -0.69445  -0.69114
 Alpha  occ. eigenvalues --   -0.68217  -0.67992  -0.67914  -0.64493  -0.64028
 Alpha  occ. eigenvalues --   -0.62822  -0.61663  -0.59984  -0.59661  -0.58735
 Alpha  occ. eigenvalues --   -0.56673  -0.55020  -0.54499  -0.52351  -0.46562
 Alpha  occ. eigenvalues --   -0.45941  -0.44402
 Alpha virt. eigenvalues --   -0.25962  -0.14418  -0.13996  -0.12513  -0.06960
 Alpha virt. eigenvalues --   -0.05479  -0.05379  -0.04073  -0.02703  -0.01612
 Alpha virt. eigenvalues --   -0.00277   0.00352   0.00571   0.01924   0.02296
 Alpha virt. eigenvalues --    0.04181   0.04520   0.07052   0.07742   0.09452
 Alpha virt. eigenvalues --    0.09916   0.10438   0.12666   0.13963   0.14189
 Alpha virt. eigenvalues --    0.15736   0.15870   0.16392   0.16741   0.16950
 Alpha virt. eigenvalues --    0.17645   0.17870   0.19199   0.19597   0.20695
 Alpha virt. eigenvalues --    0.20764   0.21902   0.22598   0.22870   0.24240
 Alpha virt. eigenvalues --    0.25211   0.26009   0.26648   0.26781   0.26908
 Alpha virt. eigenvalues --    0.27682   0.27799   0.28209   0.29308   0.30139
 Alpha virt. eigenvalues --    0.30169   0.30705   0.31162   0.31339   0.32348
 Alpha virt. eigenvalues --    0.33051   0.33139   0.34237   0.34519   0.34751
 Alpha virt. eigenvalues --    0.36032   0.37006   0.38028   0.38395   0.38615
 Alpha virt. eigenvalues --    0.39329   0.39622   0.39758   0.41092   0.42919
 Alpha virt. eigenvalues --    0.43723   0.44605   0.44892   0.45602   0.46579
 Alpha virt. eigenvalues --    0.47967   0.48731   0.49780   0.50025   0.50774
 Alpha virt. eigenvalues --    0.52842   0.53143   0.55126   0.56411   0.57481
 Alpha virt. eigenvalues --    0.58557   0.58648   0.59093   0.60686   0.61004
 Alpha virt. eigenvalues --    0.62070   0.62969   0.63370   0.63789   0.65183
 Alpha virt. eigenvalues --    0.65725   0.66942   0.67317   0.68552   0.69784
 Alpha virt. eigenvalues --    0.70286   0.70541   0.72227   0.72466   0.74079
 Alpha virt. eigenvalues --    0.75134   0.76322   0.76855   0.76955   0.78475
 Alpha virt. eigenvalues --    0.79385   0.80894   0.82520   0.83893   0.84711
 Alpha virt. eigenvalues --    0.85423   0.85630   0.85915   0.86278   0.87861
 Alpha virt. eigenvalues --    0.88482   0.89038   0.89620   0.91869   0.93151
 Alpha virt. eigenvalues --    0.93507   0.94599   0.94936   0.95577   0.96114
 Alpha virt. eigenvalues --    0.96293   0.97816   0.99282   1.01033   1.02964
 Alpha virt. eigenvalues --    1.04095   1.04907   1.05157   1.06258   1.06959
 Alpha virt. eigenvalues --    1.07676   1.09447   1.10676   1.11822   1.12112
 Alpha virt. eigenvalues --    1.12862   1.13456   1.14898   1.15231   1.15750
 Alpha virt. eigenvalues --    1.16208   1.16786   1.17889   1.18073   1.19850
 Alpha virt. eigenvalues --    1.21563   1.21981   1.22776   1.24051   1.24522
 Alpha virt. eigenvalues --    1.25815   1.26221   1.27371   1.27711   1.28201
 Alpha virt. eigenvalues --    1.30050   1.30351   1.30394   1.31921   1.33011
 Alpha virt. eigenvalues --    1.34590   1.35790   1.37358   1.37443   1.37922
 Alpha virt. eigenvalues --    1.40605   1.42032   1.42925   1.44418   1.45279
 Alpha virt. eigenvalues --    1.46589   1.46769   1.47336   1.49705   1.50663
 Alpha virt. eigenvalues --    1.55989   1.56747   1.62033   1.62856   1.65469
 Alpha virt. eigenvalues --    1.67951   1.70329   1.71448   1.75311   1.79648
 Alpha virt. eigenvalues --    1.80586   1.82005   1.85429   1.88198   1.89689
 Alpha virt. eigenvalues --    1.91299   1.91682   1.92847   1.94889   1.96014
 Alpha virt. eigenvalues --    1.97378   2.00238   2.02665   2.03953   2.04241
 Alpha virt. eigenvalues --    2.04970   2.06337   2.07814   2.08523   2.11415
 Alpha virt. eigenvalues --    2.13081   2.14147   2.15962   2.16172   2.19055
 Alpha virt. eigenvalues --    2.21694   2.23874   2.24670   2.26753   2.28288
 Alpha virt. eigenvalues --    2.28632   2.29086   2.30188   2.32207   2.32582
 Alpha virt. eigenvalues --    2.33284   2.33626   2.34689   2.35461   2.36030
 Alpha virt. eigenvalues --    2.36673   2.36942   2.38120   2.38382   2.39317
 Alpha virt. eigenvalues --    2.39742   2.43343   2.43988   2.45258   2.47175
 Alpha virt. eigenvalues --    2.48421   2.50450   2.51100   2.52477   2.53411
 Alpha virt. eigenvalues --    2.53701   2.54920   2.56713   2.57138   2.57244
 Alpha virt. eigenvalues --    2.58015   2.58520   2.58749   2.59620   2.60445
 Alpha virt. eigenvalues --    2.61085   2.61987   2.64521   2.65108   2.65352
 Alpha virt. eigenvalues --    2.66616   2.67096   2.68704   2.69262   2.70752
 Alpha virt. eigenvalues --    2.72914   2.73438   2.74252   2.75705   2.75907
 Alpha virt. eigenvalues --    2.76280   2.76898   2.78013   2.79165   2.79895
 Alpha virt. eigenvalues --    2.80237   2.81343   2.81681   2.82209   2.83369
 Alpha virt. eigenvalues --    2.84335   2.84840   2.85436   2.85672   2.86070
 Alpha virt. eigenvalues --    2.87559   2.87920   2.88743   2.89987   2.91583
 Alpha virt. eigenvalues --    2.91850   2.92404   2.92733   2.92999   2.94011
 Alpha virt. eigenvalues --    2.94210   2.95273   2.95556   2.96628   2.97185
 Alpha virt. eigenvalues --    2.97932   2.98291   2.98732   3.00056   3.01514
 Alpha virt. eigenvalues --    3.01756   3.02343   3.02945   3.03219   3.04296
 Alpha virt. eigenvalues --    3.05586   3.05934   3.06249   3.07969   3.08224
 Alpha virt. eigenvalues --    3.10614   3.12601   3.12956   3.14576   3.15018
 Alpha virt. eigenvalues --    3.15250   3.15693   3.15912   3.16355   3.17742
 Alpha virt. eigenvalues --    3.20149   3.20458   3.20922   3.21182   3.22193
 Alpha virt. eigenvalues --    3.22445   3.23405   3.23511   3.24746   3.26649
 Alpha virt. eigenvalues --    3.28179   3.28387   3.29523   3.29851   3.30844
 Alpha virt. eigenvalues --    3.33094   3.33654   3.34347   3.34881   3.36744
 Alpha virt. eigenvalues --    3.38953   3.40095   3.40964   3.43692   3.44925
 Alpha virt. eigenvalues --    3.46180   3.46496   3.48928   3.49821   3.50120
 Alpha virt. eigenvalues --    3.50943   3.52956   3.53740   3.54554   3.55160
 Alpha virt. eigenvalues --    3.55466   3.56568   3.57054   3.57721   3.59215
 Alpha virt. eigenvalues --    3.59552   3.60953   3.61889   3.62278   3.62878
 Alpha virt. eigenvalues --    3.64606   3.65241   3.66593   3.67080   3.67388
 Alpha virt. eigenvalues --    3.68064   3.68190   3.69128   3.69694   3.70963
 Alpha virt. eigenvalues --    3.71809   3.75544   3.75945   3.76415   3.77319
 Alpha virt. eigenvalues --    3.78288   3.79185   3.79957   3.82243   3.82860
 Alpha virt. eigenvalues --    3.83592   3.84539   3.85311   3.86916   3.87376
 Alpha virt. eigenvalues --    3.88829   3.89238   3.89814   3.91597   3.93797
 Alpha virt. eigenvalues --    3.94377   3.95186   3.95894   3.96345   3.97697
 Alpha virt. eigenvalues --    3.97769   3.98570   4.01308   4.01732   4.01949
 Alpha virt. eigenvalues --    4.03593   4.04122   4.05485   4.05933   4.07069
 Alpha virt. eigenvalues --    4.07600   4.08126   4.08751   4.11610   4.11796
 Alpha virt. eigenvalues --    4.12078   4.12674   4.13072   4.13748   4.15306
 Alpha virt. eigenvalues --    4.15951   4.17238   4.18327   4.19029   4.21174
 Alpha virt. eigenvalues --    4.21687   4.23216   4.24701   4.27517   4.29373
 Alpha virt. eigenvalues --    4.30745   4.33200   4.33838   4.34154   4.38180
 Alpha virt. eigenvalues --    4.40864   4.43104   4.43411   4.46751   4.50062
 Alpha virt. eigenvalues --    4.50602   4.51165   4.51792   4.53069   4.54783
 Alpha virt. eigenvalues --    4.56770   4.57381   4.58768   4.61355   4.63113
 Alpha virt. eigenvalues --    4.64785   4.67393   4.68741   4.69092   4.70467
 Alpha virt. eigenvalues --    4.75360   4.75835   4.78712   4.80513   4.81150
 Alpha virt. eigenvalues --    4.82237   4.82664   4.84522   4.87588   4.87916
 Alpha virt. eigenvalues --    4.89393   4.92088   4.94396   4.97741   4.98804
 Alpha virt. eigenvalues --    5.00384   5.02698   5.04734   5.06880   5.10935
 Alpha virt. eigenvalues --    5.15415   5.16316   5.17615   5.19533   5.23537
 Alpha virt. eigenvalues --    5.24195   5.28045   5.31458   5.34735   5.42930
 Alpha virt. eigenvalues --    5.45137   5.48608   5.50884   5.57285   5.61251
 Alpha virt. eigenvalues --    5.61791   5.64916   5.69152   5.70437   5.77605
 Alpha virt. eigenvalues --    5.78424   5.83838   5.86811   5.98697   6.09760
 Alpha virt. eigenvalues --    6.12781   6.46750   6.61295   8.17216   9.49757
 Alpha virt. eigenvalues --   11.48722  12.15142  12.36631  12.68121  12.82736
 Alpha virt. eigenvalues --   12.95934  13.00943  13.38132  14.45431  14.56773
 Alpha virt. eigenvalues --   15.05455  15.57846
          Condensed to atoms (all electrons):
               1          2          3          4          5          6
     1  C    4.936299   0.497702  -0.064038  -0.021374   0.000050   0.000001
     2  C    0.497702   4.819992   0.468192  -0.058850  -0.000003  -0.000000
     3  C   -0.064038   0.468192   4.917883   0.513157   0.000012   0.000000
     4  C   -0.021374  -0.058850   0.513157   4.934645  -0.000262   0.000012
     5  C    0.000050  -0.000003   0.000012  -0.000262   4.904105   0.520534
     6  C    0.000001  -0.000000   0.000000   0.000012   0.520534   4.901200
     7  C    0.000006  -0.000000  -0.000000  -0.000003  -0.063131   0.464694
     8  C   -0.000050   0.000005   0.000001   0.000036  -0.019727  -0.059226
     9  C   -0.065076   0.004798  -0.001592   0.005432   0.005985  -0.001535
    10  C    0.006899  -0.001804   0.007987  -0.044572  -0.040985   0.007909
    11  C    0.482322  -0.035968  -0.044750  -0.071640  -0.001995   0.000172
    12  C   -0.055890  -0.026249  -0.041210   0.412449   0.007661  -0.000451
    13  C    0.008740  -0.000167   0.000204  -0.001910  -0.071437  -0.040987
    14  C   -0.001517  -0.000002  -0.000532   0.007618   0.410848  -0.039336
    15  H    0.433993  -0.040701   0.006558  -0.001049  -0.000000   0.000000
    16  H   -0.043141   0.439317  -0.046765   0.005957   0.000000  -0.000000
    17  H    0.005834  -0.042947   0.431578  -0.041571  -0.000000   0.000000
    18  H   -0.000559   0.004207  -0.028121   0.434964  -0.000005   0.000001
    19  H   -0.000154   0.000028   0.000201  -0.001453  -0.001217   0.000194
    20  H   -0.000000  -0.000000   0.000001  -0.000012   0.445704  -0.035953
    21  H    0.000000   0.000000   0.000000  -0.000000  -0.040438   0.437447
    22  H   -0.000000   0.000000  -0.000000   0.000000   0.005373  -0.040338
    23  H    0.000020   0.000001   0.000000  -0.000000  -0.000736   0.004744
    24  H   -0.007497  -0.000162   0.000089  -0.000001  -0.000034   0.000104
    25  H   -0.012146   0.000024  -0.000067   0.000325   0.000339  -0.000047
               7          8          9         10         11         12
     1  C    0.000006  -0.000050  -0.065076   0.006899   0.482322  -0.055890
     2  C   -0.000000   0.000005   0.004798  -0.001804  -0.035968  -0.026249
     3  C   -0.000000   0.000001  -0.001592   0.007987  -0.044750  -0.041210
     4  C   -0.000003   0.000036   0.005432  -0.044572  -0.071640   0.412449
     5  C   -0.063131  -0.019727   0.005985  -0.040985  -0.001995   0.007661
     6  C    0.464694  -0.059226  -0.001535   0.007909   0.000172  -0.000451
     7  C    4.843133   0.494864   0.004750  -0.001933  -0.000181   0.000003
     8  C    0.494864   4.941651  -0.065794   0.006485   0.008670  -0.001558
     9  C    0.004750  -0.065794   5.045154  -0.024958   0.333816  -0.040813
    10  C   -0.001933   0.006485  -0.024958   4.880214  -0.037269   0.462107
    11  C   -0.000181   0.008670   0.333816  -0.037269   5.108080   0.337046
    12  C    0.000003  -0.001558  -0.040813   0.462107   0.337046   5.043923
    13  C   -0.037415   0.479314   0.322029  -0.041364  -0.004523  -0.047836
    14  C   -0.028771  -0.052455  -0.039789   0.471179  -0.049024  -0.045445
    15  H    0.000001   0.000011   0.000990  -0.000056  -0.060325   0.009105
    16  H    0.000000  -0.000000  -0.000216   0.000040   0.006775  -0.000885
    17  H    0.000000   0.000000   0.000058  -0.000311  -0.000483   0.006700
    18  H   -0.000000  -0.000001  -0.000097  -0.000861   0.005110  -0.060842
    19  H    0.000023  -0.000138  -0.000257   0.419574   0.005185  -0.038527
    20  H    0.005782  -0.000860  -0.000114  -0.001313  -0.000059   0.000748
    21  H   -0.044407   0.005663   0.000055  -0.000268  -0.000004   0.000013
    22  H    0.432671  -0.044070  -0.000238   0.000040   0.000009  -0.000001
    23  H   -0.034312   0.427227   0.002229  -0.000064   0.000262  -0.000016
    24  H   -0.000184  -0.007572   0.401957  -0.000528  -0.029425   0.005304
    25  H   -0.000014  -0.011850   0.422597  -0.004032  -0.045285   0.010061
              13         14         15         16         17         18
     1  C    0.008740  -0.001517   0.433993  -0.043141   0.005834  -0.000559
     2  C   -0.000167  -0.000002  -0.040701   0.439317  -0.042947   0.004207
     3  C    0.000204  -0.000532   0.006558  -0.046765   0.431578  -0.028121
     4  C   -0.001910   0.007618  -0.001049   0.005957  -0.041571   0.434964
     5  C   -0.071437   0.410848  -0.000000   0.000000  -0.000000  -0.000005
     6  C   -0.040987  -0.039336   0.000000  -0.000000   0.000000   0.000001
     7  C   -0.037415  -0.028771   0.000001   0.000000   0.000000  -0.000000
     8  C    0.479314  -0.052455   0.000011  -0.000000   0.000000  -0.000001
     9  C    0.322029  -0.039789   0.000990  -0.000216   0.000058  -0.000097
    10  C   -0.041364   0.471179  -0.000056   0.000040  -0.000311  -0.000861
    11  C   -0.004523  -0.049024  -0.060325   0.006775  -0.000483   0.005110
    12  C   -0.047836  -0.045445   0.009105  -0.000885   0.006700  -0.060842
    13  C    5.104895   0.338608   0.000281   0.000008  -0.000005  -0.000064
    14  C    0.338608   5.051270  -0.000008  -0.000001   0.000015   0.000870
    15  H    0.000281  -0.000008   0.519314  -0.006313  -0.000218   0.000033
    16  H    0.000008  -0.000001  -0.006313   0.501535  -0.006135  -0.000146
    17  H   -0.000005   0.000015  -0.000218  -0.006135   0.512144  -0.006049
    18  H   -0.000064   0.000870   0.000033  -0.000146  -0.006049   0.517652
    19  H    0.004745  -0.033833   0.000012  -0.000002  -0.000027   0.002762
    20  H    0.005651  -0.066799   0.000000   0.000000  -0.000000   0.000002
    21  H   -0.000573   0.006033  -0.000000   0.000000  -0.000000   0.000000
    22  H    0.007154  -0.000716  -0.000000  -0.000000   0.000000   0.000000
    23  H   -0.053413   0.008223   0.000009  -0.000000  -0.000000   0.000000
    24  H   -0.030800   0.005413   0.000580  -0.000011  -0.000000   0.000010
    25  H   -0.048391   0.010009   0.000322  -0.000004  -0.000000   0.000013
              19         20         21         22         23         24
     1  C   -0.000154  -0.000000   0.000000  -0.000000   0.000020  -0.007497
     2  C    0.000028  -0.000000   0.000000   0.000000   0.000001  -0.000162
     3  C    0.000201   0.000001   0.000000  -0.000000   0.000000   0.000089
     4  C   -0.001453  -0.000012  -0.000000   0.000000  -0.000000  -0.000001
     5  C   -0.001217   0.445704  -0.040438   0.005373  -0.000736  -0.000034
     6  C    0.000194  -0.035953   0.437447  -0.040338   0.004744   0.000104
     7  C    0.000023   0.005782  -0.044407   0.432671  -0.034312  -0.000184
     8  C   -0.000138  -0.000860   0.005663  -0.044070   0.427227  -0.007572
     9  C   -0.000257  -0.000114   0.000055  -0.000238   0.002229   0.401957
    10  C    0.419574  -0.001313  -0.000268   0.000040  -0.000064  -0.000528
    11  C    0.005185  -0.000059  -0.000004   0.000009   0.000262  -0.029425
    12  C   -0.038527   0.000748   0.000013  -0.000001  -0.000016   0.005304
    13  C    0.004745   0.005651  -0.000573   0.007154  -0.053413  -0.030800
    14  C   -0.033833  -0.066799   0.006033  -0.000716   0.008223   0.005413
    15  H    0.000012   0.000000  -0.000000  -0.000000   0.000009   0.000580
    16  H   -0.000002   0.000000   0.000000  -0.000000  -0.000000  -0.000011
    17  H   -0.000027  -0.000000  -0.000000   0.000000  -0.000000  -0.000000
    18  H    0.002762   0.000002   0.000000   0.000000   0.000000   0.000010
    19  H    0.480481   0.002525  -0.000025  -0.000001   0.000010   0.000038
    20  H    0.002525   0.516828  -0.006623  -0.000165   0.000032   0.000011
    21  H   -0.000025  -0.006623   0.503204  -0.005625  -0.000176  -0.000000
    22  H   -0.000001  -0.000165  -0.005625   0.503814  -0.005748  -0.000012
    23  H    0.000010   0.000032  -0.000176  -0.005748   0.513089   0.000549
    24  H    0.000038   0.000011  -0.000000  -0.000012   0.000549   0.491209
    25  H   -0.000007   0.000016  -0.000001  -0.000007   0.000302  -0.032133
              25
     1  C   -0.012146
     2  C    0.000024
     3  C   -0.000067
     4  C    0.000325
     5  C    0.000339
     6  C   -0.000047
     7  C   -0.000014
     8  C   -0.011850
     9  C    0.422597
    10  C   -0.004032
    11  C   -0.045285
    12  C    0.010061
    13  C   -0.048391
    14  C    0.010009
    15  H    0.000322
    16  H   -0.000004
    17  H   -0.000000
    18  H    0.000013
    19  H   -0.000007
    20  H    0.000016
    21  H   -0.000001
    22  H   -0.000007
    23  H    0.000302
    24  H   -0.032133
    25  H    0.506380
 Mulliken charges:
               1
     1  C   -0.100421
     2  C   -0.027412
     3  C   -0.118790
     4  C   -0.071899
     5  C   -0.060641
     6  C   -0.119137
     7  C   -0.035575
     8  C   -0.100626
     9  C   -0.309368
    10  C   -0.062117
    11  C    0.093483
    12  C    0.064602
    13  C    0.107258
    14  C    0.048143
    15  H    0.137463
    16  H    0.149987
    17  H    0.141419
    18  H    0.131120
    19  H    0.159864
    20  H    0.134598
    21  H    0.145727
    22  H    0.147861
    23  H    0.137771
    24  H    0.203096
    25  H    0.203594
 Sum of Mulliken charges =   1.00000
 Mulliken charges with hydrogens summed into heavy atoms:
               1
     1  C    0.037042
     2  C    0.122575
     3  C    0.022629
     4  C    0.059221
     5  C    0.073957
     6  C    0.026590
     7  C    0.112286
     8  C    0.037144
     9  C    0.097322
    10  C    0.097747
    11  C    0.093483
    12  C    0.064602
    13  C    0.107258
    14  C    0.048143
 Electronic spatial extent (au):  <R**2>=           2856.3413
 Charge=              1.0000 electrons
 Dipole moment (field-independent basis, Debye):
    X=             -0.0352    Y=              0.1931    Z=             -0.0095  Tot=              0.1965
 Quadrupole moment (field-independent basis, Debye-Ang):
   XX=            -30.9941   YY=            -56.3847   ZZ=            -83.3655
   XY=              0.2605   XZ=              0.0174   YZ=              0.5171
 Traceless Quadrupole moment (field-independent basis, Debye-Ang):
   XX=             25.9207   YY=              0.5301   ZZ=            -26.4508
   XY=              0.2605   XZ=              0.0174   YZ=              0.5171
 Octapole moment (field-independent basis, Debye-Ang**2):
  XXX=             -0.9185  YYY=              5.2180  ZZZ=              0.0723  XYY=             -0.0283
  XXY=             -5.1073  XXZ=              0.0997  XZZ=              0.0191  YZZ=             -2.9613
  YYZ=              0.4170  XYZ=             -0.0308
 Hexadecapole moment (field-independent basis, Debye-Ang**3):
 XXXX=          -2123.1600 YYYY=           -610.1472 ZZZZ=            -97.9477 XXXY=             -2.9703
 XXXZ=             -0.1077 YYYX=              4.9734 YYYZ=              2.3828 ZZZX=             -0.0471
 ZZZY=              0.2846 XXYY=           -508.7615 XXZZ=           -584.1385 YYZZ=           -144.4800
 XXYZ=             10.7181 YYXZ=              0.2576 ZZXY=             -1.3636
 N-N= 7.809081238534D+02 E-N=-2.797302314858D+03  KE= 5.364156294183D+02
 Unable to Open any file for archive entry.
 1\1\GINC-GADI-CPU-CLX-0712\SP\RM062X TD-FC\CC-pVTZ\C14H11(1+)\TS1578\2
 5-Jul-2022\0\\#n M062X/cc-pvtz TD EmpiricalDispersion=GD3 SP\\SP_-3\\1
 ,1\C,0,2.4927,1.3451,-0.051\C,0,3.7015,0.6807,-0.009\C,0,3.6839,-0.696
 1,0.\C,0,2.4632,-1.4169,0.06\C,0,-2.4632,-1.3809,0.06\C,0,-3.6839,-0.7
 141,0.\C,0,-3.7015,0.6807,-0.009\C,0,-2.4927,1.3931,-0.051\C,0,0.,1.46
 21,-0.099\C,0,0.,-1.4205,0.081\C,0,1.2621,0.6737,-0.024\C,0,1.2375,-0.
 7311,0.039\C,0,-1.2621,0.6977,-0.024\C,0,-1.2375,-0.7131,0.039\H,0,2.4
 881,2.4103,-0.054\H,0,4.6368,1.1934,0.036\H,0,4.6093,-1.2817,-0.042\H,
 0,2.4675,-2.5354,0.063\H,0,0.,-2.5016,0.084\H,0,-2.4675,-2.4274,0.063\
 H,0,-4.6093,-1.2457,-0.042\H,0,-4.6368,1.2474,0.036\H,0,-2.4881,2.4943
 ,-0.054\H,0,0.006,2.1545,-0.9496\H,0,-0.006,2.1545,0.7696\\Version=ES6
 4L-G16RevC.01\State=1-A\HF=-539.8092475\RMSD=7.213e-09\PG=C01 [X(C14H1
 1)]\\@
 The archive entry for this job was punched.


 CHRISTMAS IS ON TOP OF A STEEP HILL.
 THE CLOSER YOU GET, THE STEEPER THE HILL IS.
          -- LINUS, OF PEANUTS
 Job cpu time:       0 days  3 hours 28 minutes 45.2 seconds.
 Elapsed time:       0 days  0 hours 15 minutes 37.2 seconds.
 File lengths (MBytes):  RWF=    831 Int=      0 D2E=      0 Chk=     49 Scr=      1
 Normal termination of Gaussian 16 at Mon Jul 25 20:16:52 2022.
