 Entering Gaussian System, Link 0=g16
 Initial command:
 /apps/gaussian/g16c01/g16/l1.exe "/jobfs/52580424.gadi-pbs/Gau-2618517.inp" -scrdir="/jobfs/52580424.gadi-pbs/"
 Entering Link 1 = /apps/gaussian/g16c01/g16/l1.exe PID=   2618518.
  
 Copyright (c) 1988-2019, Gaussian, Inc.  All Rights Reserved.
  
 This is part of the Gaussian(R) 16 program.  It is based on
 the Gaussian(R) 09 system (copyright 2009, Gaussian, Inc.),
 the Gaussian(R) 03 system (copyright 2003, Gaussian, Inc.),
 the Gaussian(R) 98 system (copyright 1998, Gaussian, Inc.),
 the Gaussian(R) 94 system (copyright 1995, Gaussian, Inc.),
 the Gaussian 92(TM) system (copyright 1992, Gaussian, Inc.),
 the Gaussian 90(TM) system (copyright 1990, Gaussian, Inc.),
 the Gaussian 88(TM) system (copyright 1988, Gaussian, Inc.),
 the Gaussian 86(TM) system (copyright 1986, Carnegie Mellon
 University), and the Gaussian 82(TM) system (copyright 1983,
 Carnegie Mellon University). Gaussian is a federally registered
 trademark of Gaussian, Inc.
  
 This software contains proprietary and confidential information,
 including trade secrets, belonging to Gaussian, Inc.
  
 This software is provided under written license and may be
 used, copied, transmitted, or stored only in accord with that
 written license.
  
 The following legend is applicable only to US Government
 contracts under FAR:
  
                    RESTRICTED RIGHTS LEGEND
  
 Use, reproduction and disclosure by the US Government is
 subject to restrictions as set forth in subparagraphs (a)
 and (c) of the Commercial Computer Software - Restricted
 Rights clause in FAR 52.227-19.
  
 Gaussian, Inc.
 340 Quinnipiac St., Bldg. 40, Wallingford CT 06492
  
  
 ---------------------------------------------------------------
 Warning -- This program may not be used in any manner that
 competes with the business of Gaussian, Inc. or will provide
 assistance to any competitor of Gaussian, Inc.  The licensee
 of this program is prohibited from giving any competitor of
 Gaussian, Inc. access to this program.  By using this program,
 the user acknowledges that Gaussian, Inc. is engaged in the
 business of creating and licensing software in the field of
 computational chemistry and represents and warrants to the
 licensee that it is not a competitor of Gaussian, Inc. and that
 it will not use this program in any manner prohibited above.
 ---------------------------------------------------------------
  

 Cite this work as:
 Gaussian 16, Revision C.01,
 M. J. Frisch, G. W. Trucks, H. B. Schlegel, G. E. Scuseria, 
 M. A. Robb, J. R. Cheeseman, G. Scalmani, V. Barone, 
 G. A. Petersson, H. Nakatsuji, X. Li, M. Caricato, A. V. Marenich, 
 J. Bloino, B. G. Janesko, R. Gomperts, B. Mennucci, H. P. Hratchian, 
 J. V. Ortiz, A. F. Izmaylov, J. L. Sonnenberg, D. Williams-Young, 
 F. Ding, F. Lipparini, F. Egidi, J. Goings, B. Peng, A. Petrone, 
 T. Henderson, D. Ranasinghe, V. G. Zakrzewski, J. Gao, N. Rega, 
 G. Zheng, W. Liang, M. Hada, M. Ehara, K. Toyota, R. Fukuda, 
 J. Hasegawa, M. Ishida, T. Nakajima, Y. Honda, O. Kitao, H. Nakai, 
 T. Vreven, K. Throssell, J. A. Montgomery, Jr., J. E. Peralta, 
 F. Ogliaro, M. J. Bearpark, J. J. Heyd, E. N. Brothers, K. N. Kudin, 
 V. N. Staroverov, T. A. Keith, R. Kobayashi, J. Normand, 
 K. Raghavachari, A. P. Rendell, J. C. Burant, S. S. Iyengar, 
 J. Tomasi, M. Cossi, J. M. Millam, M. Klene, C. Adamo, R. Cammi, 
 J. W. Ochterski, R. L. Martin, K. Morokuma, O. Farkas, 
 J. B. Foresman, and D. J. Fox, Gaussian, Inc., Wallingford CT, 2019.
 
 ******************************************
 Gaussian 16:  ES64L-G16RevC.01  3-Jul-2019
                25-Jul-2022 
 ******************************************
 %NProcShared=16
 Will use up to   16 processors via shared memory.
 %mem = 64GB
 %Chk=check_sp_10
 ----------------------------------------------
 #n M062X/cc-pvtz TD EmpiricalDispersion=GD3 SP
 ----------------------------------------------
 1/38=1,172=1/1;
 2/12=2,17=6,18=5,40=1/2;
 3/5=16,6=1,11=9,25=1,30=1,74=-55,124=31/1,2,3,8;
 4//1;
 5/5=2,38=5/2;
 8/6=1,10=1/1;
 9/42=1,70=2/14;
 6/7=2,8=2,9=2,10=2/1;
 99/5=1,9=1/99;
 ----
 SP_5
 ----
 Symbolic Z-matrix:
 Charge =  1 Multiplicity = 1
 C                     2.4927    1.4091    0.085 
 C                     3.7015    0.6807    0.015 
 C                     3.6839   -0.7201    0. 
 C                     2.4632   -1.3689   -0.1 
 C                    -2.4632   -1.4289   -0.1 
 C                    -3.6839   -0.6901    0. 
 C                    -3.7015    0.6807    0.015 
 C                    -2.4927    1.3291    0.085 
 C                     0.        1.4621    0.165 
 C                     0.       -1.4205   -0.135 
 C                     1.2621    0.7057    0.04 
 C                     1.2375   -0.7071   -0.065 
 C                    -1.2621    0.6657    0.04 
 C                    -1.2375   -0.7371   -0.065 
 H                     2.4881    2.5223    0.09 
 H                     4.6368    1.2654   -0.06 
 H                     4.6093   -1.2337    0.07 
 H                     2.4675   -2.3914   -0.105 
 H                     0.       -2.5016   -0.14 
 H                    -2.4675   -2.5714   -0.105 
 H                    -4.6093   -1.2937    0.07 
 H                    -4.6368    1.1754   -0.06 
 H                    -2.4881    2.3823    0.09 
 H                    -0.01      2.1545   -0.7096 
 H                     0.01      2.1545    1.0096 
 
                          Input orientation:                          
 ---------------------------------------------------------------------
 Center     Atomic      Atomic             Coordinates (Angstroms)
 Number     Number       Type             X           Y           Z
 ---------------------------------------------------------------------
      1          6           0        2.492700    1.409100    0.085000
      2          6           0        3.701500    0.680700    0.015000
      3          6           0        3.683900   -0.720100    0.000000
      4          6           0        2.463200   -1.368900   -0.100000
      5          6           0       -2.463200   -1.428900   -0.100000
      6          6           0       -3.683900   -0.690100    0.000000
      7          6           0       -3.701500    0.680700    0.015000
      8          6           0       -2.492700    1.329100    0.085000
      9          6           0        0.000000    1.462100    0.165000
     10          6           0        0.000000   -1.420500   -0.135000
     11          6           0        1.262100    0.705700    0.040000
     12          6           0        1.237500   -0.707100   -0.065000
     13          6           0       -1.262100    0.665700    0.040000
     14          6           0       -1.237500   -0.737100   -0.065000
     15          1           0        2.488100    2.522300    0.090000
     16          1           0        4.636800    1.265400   -0.060000
     17          1           0        4.609300   -1.233700    0.070000
     18          1           0        2.467500   -2.391400   -0.105000
     19          1           0        0.000000   -2.501600   -0.140000
     20          1           0       -2.467500   -2.571400   -0.105000
     21          1           0       -4.609300   -1.293700    0.070000
     22          1           0       -4.636800    1.175400   -0.060000
     23          1           0       -2.488100    2.382300    0.090000
     24          1           0       -0.010000    2.154500   -0.709600
     25          1           0        0.010000    2.154500    1.009600
 ---------------------------------------------------------------------
                    Distance matrix (angstroms):
                    1          2          3          4          5
     1  C    0.000000
     2  C    1.413034   0.000000
     3  C    2.441245   1.400991   0.000000
     4  C    2.784309   2.397389   1.386019   0.000000
     5  C    5.713967   6.516683   6.188638   4.926765   0.000000
     6  C    6.524129   7.511554   7.367861   6.185273   1.430361
     7  C    6.237273   7.403000   7.517087   6.497508   2.448882
     8  C    4.986042   6.228438   6.508213   5.645739   2.764355
     9  C    2.494547   3.786052   4.284897   3.761933   3.807290
    10  C    3.777379   4.258949   3.752320   2.463989   2.463463
    11  C    1.418158   2.439656   2.810626   2.401293   4.295809
    12  C    2.465021   2.829078   2.447298   1.393393   3.770597
    13  C    3.827949   4.963686   5.136629   4.247006   2.418593
    14  C    4.306166   5.139093   4.921859   3.754408   1.407889
    15  H    1.113221   2.206684   3.457050   3.895915   6.337464
    16  H    2.153797   1.105570   2.203141   3.415505   7.594133
    17  H    3.385943   2.119446   1.060684   2.157064   7.077235
    18  H    3.805330   3.312847   2.069758   1.022521   5.023767
    19  H    4.643033   4.883867   4.094443   2.711450   2.686939
    20  H    6.362709   6.974748   6.424800   5.075218   1.142519
    21  H    7.598931   8.542288   8.313308   7.074942   2.157064
    22  H    7.134803   8.353299   8.534083   7.542219   3.392420
    23  H    5.074989   6.419674   6.908442   6.214738   3.816014
    24  H    2.729564   4.058616   4.734105   4.347721   4.385266
    25  H    2.752146   4.097376   4.772856   4.434383   4.493182
                    6          7          8          9         10
     6  C    0.000000
     7  C    1.370995   0.000000
     8  C    2.345922   1.373506   0.000000
     9  C    4.269697   3.786052   2.497527   0.000000
    10  C    3.758035   4.258949   3.717829   2.898169   0.000000
    11  C    5.139336   4.963726   3.806465   1.476707   2.478759
    12  C    4.921859   5.130898   4.252411   2.507934   1.430121
    13  C    2.775772   2.439574   1.398750   1.497590   2.444535
    14  C    2.447715   2.843915   2.422232   2.533927   1.415395
    15  H    6.958534   6.458194   5.121730   2.705604   4.667648
    16  H    8.547610   8.359112   7.131259   4.646421   5.359067
    17  H    8.311292   8.528619   7.550270   5.340600   4.617636
    18  H    6.383194   6.892660   6.203370   4.583767   2.651811
    19  H    4.107585   4.883867   4.575854   3.975417   1.081112
    20  H    2.242754   3.480418   3.905206   4.736093   2.722871
    21  H    1.107067   2.173794   3.370356   5.371136   4.615599
    22  H    2.095640   1.060726   2.154487   4.651101   5.314531
    23  H    3.298133   2.091269   1.053222   2.653872   4.550006
    24  H    4.700300   4.040335   2.734314   1.115546   3.620896
    25  H    4.770318   4.115404   2.792790   1.092184   3.753776
                   11         12         13         14         15
    11  C    0.000000
    12  C    1.416910   0.000000
    13  C    2.524517   2.853700   0.000000
    14  C    2.888026   2.475182   1.406939   0.000000
    15  H    2.192171   3.466562   4.184909   4.952556   0.000000
    16  H    3.422260   3.930143   5.930149   6.206241   2.493834
    17  H    3.868581   3.415343   6.171058   5.869404   4.313633
    18  H    3.326566   2.085993   4.824604   4.057750   4.917611
    19  H    3.451387   2.181115   3.414247   2.156500   5.610981
    20  H    4.966923   4.147799   3.457287   2.208881   7.109274
    21  H    6.202567   5.877703   3.878646   3.420097   8.058247
    22  H    5.918415   6.168568   3.414439   3.900375   7.252644
    23  H    4.108222   4.842366   2.110045   3.364325   4.978169
    24  H    2.068613   3.187557   2.084749   3.206808   2.648611
    25  H    2.146369   3.293976   2.185152   3.327517   2.668693
                   16         17         18         19         20
    16  H    0.000000
    17  H    2.502630   0.000000
    18  H    4.252067   2.440943   0.000000
    19  H    5.974663   4.785114   2.470208   0.000000
    20  H    8.074289   7.204246   4.938282   2.468735   0.000000
    21  H    9.594595   9.218795   7.163565   4.769567   2.500090
    22  H    9.274037   9.555680   7.949539   5.918331   4.329711
    23  H    7.213471   7.965484   6.883619   5.485984   4.957579
    24  H    4.775482   5.781488   5.212366   4.690822   5.360875
    25  H    4.831337   5.789327   5.286478   4.795930   5.451098
                   21         22         23         24         25
    21  H    0.000000
    22  H    2.472673   0.000000
    23  H    4.244157   2.469012   0.000000
    24  H    5.800984   4.773667   2.613854   0.000000
    25  H    5.840451   4.867795   2.671715   1.719316   0.000000
 Stoichiometry    C14H11(1+)
 Framework group  C1[X(C14H11)]
 Deg. of freedom    69
 Full point group                 C1      NOp   1
 Largest Abelian subgroup         C1      NOp   1
 Largest concise Abelian subgroup C1      NOp   1
                         Standard orientation:                         
 ---------------------------------------------------------------------
 Center     Atomic      Atomic             Coordinates (Angstroms)
 Number     Number       Type             X           Y           Z
 ---------------------------------------------------------------------
      1          6           0       -2.502627   -1.385188    0.001452
      2          6           0       -3.706197   -0.645314   -0.024449
      3          6           0       -3.678613    0.753710    0.044432
      4          6           0       -2.453308    1.398624   -0.016919
      5          6           0        2.473395    1.423434   -0.014822
      6          6           0        3.688786    0.671299    0.040400
      7          6           0        3.696615   -0.698031   -0.026696
      8          6           0        2.483216   -1.340834    0.004728
      9          6           0       -0.010378   -1.460631    0.077379
     10          6           0        0.010202    1.434685   -0.049514
     11          6           0       -1.267040   -0.689136   -0.001731
     12          6           0       -1.232360    0.727205   -0.021972
     13          6           0        1.257381   -0.667184   -0.000103
     14          6           0        1.242791    0.739526   -0.020927
     15          1           0       -2.505961   -2.496695   -0.060201
     16          1           0       -4.645631   -1.217801   -0.134035
     17          1           0       -4.600338    1.268775    0.145334
     18          1           0       -2.450320    2.419594    0.039304
     19          1           0        0.017906    2.514118    0.010215
     20          1           0        2.485837    2.564125    0.048583
     21          1           0        4.618456    1.263021    0.146128
     22          1           0        4.628375   -1.194001   -0.131461
     23          1           0        2.471111   -2.392385   -0.053330
     24          1           0       -0.005204   -2.099484   -0.837106
     25          1           0       -0.025416   -2.202263    0.879016
 ---------------------------------------------------------------------
 Rotational constants (GHZ):           2.1244969           0.4445047           0.3685304
 Standard basis: CC-pVTZ (5D, 7F)
 There are   655 symmetry adapted cartesian basis functions of A   symmetry.
 There are   574 symmetry adapted basis functions of A   symmetry.
   574 basis functions,   915 primitive gaussians,   655 cartesian basis functions
    47 alpha electrons       47 beta electrons
       nuclear repulsion energy       780.4068155904 Hartrees.
 NAtoms=   25 NActive=   25 NUniq=   25 SFac= 1.00D+00 NAtFMM=   60 NAOKFM=F Big=F
 Integral buffers will be    131072 words long.
 Regular integral format.
 Two-electron integral symmetry is turned on.
 Nuclear repulsion after empirical dispersion term =      780.4058351944 Hartrees.
 One-electron integrals computed using PRISM.
 NBasis=   574 RedAO= T EigKep=  2.04D-05  NBF=   574
 NBsUse=   574 1.00D-06 EigRej= -1.00D+00 NBFU=   574
 ExpMin= 1.03D-01 ExpMax= 8.24D+03 ExpMxC= 2.81D+02 IAcc=3 IRadAn=         5 AccDes= 0.00D+00
 Harris functional with IExCor= 1009 and IRadAn=       5 diagonalized for initial guess.
 HarFok:  IExCor= 1009 AccDes= 0.00D+00 IRadAn=         5 IDoV= 1 UseB2=F ITyADJ=14
 ICtDFT=  3500011 ScaDFX=  1.000000  1.000000  1.000000  1.000000
 FoFCou: FMM=F IPFlag=           0 FMFlag=      100000 FMFlg1=           0
         NFxFlg=           0 DoJE=T BraDBF=F KetDBF=T FulRan=T
         wScrn=  0.000000 ICntrl=       500 IOpCl=  0 I1Cent=   200000004 NGrid=           0
         NMat0=    1 NMatS0=      1 NMatT0=    0 NMatD0=    1 NMtDS0=    0 NMtDT0=    0
 Petite list used in FoFCou.
 Requested convergence on RMS density matrix=1.00D-08 within 128 cycles.
 Requested convergence on MAX density matrix=1.00D-06.
 Requested convergence on             energy=1.00D-06.
 No special actions if energy rises.
 Integral accuracy reduced to 1.0D-05 until final iterations.
 Initial convergence to 1.0D-05 achieved.  Increase integral accuracy.
 SCF Done:  E(RM062X) =  -539.797495629     A.U. after   14 cycles
            NFock= 14  Conv=0.87D-08     -V/T= 2.0064
 DoSCS=F DFT=T ScalE2(SS,OS)=  1.000000  1.000000
 ExpMin= 1.03D-01 ExpMax= 8.24D+03 ExpMxC= 2.81D+02 IAcc=3 IRadAn=         5 AccDes= 0.00D+00
 HarFok:  IExCor=  205 AccDes= 0.00D+00 IRadAn=         5 IDoV=-2 UseB2=F ITyADJ=14
 ICtDFT= 12500011 ScaDFX=  1.000000  1.000000  1.000000  1.000000
 Range of M.O.s used for correlation:    15   574
 NBasis=   574 NAE=    47 NBE=    47 NFC=    14 NFV=     0
 NROrb=    560 NOA=    33 NOB=    33 NVA=   527 NVB=   527

 **** Warning!!: The largest alpha MO coefficient is  0.43576227D+02

 Orbital symmetries:
       Occupied  (A) (A) (A) (A) (A) (A) (A) (A) (A) (A) (A) (A)
                 (A) (A) (A) (A) (A) (A) (A) (A) (A) (A) (A) (A)
                 (A) (A) (A) (A) (A) (A) (A) (A) (A) (A) (A) (A)
                 (A) (A) (A) (A) (A) (A) (A) (A) (A) (A) (A)
       Virtual   (A) (A) (A) (A) (A) (A) (A) (A) (A) (A) (A) (A)
                 (A) (A) (A) (A) (A) (A) (A) (A) (A) (A) (A) (A)
                 (A) (A) (A) (A) (A) (A) (A) (A) (A) (A) (A) (A)
                 (A) (A) (A) (A) (A) (A) (A) (A) (A) (A) (A) (A)
                 (A) (A) (A) (A) (A) (A) (A) (A) (A) (A) (A) (A)
                 (A) (A) (A) (A) (A) (A) (A) (A) (A) (A) (A) (A)
                 (A) (A) (A) (A) (A) (A) (A) (A) (A) (A) (A) (A)
                 (A) (A) (A) (A) (A) (A) (A) (A) (A) (A) (A) (A)
                 (A) (A) (A) (A) (A) (A) (A) (A) (A) (A) (A) (A)
                 (A) (A) (A) (A) (A) (A) (A) (A) (A) (A) (A) (A)
                 (A) (A) (A) (A) (A) (A) (A) (A) (A) (A) (A) (A)
                 (A) (A) (A) (A) (A) (A) (A) (A) (A) (A) (A) (A)
                 (A) (A) (A) (A) (A) (A) (A) (A) (A) (A) (A) (A)
                 (A) (A) (A) (A) (A) (A) (A) (A) (A) (A) (A) (A)
                 (A) (A) (A) (A) (A) (A) (A) (A) (A) (A) (A) (A)
                 (A) (A) (A) (A) (A) (A) (A) (A) (A) (A) (A) (A)
                 (A) (A) (A) (A) (A) (A) (A) (A) (A) (A) (A) (A)
                 (A) (A) (A) (A) (A) (A) (A) (A) (A) (A) (A) (A)
                 (A) (A) (A) (A) (A) (A) (A) (A) (A) (A) (A) (A)
                 (A) (A) (A) (A) (A) (A) (A) (A) (A) (A) (A) (A)
                 (A) (A) (A) (A) (A) (A) (A) (A) (A) (A) (A) (A)
                 (A) (A) (A) (A) (A) (A) (A) (A) (A) (A) (A) (A)
                 (A) (A) (A) (A) (A) (A) (A) (A) (A) (A) (A) (A)
                 (A) (A) (A) (A) (A) (A) (A) (A) (A) (A) (A) (A)
                 (A) (A) (A) (A) (A) (A) (A) (A) (A) (A) (A) (A)
                 (A) (A) (A) (A) (A) (A) (A) (A) (A) (A) (A) (A)
                 (A) (A) (A) (A) (A) (A) (A) (A) (A) (A) (A) (A)
                 (A) (A) (A) (A) (A) (A) (A) (A) (A) (A) (A) (A)
                 (A) (A) (A) (A) (A) (A) (A) (A) (A) (A) (A) (A)
                 (A) (A) (A) (A) (A) (A) (A) (A) (A) (A) (A) (A)
                 (A) (A) (A) (A) (A) (A) (A) (A) (A) (A) (A) (A)
                 (A) (A) (A) (A) (A) (A) (A) (A) (A) (A) (A) (A)
                 (A) (A) (A) (A) (A) (A) (A) (A) (A) (A) (A) (A)
                 (A) (A) (A) (A) (A) (A) (A) (A) (A) (A) (A) (A)
                 (A) (A) (A) (A) (A) (A) (A) (A) (A) (A) (A) (A)
                 (A) (A) (A) (A) (A) (A) (A) (A) (A) (A) (A) (A)
                 (A) (A) (A) (A) (A) (A) (A) (A) (A) (A) (A) (A)
                 (A) (A) (A) (A) (A) (A) (A) (A) (A) (A) (A) (A)
                 (A) (A) (A) (A) (A) (A) (A) (A) (A) (A) (A) (A)
                 (A) (A) (A) (A) (A) (A) (A) (A) (A) (A) (A) (A)
                 (A) (A) (A) (A) (A) (A) (A) (A) (A) (A) (A) (A)
                 (A) (A) (A) (A) (A) (A) (A) (A) (A) (A) (A) (A)
                 (A) (A) (A) (A) (A) (A) (A) (A) (A) (A) (A) (A)
                 (A) (A) (A) (A) (A) (A) (A) (A) (A) (A) (A)
    12 initial guesses have been made.
 Convergence on wavefunction:    0.001000000000000
 Iteration     1 Dimension    12 NMult     0 NNew     12
 CISAX will form    12 AO SS matrices at one time.
 New state      2 was old state      3
 New state      3 was old state      2
 Iteration     2 Dimension    18 NMult    12 NNew      6
 Iteration     3 Dimension    24 NMult    18 NNew      6
 Iteration     4 Dimension    30 NMult    24 NNew      6
 Iteration     5 Dimension    36 NMult    30 NNew      6
 Iteration     6 Dimension    38 NMult    36 NNew      2
 ***********************************************************************
 Excited states from <AA,BB:AA,BB> singles matrix:
 ***********************************************************************
 
 Ground to excited state transition densities written to RWF  633
 Ground to excited state transition electric dipole moments (Au):
       state          X           Y           Z        Dip. S.      Osc.
         1         0.0347      0.6332     -0.0019      0.4022      0.0275
         2        -0.3715     -0.0423      0.0002      0.1398      0.0111
         3        -2.5006     -0.0594     -0.0007      6.2564      0.5297
 Ground to excited state transition velocity dipole moments (Au):
       state          X           Y           Z        Dip. S.      Osc.
         1        -0.0038     -0.0687      0.0005      0.0047      0.0307
         2         0.0441      0.0053     -0.0001      0.0020      0.0110
         3         0.3269      0.0077      0.0002      0.1070      0.5614
 Ground to excited state transition magnetic dipole moments (Au):
       state          X           Y           Z
         1         0.0246     -0.0012     -0.0263
         2        -0.0033     -0.0096     -0.9830
         3         0.0003     -0.0207     -1.0516
 Ground to excited state transition velocity quadrupole moments (Au):
       state          XX          YY          ZZ          XY          XZ          YZ
         1        -0.2615     -0.0306      0.0065     -0.0405     -0.0001      0.0035
         2         0.0265     -0.0031     -0.0016     -0.2786      0.0030     -0.0015
         3        -0.0676      0.0214      0.0002     -0.0965     -0.0067     -0.0005
 <0|del|b> * <b|rxdel|0> + <0|del|b> * <b|delr+rdel|0>
 Rotatory Strengths (R) in cgs (10**-40 erg-esu-cm/Gauss)
       state          XX          YY          ZZ    R(velocity)    E-M Angle
         1         0.1752     -0.3467      0.0310     -0.0468       90.00
         2         0.0285     -0.5067     -0.3427     -0.2736       90.18
         3        -0.8330     -0.6805      0.1087     -0.4683       90.04
 1/2[<0|r|b>*<b|rxdel|0> + (<0|rxdel|b>*<b|r|0>)*]
 Rotatory Strengths (R) in cgs (10**-40 erg-esu-cm/Gauss)
       state          XX          YY          ZZ     R(length)
         1        -0.6033      0.5597     -0.0348     -0.0262
         2        -0.8751     -0.2877      0.1661     -0.3322
         3         0.4464     -0.8689     -0.5048     -0.3091
  1/2[<0|del|b>*<b|r|0> + (<0|r|b>*<b|del|0>)*] (Au)
       state          X           Y           Z        Dip. S.   Osc.(frdel)
         1        -0.0001     -0.0435     -0.0000      0.0436      0.0291
         2        -0.0164     -0.0002     -0.0000      0.0166      0.0111
         3        -0.8175     -0.0005     -0.0000      0.8180      0.5453

 Excitation energies and oscillator strengths:
 
 Excited State   1:      Singlet-A      2.7937 eV  443.79 nm  f=0.0275  <S**2>=0.000
      47 -> 48         0.70406
 This state for optimization and/or second-order correction.
 Total Energy, E(TD-HF/TD-DFT) =  -539.694827380    
 Copying the excited state density for this state as the 1-particle RhoCI density.
 
 Excited State   2:      Singlet-A      3.2418 eV  382.45 nm  f=0.0111  <S**2>=0.000
      45 -> 48         0.58399
      46 -> 48         0.38799
 
 Excited State   3:      Singlet-A      3.4559 eV  358.76 nm  f=0.5297  <S**2>=0.000
      45 -> 48        -0.39000
      46 -> 48         0.57965
 SavETr:  write IOETrn=   770 NScale= 10 NData=  16 NLR=1 NState=    3 LETran=      64.

 **********************************************************************

            Population analysis using the SCF Density.

 **********************************************************************

 Orbital symmetries:
       Occupied  (A) (A) (A) (A) (A) (A) (A) (A) (A) (A) (A) (A)
                 (A) (A) (A) (A) (A) (A) (A) (A) (A) (A) (A) (A)
                 (A) (A) (A) (A) (A) (A) (A) (A) (A) (A) (A) (A)
                 (A) (A) (A) (A) (A) (A) (A) (A) (A) (A) (A)
       Virtual   (A) (A) (A) (A) (A) (A) (A) (A) (A) (A) (A) (A)
                 (A) (A) (A) (A) (A) (A) (A) (A) (A) (A) (A) (A)
                 (A) (A) (A) (A) (A) (A) (A) (A) (A) (A) (A) (A)
                 (A) (A) (A) (A) (A) (A) (A) (A) (A) (A) (A) (A)
                 (A) (A) (A) (A) (A) (A) (A) (A) (A) (A) (A) (A)
                 (A) (A) (A) (A) (A) (A) (A) (A) (A) (A) (A) (A)
                 (A) (A) (A) (A) (A) (A) (A) (A) (A) (A) (A) (A)
                 (A) (A) (A) (A) (A) (A) (A) (A) (A) (A) (A) (A)
                 (A) (A) (A) (A) (A) (A) (A) (A) (A) (A) (A) (A)
                 (A) (A) (A) (A) (A) (A) (A) (A) (A) (A) (A) (A)
                 (A) (A) (A) (A) (A) (A) (A) (A) (A) (A) (A) (A)
                 (A) (A) (A) (A) (A) (A) (A) (A) (A) (A) (A) (A)
                 (A) (A) (A) (A) (A) (A) (A) (A) (A) (A) (A) (A)
                 (A) (A) (A) (A) (A) (A) (A) (A) (A) (A) (A) (A)
                 (A) (A) (A) (A) (A) (A) (A) (A) (A) (A) (A) (A)
                 (A) (A) (A) (A) (A) (A) (A) (A) (A) (A) (A) (A)
                 (A) (A) (A) (A) (A) (A) (A) (A) (A) (A) (A) (A)
                 (A) (A) (A) (A) (A) (A) (A) (A) (A) (A) (A) (A)
                 (A) (A) (A) (A) (A) (A) (A) (A) (A) (A) (A) (A)
                 (A) (A) (A) (A) (A) (A) (A) (A) (A) (A) (A) (A)
                 (A) (A) (A) (A) (A) (A) (A) (A) (A) (A) (A) (A)
                 (A) (A) (A) (A) (A) (A) (A) (A) (A) (A) (A) (A)
                 (A) (A) (A) (A) (A) (A) (A) (A) (A) (A) (A) (A)
                 (A) (A) (A) (A) (A) (A) (A) (A) (A) (A) (A) (A)
                 (A) (A) (A) (A) (A) (A) (A) (A) (A) (A) (A) (A)
                 (A) (A) (A) (A) (A) (A) (A) (A) (A) (A) (A) (A)
                 (A) (A) (A) (A) (A) (A) (A) (A) (A) (A) (A) (A)
                 (A) (A) (A) (A) (A) (A) (A) (A) (A) (A) (A) (A)
                 (A) (A) (A) (A) (A) (A) (A) (A) (A) (A) (A) (A)
                 (A) (A) (A) (A) (A) (A) (A) (A) (A) (A) (A) (A)
                 (A) (A) (A) (A) (A) (A) (A) (A) (A) (A) (A) (A)
                 (A) (A) (A) (A) (A) (A) (A) (A) (A) (A) (A) (A)
                 (A) (A) (A) (A) (A) (A) (A) (A) (A) (A) (A) (A)
                 (A) (A) (A) (A) (A) (A) (A) (A) (A) (A) (A) (A)
                 (A) (A) (A) (A) (A) (A) (A) (A) (A) (A) (A) (A)
                 (A) (A) (A) (A) (A) (A) (A) (A) (A) (A) (A) (A)
                 (A) (A) (A) (A) (A) (A) (A) (A) (A) (A) (A) (A)
                 (A) (A) (A) (A) (A) (A) (A) (A) (A) (A) (A) (A)
                 (A) (A) (A) (A) (A) (A) (A) (A) (A) (A) (A) (A)
                 (A) (A) (A) (A) (A) (A) (A) (A) (A) (A) (A) (A)
                 (A) (A) (A) (A) (A) (A) (A) (A) (A) (A) (A) (A)
                 (A) (A) (A) (A) (A) (A) (A) (A) (A) (A) (A) (A)
                 (A) (A) (A) (A) (A) (A) (A) (A) (A) (A) (A) (A)
                 (A) (A) (A) (A) (A) (A) (A) (A) (A) (A) (A)
 The electronic state is 1-A.
 Alpha  occ. eigenvalues --  -10.77522 -10.73382 -10.73047 -10.72397 -10.72279
 Alpha  occ. eigenvalues --  -10.72136 -10.71546 -10.70951 -10.70476 -10.70382
 Alpha  occ. eigenvalues --  -10.70377 -10.69786 -10.69423 -10.69254  -1.16131
 Alpha  occ. eigenvalues --   -1.12231  -1.06755  -1.05539  -1.01074  -0.99965
 Alpha  occ. eigenvalues --   -0.95541  -0.90867  -0.86214  -0.85553  -0.83671
 Alpha  occ. eigenvalues --   -0.78167  -0.75691  -0.74177  -0.69579  -0.69182
 Alpha  occ. eigenvalues --   -0.68110  -0.67886  -0.67848  -0.64476  -0.63970
 Alpha  occ. eigenvalues --   -0.62827  -0.61674  -0.59993  -0.59649  -0.58504
 Alpha  occ. eigenvalues --   -0.56638  -0.55057  -0.54333  -0.52236  -0.46537
 Alpha  occ. eigenvalues --   -0.45840  -0.44336
 Alpha virt. eigenvalues --   -0.25965  -0.14448  -0.14062  -0.12560  -0.07141
 Alpha virt. eigenvalues --   -0.05442  -0.05403  -0.04073  -0.02749  -0.01597
 Alpha virt. eigenvalues --   -0.00404   0.00306   0.00557   0.01900   0.02273
 Alpha virt. eigenvalues --    0.03938   0.04540   0.06819   0.07620   0.09424
 Alpha virt. eigenvalues --    0.09882   0.10499   0.12617   0.13800   0.14178
 Alpha virt. eigenvalues --    0.15601   0.15912   0.16284   0.16700   0.16943
 Alpha virt. eigenvalues --    0.17512   0.17754   0.18858   0.19588   0.20721
 Alpha virt. eigenvalues --    0.21005   0.21808   0.22668   0.22793   0.24136
 Alpha virt. eigenvalues --    0.25100   0.25413   0.25447   0.26502   0.26719
 Alpha virt. eigenvalues --    0.27442   0.27668   0.28241   0.29597   0.30089
 Alpha virt. eigenvalues --    0.30234   0.30732   0.31344   0.31792   0.32486
 Alpha virt. eigenvalues --    0.33020   0.33264   0.34066   0.34506   0.34793
 Alpha virt. eigenvalues --    0.36014   0.36970   0.37582   0.38315   0.38542
 Alpha virt. eigenvalues --    0.39196   0.39605   0.39963   0.41159   0.42783
 Alpha virt. eigenvalues --    0.44133   0.44314   0.44755   0.45385   0.46520
 Alpha virt. eigenvalues --    0.47993   0.48413   0.49959   0.50434   0.50541
 Alpha virt. eigenvalues --    0.52738   0.52971   0.54479   0.56528   0.56788
 Alpha virt. eigenvalues --    0.58462   0.58694   0.59249   0.59926   0.60613
 Alpha virt. eigenvalues --    0.62028   0.63170   0.63687   0.64007   0.64454
 Alpha virt. eigenvalues --    0.65043   0.66764   0.67235   0.68950   0.69362
 Alpha virt. eigenvalues --    0.69971   0.70892   0.72384   0.73000   0.74247
 Alpha virt. eigenvalues --    0.75175   0.76041   0.76729   0.76913   0.77728
 Alpha virt. eigenvalues --    0.78342   0.81199   0.82477   0.83938   0.84525
 Alpha virt. eigenvalues --    0.85025   0.85505   0.85817   0.86700   0.87326
 Alpha virt. eigenvalues --    0.88143   0.89084   0.89593   0.91581   0.93043
 Alpha virt. eigenvalues --    0.93531   0.94394   0.94931   0.95545   0.95814
 Alpha virt. eigenvalues --    0.96667   0.97898   0.99278   1.00775   1.02373
 Alpha virt. eigenvalues --    1.03998   1.04921   1.05077   1.05909   1.06612
 Alpha virt. eigenvalues --    1.07483   1.09339   1.10525   1.11583   1.11882
 Alpha virt. eigenvalues --    1.12846   1.13123   1.14590   1.14896   1.15821
 Alpha virt. eigenvalues --    1.15991   1.16627   1.17538   1.18112   1.19685
 Alpha virt. eigenvalues --    1.21111   1.21747   1.22952   1.23631   1.24382
 Alpha virt. eigenvalues --    1.25138   1.26499   1.27003   1.27288   1.28139
 Alpha virt. eigenvalues --    1.30058   1.30483   1.30751   1.31912   1.33312
 Alpha virt. eigenvalues --    1.34095   1.35546   1.37139   1.37621   1.38189
 Alpha virt. eigenvalues --    1.39891   1.41715   1.43098   1.44014   1.44826
 Alpha virt. eigenvalues --    1.45999   1.47059   1.47594   1.49728   1.50706
 Alpha virt. eigenvalues --    1.55266   1.56501   1.60936   1.62173   1.65237
 Alpha virt. eigenvalues --    1.66820   1.69276   1.70153   1.73495   1.77726
 Alpha virt. eigenvalues --    1.78710   1.81239   1.84687   1.88441   1.89130
 Alpha virt. eigenvalues --    1.91048   1.92000   1.93193   1.95432   1.97040
 Alpha virt. eigenvalues --    1.98605   2.00423   2.01942   2.03571   2.04342
 Alpha virt. eigenvalues --    2.04876   2.06515   2.07211   2.08698   2.12098
 Alpha virt. eigenvalues --    2.13161   2.15075   2.16094   2.16986   2.18863
 Alpha virt. eigenvalues --    2.21032   2.23771   2.25460   2.26944   2.27952
 Alpha virt. eigenvalues --    2.28321   2.28896   2.30696   2.32037   2.32953
 Alpha virt. eigenvalues --    2.33110   2.33479   2.34339   2.34876   2.36065
 Alpha virt. eigenvalues --    2.36466   2.36765   2.37840   2.38187   2.39328
 Alpha virt. eigenvalues --    2.40080   2.42801   2.43551   2.45367   2.47445
 Alpha virt. eigenvalues --    2.48520   2.50479   2.51666   2.52063   2.53293
 Alpha virt. eigenvalues --    2.53473   2.54237   2.55791   2.56360   2.57013
 Alpha virt. eigenvalues --    2.57718   2.58226   2.58888   2.59788   2.60639
 Alpha virt. eigenvalues --    2.61245   2.62251   2.64694   2.65532   2.65592
 Alpha virt. eigenvalues --    2.66809   2.67568   2.68869   2.69173   2.70769
 Alpha virt. eigenvalues --    2.72413   2.73517   2.74153   2.75851   2.76265
 Alpha virt. eigenvalues --    2.76691   2.77446   2.78220   2.78737   2.79513
 Alpha virt. eigenvalues --    2.80262   2.81603   2.81887   2.81960   2.82885
 Alpha virt. eigenvalues --    2.84020   2.84628   2.85297   2.85671   2.86187
 Alpha virt. eigenvalues --    2.87041   2.87591   2.88655   2.89822   2.90887
 Alpha virt. eigenvalues --    2.91658   2.92137   2.92573   2.93171   2.94131
 Alpha virt. eigenvalues --    2.94517   2.95344   2.95599   2.96228   2.97479
 Alpha virt. eigenvalues --    2.97728   2.98323   2.98686   3.00064   3.01559
 Alpha virt. eigenvalues --    3.01582   3.02512   3.02918   3.03106   3.04335
 Alpha virt. eigenvalues --    3.05326   3.06156   3.06205   3.08308   3.08573
 Alpha virt. eigenvalues --    3.10461   3.12218   3.12407   3.14215   3.14381
 Alpha virt. eigenvalues --    3.14752   3.15150   3.15327   3.16245   3.17200
 Alpha virt. eigenvalues --    3.19649   3.19851   3.20561   3.20970   3.22005
 Alpha virt. eigenvalues --    3.22150   3.22804   3.23581   3.24755   3.26353
 Alpha virt. eigenvalues --    3.27291   3.27760   3.29356   3.29682   3.30418
 Alpha virt. eigenvalues --    3.32791   3.33717   3.34124   3.35697   3.36598
 Alpha virt. eigenvalues --    3.38630   3.39770   3.40685   3.43690   3.44317
 Alpha virt. eigenvalues --    3.45403   3.45706   3.48114   3.48802   3.49467
 Alpha virt. eigenvalues --    3.50817   3.51552   3.53755   3.54347   3.54435
 Alpha virt. eigenvalues --    3.54764   3.55678   3.56537   3.57793   3.58290
 Alpha virt. eigenvalues --    3.59256   3.60634   3.61798   3.61865   3.62876
 Alpha virt. eigenvalues --    3.64732   3.65017   3.65675   3.66415   3.67849
 Alpha virt. eigenvalues --    3.68070   3.68413   3.69357   3.70211   3.70928
 Alpha virt. eigenvalues --    3.71951   3.75022   3.75323   3.75831   3.76702
 Alpha virt. eigenvalues --    3.77852   3.79097   3.79629   3.80670   3.82326
 Alpha virt. eigenvalues --    3.83709   3.84252   3.85101   3.86668   3.87722
 Alpha virt. eigenvalues --    3.88268   3.89189   3.89443   3.90913   3.92825
 Alpha virt. eigenvalues --    3.93257   3.94611   3.95211   3.95423   3.97276
 Alpha virt. eigenvalues --    3.97791   3.98709   4.00870   4.01543   4.01936
 Alpha virt. eigenvalues --    4.02443   4.03410   4.04932   4.05028   4.06319
 Alpha virt. eigenvalues --    4.07325   4.07818   4.08806   4.10992   4.11635
 Alpha virt. eigenvalues --    4.12534   4.12695   4.13297   4.13821   4.15613
 Alpha virt. eigenvalues --    4.16149   4.17315   4.17941   4.19110   4.20578
 Alpha virt. eigenvalues --    4.21561   4.23533   4.24730   4.26508   4.28363
 Alpha virt. eigenvalues --    4.30387   4.31272   4.34098   4.34479   4.37985
 Alpha virt. eigenvalues --    4.40970   4.43042   4.43823   4.45882   4.48126
 Alpha virt. eigenvalues --    4.50025   4.50274   4.51162   4.51760   4.53824
 Alpha virt. eigenvalues --    4.57219   4.57450   4.58332   4.60480   4.61323
 Alpha virt. eigenvalues --    4.64669   4.67177   4.67699   4.69309   4.70597
 Alpha virt. eigenvalues --    4.73688   4.75300   4.77475   4.79250   4.80962
 Alpha virt. eigenvalues --    4.81268   4.82186   4.84308   4.86293   4.87844
 Alpha virt. eigenvalues --    4.89934   4.92231   4.95742   4.98491   4.99745
 Alpha virt. eigenvalues --    5.00512   5.01790   5.04365   5.07175   5.11265
 Alpha virt. eigenvalues --    5.14391   5.16662   5.17861   5.19735   5.23579
 Alpha virt. eigenvalues --    5.24998   5.28449   5.30704   5.36832   5.42135
 Alpha virt. eigenvalues --    5.43818   5.48399   5.50540   5.56171   5.59639
 Alpha virt. eigenvalues --    5.61340   5.64864   5.67980   5.71369   5.76149
 Alpha virt. eigenvalues --    5.78342   5.84052   5.86697   5.97016   6.07236
 Alpha virt. eigenvalues --    6.10141   6.44339   6.58109   8.17839   9.46695
 Alpha virt. eigenvalues --   11.42361  12.06365  12.25267  12.65152  12.79789
 Alpha virt. eigenvalues --   12.90663  13.01772  13.39569  14.37790  14.53634
 Alpha virt. eigenvalues --   14.99121  15.45266
          Condensed to atoms (all electrons):
               1          2          3          4          5          6
     1  C    4.947341   0.489649  -0.055900  -0.019377   0.000029   0.000002
     2  C    0.489649   4.861336   0.455926  -0.058950  -0.000003  -0.000000
     3  C   -0.055900   0.455926   4.907125   0.516527   0.000012   0.000000
     4  C   -0.019377  -0.058950   0.516527   4.905092  -0.000273   0.000011
     5  C    0.000029  -0.000003   0.000012  -0.000273   4.950692   0.507488
     6  C    0.000002  -0.000000   0.000000   0.000011   0.507488   4.931727
     7  C    0.000005  -0.000000  -0.000000  -0.000003  -0.053775   0.462662
     8  C   -0.000047   0.000005   0.000001   0.000051  -0.021976  -0.063481
     9  C   -0.065259   0.005085  -0.001692   0.006451   0.005583  -0.001824
    10  C    0.006538  -0.002386   0.008430  -0.041997  -0.047079   0.008492
    11  C    0.474928  -0.033939  -0.042959  -0.068171  -0.001878   0.000244
    12  C   -0.049228  -0.034544  -0.034432   0.404969   0.007748  -0.000630
    13  C    0.008623  -0.000243   0.000193  -0.001998  -0.069029  -0.049607
    14  C   -0.001623   0.000072  -0.000507   0.007866   0.409855  -0.038670
    15  H    0.425118  -0.032582   0.004432  -0.000750  -0.000000   0.000000
    16  H   -0.043533   0.428239  -0.037647   0.004952   0.000000  -0.000000
    17  H    0.005567  -0.044581   0.437978  -0.039466  -0.000000   0.000000
    18  H   -0.001147   0.006790  -0.040336   0.450330  -0.000017   0.000001
    19  H   -0.000113   0.000003   0.000233  -0.001429  -0.001725   0.000235
    20  H   -0.000001  -0.000000   0.000001  -0.000005   0.431587  -0.026944
    21  H    0.000000   0.000000   0.000000  -0.000000  -0.041303   0.428039
    22  H   -0.000000   0.000000  -0.000000   0.000000   0.005976  -0.048355
    23  H    0.000006   0.000001   0.000000  -0.000000  -0.001237   0.007440
    24  H   -0.012503  -0.000053  -0.000068   0.000395   0.000389  -0.000123
    25  H   -0.006320  -0.000185   0.000132  -0.000126  -0.000070   0.000120
               7          8          9         10         11         12
     1  C    0.000005  -0.000047  -0.065259   0.006538   0.474928  -0.049228
     2  C   -0.000000   0.000005   0.005085  -0.002386  -0.033939  -0.034544
     3  C   -0.000000   0.000001  -0.001692   0.008430  -0.042959  -0.034432
     4  C   -0.000003   0.000051   0.006451  -0.041997  -0.068171   0.404969
     5  C   -0.053775  -0.021976   0.005583  -0.047079  -0.001878   0.007748
     6  C    0.462662  -0.063481  -0.001824   0.008492   0.000244  -0.000630
     7  C    4.824997   0.493029   0.005318  -0.002188  -0.000233   0.000080
     8  C    0.493029   4.937942  -0.064498   0.007395   0.008767  -0.001666
     9  C    0.005318  -0.064498   5.039227  -0.026765   0.323365  -0.038892
    10  C   -0.002188   0.007395  -0.026765   4.889234  -0.042891   0.467587
    11  C   -0.000233   0.008767   0.323365  -0.042891   5.107164   0.336796
    12  C    0.000080  -0.001666  -0.038892   0.467587   0.336796   5.063737
    13  C   -0.030799   0.479654   0.343623  -0.037122  -0.009100  -0.048101
    14  C   -0.029741  -0.054732  -0.041263   0.453164  -0.045945  -0.043859
    15  H    0.000001   0.000021   0.002310  -0.000052  -0.051824   0.008195
    16  H    0.000000  -0.000000  -0.000253   0.000043   0.007019  -0.000524
    17  H    0.000000   0.000000   0.000052  -0.000251  -0.000568   0.005709
    18  H   -0.000000  -0.000000  -0.000106  -0.002097   0.006296  -0.069424
    19  H    0.000010  -0.000133  -0.000363   0.422700   0.004697  -0.033891
    20  H    0.004072  -0.000633  -0.000081  -0.001192  -0.000067   0.000868
    21  H   -0.041905   0.005771   0.000059  -0.000326  -0.000005   0.000016
    22  H    0.439208  -0.041907  -0.000212   0.000041   0.000008  -0.000001
    23  H   -0.043391   0.436179   0.000239  -0.000043   0.000219  -0.000014
    24  H    0.000106  -0.013427   0.425237  -0.004810  -0.052374   0.011094
    25  H   -0.000227  -0.006019   0.394228   0.000338  -0.026239   0.003960
              13         14         15         16         17         18
     1  C    0.008623  -0.001623   0.425118  -0.043533   0.005567  -0.001147
     2  C   -0.000243   0.000072  -0.032582   0.428239  -0.044581   0.006790
     3  C    0.000193  -0.000507   0.004432  -0.037647   0.437978  -0.040336
     4  C   -0.001998   0.007866  -0.000750   0.004952  -0.039466   0.450330
     5  C   -0.069029   0.409855  -0.000000   0.000000  -0.000000  -0.000017
     6  C   -0.049607  -0.038670   0.000000  -0.000000   0.000000   0.000001
     7  C   -0.030799  -0.029741   0.000001   0.000000   0.000000  -0.000000
     8  C    0.479654  -0.054732   0.000021  -0.000000   0.000000  -0.000000
     9  C    0.343623  -0.041263   0.002310  -0.000253   0.000052  -0.000106
    10  C   -0.037122   0.453164  -0.000052   0.000043  -0.000251  -0.002097
    11  C   -0.009100  -0.045945  -0.051824   0.007019  -0.000568   0.006296
    12  C   -0.048101  -0.043859   0.008195  -0.000524   0.005709  -0.069424
    13  C    5.113867   0.332966   0.000208   0.000010  -0.000004  -0.000063
    14  C    0.332966   5.051633  -0.000026  -0.000001   0.000011   0.000709
    15  H    0.000208  -0.000026   0.510336  -0.005467  -0.000165   0.000030
    16  H    0.000010  -0.000001  -0.005467   0.503990  -0.005336  -0.000176
    17  H   -0.000004   0.000011  -0.000165  -0.005336   0.499109  -0.006699
    18  H   -0.000063   0.000709   0.000030  -0.000176  -0.006699   0.514737
    19  H    0.005419  -0.041506   0.000009  -0.000001  -0.000024   0.002350
    20  H    0.005341  -0.059247   0.000000  -0.000000   0.000000   0.000001
    21  H   -0.000356   0.006694  -0.000000   0.000000  -0.000000  -0.000000
    22  H    0.006448  -0.000844  -0.000000  -0.000000   0.000000   0.000000
    23  H   -0.062994   0.009780   0.000007  -0.000000  -0.000000   0.000000
    24  H   -0.048753   0.011183   0.000246  -0.000008  -0.000001   0.000018
    25  H   -0.022270   0.003923   0.000630  -0.000012  -0.000000   0.000010
              19         20         21         22         23         24
     1  C   -0.000113  -0.000001   0.000000  -0.000000   0.000006  -0.012503
     2  C    0.000003  -0.000000   0.000000   0.000000   0.000001  -0.000053
     3  C    0.000233   0.000001   0.000000  -0.000000   0.000000  -0.000068
     4  C   -0.001429  -0.000005  -0.000000   0.000000  -0.000000   0.000395
     5  C   -0.001725   0.431587  -0.041303   0.005976  -0.001237   0.000389
     6  C    0.000235  -0.026944   0.428039  -0.048355   0.007440  -0.000123
     7  C    0.000010   0.004072  -0.041905   0.439208  -0.043391   0.000106
     8  C   -0.000133  -0.000633   0.005771  -0.041907   0.436179  -0.013427
     9  C   -0.000363  -0.000081   0.000059  -0.000212   0.000239   0.425237
    10  C    0.422700  -0.001192  -0.000326   0.000041  -0.000043  -0.004810
    11  C    0.004697  -0.000067  -0.000005   0.000008   0.000219  -0.052374
    12  C   -0.033891   0.000868   0.000016  -0.000001  -0.000014   0.011094
    13  C    0.005419   0.005341  -0.000356   0.006448  -0.062994  -0.048753
    14  C   -0.041506  -0.059247   0.006694  -0.000844   0.009780   0.011183
    15  H    0.000009   0.000000  -0.000000  -0.000000   0.000007   0.000246
    16  H   -0.000001  -0.000000   0.000000  -0.000000  -0.000000  -0.000008
    17  H   -0.000024   0.000000  -0.000000   0.000000  -0.000000  -0.000001
    18  H    0.002350   0.000001  -0.000000   0.000000   0.000000   0.000018
    19  H    0.480989   0.002796  -0.000028  -0.000002   0.000013  -0.000018
    20  H    0.002796   0.516636  -0.005748  -0.000143   0.000031   0.000013
    21  H   -0.000028  -0.005748   0.514356  -0.006181  -0.000238  -0.000000
    22  H   -0.000002  -0.000143  -0.006181   0.499817  -0.006387   0.000000
    23  H    0.000013   0.000031  -0.000238  -0.006387   0.520856   0.000333
    24  H   -0.000018   0.000013  -0.000000   0.000000   0.000333   0.511308
    25  H    0.000048   0.000009  -0.000000  -0.000013   0.000695  -0.031900
              25
     1  C   -0.006320
     2  C   -0.000185
     3  C    0.000132
     4  C   -0.000126
     5  C   -0.000070
     6  C    0.000120
     7  C   -0.000227
     8  C   -0.006019
     9  C    0.394228
    10  C    0.000338
    11  C   -0.026239
    12  C    0.003960
    13  C   -0.022270
    14  C    0.003923
    15  H    0.000630
    16  H   -0.000012
    17  H   -0.000000
    18  H    0.000010
    19  H    0.000048
    20  H    0.000009
    21  H   -0.000000
    22  H   -0.000013
    23  H    0.000695
    24  H   -0.031900
    25  H    0.484850
 Mulliken charges:
               1
     1  C   -0.102755
     2  C   -0.039640
     3  C   -0.117450
     4  C   -0.064097
     5  C   -0.080994
     6  C   -0.116827
     7  C   -0.027228
     8  C   -0.100296
     9  C   -0.309570
    10  C   -0.054761
    11  C    0.106691
    12  C    0.044449
    13  C    0.084088
    14  C    0.070109
    15  H    0.139324
    16  H    0.148706
    17  H    0.148667
    18  H    0.138795
    19  H    0.159728
    20  H    0.132706
    21  H    0.141154
    22  H    0.152546
    23  H    0.138504
    24  H    0.203714
    25  H    0.204438
 Sum of Mulliken charges =   1.00000
 Mulliken charges with hydrogens summed into heavy atoms:
               1
     1  C    0.036569
     2  C    0.109066
     3  C    0.031217
     4  C    0.074698
     5  C    0.051712
     6  C    0.024328
     7  C    0.125318
     8  C    0.038208
     9  C    0.098583
    10  C    0.104967
    11  C    0.106691
    12  C    0.044449
    13  C    0.084088
    14  C    0.070109
 Electronic spatial extent (au):  <R**2>=           2858.0524
 Charge=              1.0000 electrons
 Dipole moment (field-independent basis, Debye):
    X=             -0.0599    Y=              0.1868    Z=             -0.0154  Tot=              0.1967
 Quadrupole moment (field-independent basis, Debye-Ang):
   XX=            -31.0633   YY=            -56.3405   ZZ=            -83.3546
   XY=              0.4372   XZ=              0.0053   YZ=              0.8608
 Traceless Quadrupole moment (field-independent basis, Debye-Ang):
   XX=             25.8562   YY=              0.5789   ZZ=            -26.4351
   XY=              0.4372   XZ=              0.0053   YZ=              0.8608
 Octapole moment (field-independent basis, Debye-Ang**2):
  XXX=             -1.5645  YYY=              5.1914  ZZZ=              0.1203  XYY=             -0.0522
  XXY=             -5.0661  XXZ=              0.1663  XZZ=              0.0276  YZZ=             -2.9602
  YYZ=              0.6957  XYZ=              0.0320
 Hexadecapole moment (field-independent basis, Debye-Ang**3):
 XXXX=          -2127.1184 YYYY=           -610.8895 ZZZZ=            -98.5489 XXXY=             -4.9195
 XXXZ=             -0.1433 YYYX=              8.3524 YYYZ=              3.9757 ZZZX=             -0.2113
 ZZZY=              0.4848 XXYY=           -509.9543 XXZZ=           -583.3594 YYZZ=           -144.7559
 XXYZ=             17.7919 YYXZ=              0.4711 ZZXY=             -2.2405
 N-N= 7.804058351944D+02 E-N=-2.796252300634D+03  KE= 5.363719733683D+02
 Unable to Open any file for archive entry.
 1\1\GINC-GADI-CPU-CLX-0712\SP\RM062X TD-FC\CC-pVTZ\C14H11(1+)\TS1578\2
 5-Jul-2022\0\\#n M062X/cc-pvtz TD EmpiricalDispersion=GD3 SP\\SP_5\\1,
 1\C,0,2.4927,1.4091,0.085\C,0,3.7015,0.6807,0.015\C,0,3.6839,-0.7201,0
 .\C,0,2.4632,-1.3689,-0.1\C,0,-2.4632,-1.4289,-0.1\C,0,-3.6839,-0.6901
 ,0.\C,0,-3.7015,0.6807,0.015\C,0,-2.4927,1.3291,0.085\C,0,0.,1.4621,0.
 165\C,0,0.,-1.4205,-0.135\C,0,1.2621,0.7057,0.04\C,0,1.2375,-0.7071,-0
 .065\C,0,-1.2621,0.6657,0.04\C,0,-1.2375,-0.7371,-0.065\H,0,2.4881,2.5
 223,0.09\H,0,4.6368,1.2654,-0.06\H,0,4.6093,-1.2337,0.07\H,0,2.4675,-2
 .3914,-0.105\H,0,0.,-2.5016,-0.14\H,0,-2.4675,-2.5714,-0.105\H,0,-4.60
 93,-1.2937,0.07\H,0,-4.6368,1.1754,-0.06\H,0,-2.4881,2.3823,0.09\H,0,-
 0.01,2.1545,-0.7096\H,0,0.01,2.1545,1.0096\\Version=ES64L-G16RevC.01\S
 tate=1-A\HF=-539.7974956\RMSD=8.668e-09\PG=C01 [X(C14H11)]\\@
 The archive entry for this job was punched.


 KNIGHT- SIRE, I'VE JUST RETURNED FROM THE FRONT
 KING-   HOW GOES THE BATTLE                    
 KNIGHT- THE SITUATION IS QUITE FLUID           
 KING-   WHAT DOES *THAT* MEAN                  
 KNIGHT- WE'RE UP THE CREEK                     
                THE WIZARD OF ID                
 Job cpu time:       0 days  3 hours 11 minutes  6.3 seconds.
 Elapsed time:       0 days  0 hours 12 minutes 16.7 seconds.
 File lengths (MBytes):  RWF=    831 Int=      0 D2E=      0 Chk=     49 Scr=      1
 Normal termination of Gaussian 16 at Mon Jul 25 21:56:54 2022.
