 Entering Gaussian System, Link 0=g16
 Initial command:
 /apps/gaussian/g16c01/g16/l1.exe "/jobfs/52583666.gadi-pbs/Gau-2477860.inp" -scrdir="/jobfs/52583666.gadi-pbs/"
 Entering Link 1 = /apps/gaussian/g16c01/g16/l1.exe PID=   2477861.
  
 Copyright (c) 1988-2019, Gaussian, Inc.  All Rights Reserved.
  
 This is part of the Gaussian(R) 16 program.  It is based on
 the Gaussian(R) 09 system (copyright 2009, Gaussian, Inc.),
 the Gaussian(R) 03 system (copyright 2003, Gaussian, Inc.),
 the Gaussian(R) 98 system (copyright 1998, Gaussian, Inc.),
 the Gaussian(R) 94 system (copyright 1995, Gaussian, Inc.),
 the Gaussian 92(TM) system (copyright 1992, Gaussian, Inc.),
 the Gaussian 90(TM) system (copyright 1990, Gaussian, Inc.),
 the Gaussian 88(TM) system (copyright 1988, Gaussian, Inc.),
 the Gaussian 86(TM) system (copyright 1986, Carnegie Mellon
 University), and the Gaussian 82(TM) system (copyright 1983,
 Carnegie Mellon University). Gaussian is a federally registered
 trademark of Gaussian, Inc.
  
 This software contains proprietary and confidential information,
 including trade secrets, belonging to Gaussian, Inc.
  
 This software is provided under written license and may be
 used, copied, transmitted, or stored only in accord with that
 written license.
  
 The following legend is applicable only to US Government
 contracts under FAR:
  
                    RESTRICTED RIGHTS LEGEND
  
 Use, reproduction and disclosure by the US Government is
 subject to restrictions as set forth in subparagraphs (a)
 and (c) of the Commercial Computer Software - Restricted
 Rights clause in FAR 52.227-19.
  
 Gaussian, Inc.
 340 Quinnipiac St., Bldg. 40, Wallingford CT 06492
  
  
 ---------------------------------------------------------------
 Warning -- This program may not be used in any manner that
 competes with the business of Gaussian, Inc. or will provide
 assistance to any competitor of Gaussian, Inc.  The licensee
 of this program is prohibited from giving any competitor of
 Gaussian, Inc. access to this program.  By using this program,
 the user acknowledges that Gaussian, Inc. is engaged in the
 business of creating and licensing software in the field of
 computational chemistry and represents and warrants to the
 licensee that it is not a competitor of Gaussian, Inc. and that
 it will not use this program in any manner prohibited above.
 ---------------------------------------------------------------
  

 Cite this work as:
 Gaussian 16, Revision C.01,
 M. J. Frisch, G. W. Trucks, H. B. Schlegel, G. E. Scuseria, 
 M. A. Robb, J. R. Cheeseman, G. Scalmani, V. Barone, 
 G. A. Petersson, H. Nakatsuji, X. Li, M. Caricato, A. V. Marenich, 
 J. Bloino, B. G. Janesko, R. Gomperts, B. Mennucci, H. P. Hratchian, 
 J. V. Ortiz, A. F. Izmaylov, J. L. Sonnenberg, D. Williams-Young, 
 F. Ding, F. Lipparini, F. Egidi, J. Goings, B. Peng, A. Petrone, 
 T. Henderson, D. Ranasinghe, V. G. Zakrzewski, J. Gao, N. Rega, 
 G. Zheng, W. Liang, M. Hada, M. Ehara, K. Toyota, R. Fukuda, 
 J. Hasegawa, M. Ishida, T. Nakajima, Y. Honda, O. Kitao, H. Nakai, 
 T. Vreven, K. Throssell, J. A. Montgomery, Jr., J. E. Peralta, 
 F. Ogliaro, M. J. Bearpark, J. J. Heyd, E. N. Brothers, K. N. Kudin, 
 V. N. Staroverov, T. A. Keith, R. Kobayashi, J. Normand, 
 K. Raghavachari, A. P. Rendell, J. C. Burant, S. S. Iyengar, 
 J. Tomasi, M. Cossi, J. M. Millam, M. Klene, C. Adamo, R. Cammi, 
 J. W. Ochterski, R. L. Martin, K. Morokuma, O. Farkas, 
 J. B. Foresman, and D. J. Fox, Gaussian, Inc., Wallingford CT, 2019.
 
 ******************************************
 Gaussian 16:  ES64L-G16RevC.01  3-Jul-2019
                25-Jul-2022 
 ******************************************
 %NProcShared=16
 Will use up to   16 processors via shared memory.
 %mem = 64GB
 ---------------------------------------------------------------
 #n M062X/6-311++G(d,p) TD(NStates=1) EmpiricalDispersion=GD3 SP
 ---------------------------------------------------------------
 1/38=1,172=1/1;
 2/12=2,17=6,18=5,40=1/2;
 3/5=4,6=6,7=1111,11=9,25=1,30=1,74=-55,124=31/1,2,3,8;
 4//1;
 5/5=2,38=5/2;
 8/6=1,10=2,108=1/1;
 9/41=1,42=1,70=2/14;
 6/7=2,8=2,9=2,10=2/1;
 99/5=1,9=1/99;
 -----
 SP_-1
 -----
 Symbolic Z-matrix:
 Charge =  1 Multiplicity = 1
 C                     2.4927    1.3481    0.003 
 C                     3.7015    0.6547   -0.001 
 C                     3.6839   -0.7311   -0.001 
 C                     2.4632   -1.4199   -0.004 
 C                    -2.4632   -1.3779   -0.004 
 C                    -3.6839   -0.6791   -0.001 
 C                    -3.7015    0.7067   -0.001 
 C                    -2.4927    1.3901    0.003 
 C                     0.        1.4621    0.008 
 C                     0.       -1.4205   -0.007 
 C                     1.2621    0.6727    0.001 
 C                     1.2375   -0.7351    0.001 
 C                    -1.2621    0.6987    0.001 
 C                    -1.2375   -0.7091    0.001 
 H                     2.4881    2.4303    0.003 
 H                     4.6368    1.1964   -0.005 
 H                     4.6093   -1.2877    0.003 
 H                     2.4675   -2.5054   -0.004 
 H                     0.       -2.5016   -0.007 
 H                    -2.4675   -2.4574   -0.004 
 H                    -4.6093   -1.2397    0.003 
 H                    -4.6368    1.2444   -0.005 
 H                    -2.4881    2.4743    0.003 
 H                    -0.001     2.1545   -0.8526 
 H                     0.001     2.1545    0.8666 
 
                          Input orientation:                          
 ---------------------------------------------------------------------
 Center     Atomic      Atomic             Coordinates (Angstroms)
 Number     Number       Type             X           Y           Z
 ---------------------------------------------------------------------
      1          6           0        2.492700    1.348100    0.003000
      2          6           0        3.701500    0.654700   -0.001000
      3          6           0        3.683900   -0.731100   -0.001000
      4          6           0        2.463200   -1.419900   -0.004000
      5          6           0       -2.463200   -1.377900   -0.004000
      6          6           0       -3.683900   -0.679100   -0.001000
      7          6           0       -3.701500    0.706700   -0.001000
      8          6           0       -2.492700    1.390100    0.003000
      9          6           0        0.000000    1.462100    0.008000
     10          6           0        0.000000   -1.420500   -0.007000
     11          6           0        1.262100    0.672700    0.001000
     12          6           0        1.237500   -0.735100    0.001000
     13          6           0       -1.262100    0.698700    0.001000
     14          6           0       -1.237500   -0.709100    0.001000
     15          1           0        2.488100    2.430300    0.003000
     16          1           0        4.636800    1.196400   -0.005000
     17          1           0        4.609300   -1.287700    0.003000
     18          1           0        2.467500   -2.505400   -0.004000
     19          1           0        0.000000   -2.501600   -0.007000
     20          1           0       -2.467500   -2.457400   -0.004000
     21          1           0       -4.609300   -1.239700    0.003000
     22          1           0       -4.636800    1.244400   -0.005000
     23          1           0       -2.488100    2.474300    0.003000
     24          1           0       -0.001000    2.154500   -0.852600
     25          1           0        0.001000    2.154500    0.866600
 ---------------------------------------------------------------------
                    Distance matrix (angstroms):
                    1          2          3          4          5
     1  C    0.000000
     2  C    1.393563   0.000000
     3  C    2.396257   1.385912   0.000000
     4  C    2.768166   2.416063   1.401629   0.000000
     5  C    5.656153   6.491148   6.181035   4.926579   0.000000
     6  C    6.500765   7.504875   7.367983   6.191578   1.406570
     7  C    6.227321   7.403183   7.524055   6.521193   2.424655
     8  C    4.985577   6.237703   6.530689   5.697113   2.768166
     9  C    2.495310   3.788546   4.287345   3.791230   3.759401
    10  C    3.725426   4.243535   3.747856   2.463202   2.463570
    11  C    1.403761   2.439467   2.799245   2.412808   4.252393
    12  C    2.432129   2.828930   2.446404   1.404036   3.756115
    13  C    3.810544   4.963795   5.148519   4.285598   2.398944
    14  C    4.259867   5.123834   4.921450   3.768347   1.396302
    15  H    1.082210   2.150607   3.380001   3.850287   6.246424
    16  H    2.149475   1.080852   2.150184   3.401406   7.552286
    17  H    3.380449   2.144070   1.079900   2.150179   7.073079
    18  H    3.853589   3.392491   2.151227   1.085509   5.057970
    19  H    4.586267   4.864501   4.087276   2.690249   2.707409
    20  H    6.251837   6.909540   6.389041   5.038671   1.079509
    21  H    7.558777   8.523976   8.308782   7.074799   2.150557
    22  H    7.130259   8.359127   8.551998   7.583436   3.406023
    23  H    5.106535   6.451520   6.954724   6.299223   3.852287
    24  H    2.756968   4.084499   4.757142   4.423657   4.388667
    25  H    2.757654   4.086053   4.758484   4.426817   4.394096
                    6          7          8          9         10
     6  C    0.000000
     7  C    1.385912   0.000000
     8  C    2.387585   1.388614   0.000000
     9  C    4.260978   3.777805   2.493745   0.000000
    10  C    3.757769   4.269206   3.756744   2.882639   0.000000
    11  C    5.127405   4.963717   3.822720   1.488656   2.444268
    12  C    4.921719   5.145145   4.293119   2.521734   1.414653
    13  C    2.786297   2.439414   1.411529   1.475034   2.466570
    14  C    2.446585   2.841793   2.445848   2.499113   1.427431
    15  H    6.911003   6.425104   5.088259   2.669846   4.584692
    16  H    8.529453   8.352668   7.132135   4.644425   5.324292
    17  H    8.315502   8.546756   7.590060   5.367222   4.611224
    18  H    6.416783   6.955153   6.307024   4.672232   2.695473
    19  H    4.110068   4.898400   4.621578   3.963728   1.081100
    20  H    2.154528   3.396218   3.847589   4.631542   2.676514
    21  H    1.081967   2.147694   3.375773   5.342789   4.612855
    22  H    2.146599   1.078853   2.149060   4.641926   5.348047
    23  H    3.372519   2.144007   1.084210   2.686115   4.621711
    24  H    4.724221   4.063871   2.743160   1.104559   3.673645
    25  H    4.728690   4.069074   2.747481   1.103002   3.680191
                   11         12         13         14         15
    11  C    0.000000
    12  C    1.408015   0.000000
    13  C    2.524334   2.881628   0.000000
    14  C    2.856111   2.475137   1.408015   0.000000
    15  H    2.142951   3.403493   4.130671   4.871954   0.000000
    16  H    3.415099   3.909727   5.919862   6.175627   2.477798
    17  H    3.879036   3.416783   6.198316   5.875360   4.280539
    18  H    3.399020   2.155664   4.916930   4.117492   4.935748
    19  H    3.416012   2.156848   3.440186   2.178193   5.523982
    20  H    4.869031   4.085752   3.378458   2.137634   6.960433
    21  H    6.174999   5.868534   3.867964   3.413294   7.990118
    22  H    5.926542   6.198859   3.418541   3.920643   7.222923
    23  H    4.160501   4.917352   2.157738   3.420240   4.976395
    24  H    2.125979   3.257653   2.106742   3.233848   2.646457
    25  H    2.129640   3.260059   2.112827   3.237800   2.647175
                   16         17         18         19         20
    16  H    0.000000
    17  H    2.484265   0.000000
    18  H    4.290593   2.463767   0.000000
    19  H    5.930862   4.766477   2.467505   0.000000
    20  H    7.988826   7.172820   4.935233   2.467898   0.000000
    21  H    9.561643   9.218725   7.189099   4.778926   2.463767
    22  H    9.273724   9.586551   8.033186   5.960909   4.290593
    23  H    7.238597   8.032791   7.025342   5.563301   4.931748
    24  H    4.810984   5.816843   5.341187   4.732262   5.298431
    25  H    4.813344   5.816440   5.343803   4.737346   5.302929
                   21         22         23         24         25
    21  H    0.000000
    22  H    2.484265   0.000000
    23  H    4.277065   2.475809   0.000000
    24  H    5.786975   4.799724   2.649526   0.000000
    25  H    5.789755   4.805950   2.653996   1.719201   0.000000
 Stoichiometry    C14H11(1+)
 Framework group  C1[X(C14H11)]
 Deg. of freedom    69
 Full point group                 C1      NOp   1
 Largest Abelian subgroup         C1      NOp   1
 Largest concise Abelian subgroup C1      NOp   1
                         Standard orientation:                         
 ---------------------------------------------------------------------
 Center     Atomic      Atomic             Coordinates (Angstroms)
 Number     Number       Type             X           Y           Z
 ---------------------------------------------------------------------
      1          6           0       -2.479757   -1.363232    0.000028
      2          6           0       -3.695143   -0.681434   -0.002454
      3          6           0       -3.690816    0.704467    0.000625
      4          6           0       -2.476770    1.404932   -0.000821
      5          6           0        2.449807    1.410118   -0.000819
      6          6           0        3.677144    0.723036    0.000652
      7          6           0        3.708016   -0.662528   -0.002427
      8          6           0        2.505817   -1.357481    0.000031
      9          6           0        0.013920   -1.453363    0.004823
     10          6           0       -0.013688    1.429131   -0.003772
     11          6           0       -1.255682   -0.676074   -0.000447
     12          6           0       -1.244567    0.731893    0.002681
     13          6           0        1.268651   -0.677897   -0.000456
     14          6           0        1.230568    0.729600    0.002671
     15          1           0       -2.464792   -2.445336   -0.002376
     16          1           0       -4.625212   -1.232057   -0.007676
     17          1           0       -4.621505    1.252168    0.005844
     18          1           0       -2.491466    2.490338    0.001591
     19          1           0       -0.024043    2.510178   -0.001370
     20          1           0        2.443767    2.489607    0.001580
     21          1           0        4.597132    1.292464    0.005915
     22          1           0        4.648423   -1.191235   -0.007604
     23          1           0        2.511601   -2.441673   -0.002378
     24          1           0        0.021550   -2.143808   -0.857313
     25          1           0        0.019554   -2.147647    0.861883
 ---------------------------------------------------------------------
 Rotational constants (GHZ):           2.1363327           0.4445859           0.3688026
 Standard basis: 6-311++G(d,p) (5D, 7F)
 There are   399 symmetry adapted cartesian basis functions of A   symmetry.
 There are   385 symmetry adapted basis functions of A   symmetry.
   385 basis functions,   603 primitive gaussians,   399 cartesian basis functions
    47 alpha electrons       47 beta electrons
       nuclear repulsion energy       781.1844937125 Hartrees.
 NAtoms=   25 NActive=   25 NUniq=   25 SFac= 1.00D+00 NAtFMM=   60 NAOKFM=F Big=F
 Integral buffers will be    131072 words long.
 Regular integral format.
 Two-electron integral symmetry is turned on.
 Nuclear repulsion after empirical dispersion term =      781.1835142699 Hartrees.
 One-electron integrals computed using PRISM.
 NBasis=   385 RedAO= T EigKep=  1.15D-06  NBF=   385
 NBsUse=   379 1.00D-06 EigRej=  8.44D-07 NBFU=   379
 ExpMin= 3.60D-02 ExpMax= 4.56D+03 ExpMxC= 6.82D+02 IAcc=3 IRadAn=         5 AccDes= 0.00D+00
 Harris functional with IExCor= 1009 and IRadAn=       5 diagonalized for initial guess.
 HarFok:  IExCor= 1009 AccDes= 0.00D+00 IRadAn=         5 IDoV= 1 UseB2=F ITyADJ=14
 ICtDFT=  3500011 ScaDFX=  1.000000  1.000000  1.000000  1.000000
 FoFCou: FMM=F IPFlag=           0 FMFlag=      100000 FMFlg1=           0
         NFxFlg=           0 DoJE=T BraDBF=F KetDBF=T FulRan=T
         wScrn=  0.000000 ICntrl=       500 IOpCl=  0 I1Cent=   200000004 NGrid=           0
         NMat0=    1 NMatS0=      1 NMatT0=    0 NMatD0=    1 NMtDS0=    0 NMtDT0=    0
 Petite list used in FoFCou.
 Requested convergence on RMS density matrix=1.00D-08 within 128 cycles.
 Requested convergence on MAX density matrix=1.00D-06.
 Requested convergence on             energy=1.00D-06.
 No special actions if energy rises.
 SCF Done:  E(RM062X) =  -539.759894366     A.U. after   15 cycles
            NFock= 15  Conv=0.45D-08     -V/T= 2.0042
 DoSCS=F DFT=T ScalE2(SS,OS)=  1.000000  1.000000
 ExpMin= 3.60D-02 ExpMax= 4.56D+03 ExpMxC= 6.82D+02 IAcc=3 IRadAn=         5 AccDes= 0.00D+00
 HarFok:  IExCor=  205 AccDes= 0.00D+00 IRadAn=         5 IDoV=-2 UseB2=F ITyADJ=14
 ICtDFT= 12500011 ScaDFX=  1.000000  1.000000  1.000000  1.000000
 Range of M.O.s used for correlation:    15   379
 NBasis=   385 NAE=    47 NBE=    47 NFC=    14 NFV=     0
 NROrb=    365 NOA=    33 NOB=    33 NVA=   332 NVB=   332

 **** Warning!!: The largest alpha MO coefficient is  0.15347826D+03

 Orbital symmetries:
       Occupied  (A) (A) (A) (A) (A) (A) (A) (A) (A) (A) (A) (A)
                 (A) (A) (A) (A) (A) (A) (A) (A) (A) (A) (A) (A)
                 (A) (A) (A) (A) (A) (A) (A) (A) (A) (A) (A) (A)
                 (A) (A) (A) (A) (A) (A) (A) (A) (A) (A) (A)
       Virtual   (A) (A) (A) (A) (A) (A) (A) (A) (A) (A) (A) (A)
                 (A) (A) (A) (A) (A) (A) (A) (A) (A) (A) (A) (A)
                 (A) (A) (A) (A) (A) (A) (A) (A) (A) (A) (A) (A)
                 (A) (A) (A) (A) (A) (A) (A) (A) (A) (A) (A) (A)
                 (A) (A) (A) (A) (A) (A) (A) (A) (A) (A) (A) (A)
                 (A) (A) (A) (A) (A) (A) (A) (A) (A) (A) (A) (A)
                 (A) (A) (A) (A) (A) (A) (A) (A) (A) (A) (A) (A)
                 (A) (A) (A) (A) (A) (A) (A) (A) (A) (A) (A) (A)
                 (A) (A) (A) (A) (A) (A) (A) (A) (A) (A) (A) (A)
                 (A) (A) (A) (A) (A) (A) (A) (A) (A) (A) (A) (A)
                 (A) (A) (A) (A) (A) (A) (A) (A) (A) (A) (A) (A)
                 (A) (A) (A) (A) (A) (A) (A) (A) (A) (A) (A) (A)
                 (A) (A) (A) (A) (A) (A) (A) (A) (A) (A) (A) (A)
                 (A) (A) (A) (A) (A) (A) (A) (A) (A) (A) (A) (A)
                 (A) (A) (A) (A) (A) (A) (A) (A) (A) (A) (A) (A)
                 (A) (A) (A) (A) (A) (A) (A) (A) (A) (A) (A) (A)
                 (A) (A) (A) (A) (A) (A) (A) (A) (A) (A) (A) (A)
                 (A) (A) (A) (A) (A) (A) (A) (A) (A) (A) (A) (A)
                 (A) (A) (A) (A) (A) (A) (A) (A) (A) (A) (A) (A)
                 (A) (A) (A) (A) (A) (A) (A) (A) (A) (A) (A) (A)
                 (A) (A) (A) (A) (A) (A) (A) (A) (A) (A) (A) (A)
                 (A) (A) (A) (A) (A) (A) (A) (A) (A) (A) (A) (A)
                 (A) (A) (A) (A) (A) (A) (A) (A) (A) (A) (A) (A)
                 (A) (A) (A) (A) (A) (A) (A) (A) (A) (A) (A) (A)
                 (A) (A) (A) (A) (A) (A) (A) (A) (A) (A) (A) (A)
                 (A) (A) (A) (A) (A) (A) (A) (A) (A) (A) (A) (A)
                 (A) (A) (A) (A) (A) (A) (A) (A) (A) (A) (A) (A)
                 (A) (A) (A) (A) (A) (A) (A) (A)
     4 initial guesses have been made.
 Convergence on wavefunction:    0.001000000000000
 Iteration     1 Dimension     4 NMult     0 NNew      4
 CISAX will form     4 AO SS matrices at one time.
 Iteration     2 Dimension     6 NMult     4 NNew      2
 Iteration     3 Dimension     8 NMult     6 NNew      2
 Iteration     4 Dimension    10 NMult     8 NNew      2
 Iteration     5 Dimension    12 NMult    10 NNew      2
 Iteration     6 Dimension    14 NMult    12 NNew      2
 ***********************************************************************
 Excited states from <AA,BB:AA,BB> singles matrix:
 ***********************************************************************
 
 Ground to excited state transition densities written to RWF  633
 Ground to excited state transition electric dipole moments (Au):
       state          X           Y           Z        Dip. S.      Osc.
         1         0.0709     -0.6406      0.0003      0.4154      0.0287
 Ground to excited state transition velocity dipole moments (Au):
       state          X           Y           Z        Dip. S.      Osc.
         1        -0.0066      0.0740     -0.0000      0.0055      0.0356
 Ground to excited state transition magnetic dipole moments (Au):
       state          X           Y           Z
         1         0.0003      0.0001      0.0683
 Ground to excited state transition velocity quadrupole moments (Au):
       state          XX          YY          ZZ          XY          XZ          YZ
         1         0.2949      0.0348     -0.0098      0.0188      0.0001      0.0002
 <0|del|b> * <b|rxdel|0> + <0|del|b> * <b|delr+rdel|0>
 Rotatory Strengths (R) in cgs (10**-40 erg-esu-cm/Gauss)
       state          XX          YY          ZZ    R(velocity)    E-M Angle
         1         0.0015     -0.0148      0.0326      0.0064       90.00
 1/2[<0|r|b>*<b|rxdel|0> + (<0|rxdel|b>*<b|r|0>)*]
 Rotatory Strengths (R) in cgs (10**-40 erg-esu-cm/Gauss)
       state          XX          YY          ZZ     R(length)
         1        -0.0164      0.0401     -0.0152      0.0028
  1/2[<0|del|b>*<b|r|0> + (<0|r|b>*<b|del|0>)*] (Au)
       state          X           Y           Z        Dip. S.   Osc.(frdel)
         1        -0.0005     -0.0474     -0.0000      0.0479      0.0319

 Excitation energies and oscillator strengths:
 
 Excited State   1:      Singlet-A      2.8186 eV  439.88 nm  f=0.0287  <S**2>=0.000
      47 -> 48         0.70390
 This state for optimization and/or second-order correction.
 Total Energy, E(TD-HF/TD-DFT) =  -539.656312180    
 Copying the excited state density for this state as the 1-particle RhoCI density.
 SavETr:  write IOETrn=   770 NScale= 10 NData=  16 NLR=1 NState=    1 LETran=      28.

 **********************************************************************

            Population analysis using the SCF Density.

 **********************************************************************

 Orbital symmetries:
       Occupied  (A) (A) (A) (A) (A) (A) (A) (A) (A) (A) (A) (A)
                 (A) (A) (A) (A) (A) (A) (A) (A) (A) (A) (A) (A)
                 (A) (A) (A) (A) (A) (A) (A) (A) (A) (A) (A) (A)
                 (A) (A) (A) (A) (A) (A) (A) (A) (A) (A) (A)
       Virtual   (A) (A) (A) (A) (A) (A) (A) (A) (A) (A) (A) (A)
                 (A) (A) (A) (A) (A) (A) (A) (A) (A) (A) (A) (A)
                 (A) (A) (A) (A) (A) (A) (A) (A) (A) (A) (A) (A)
                 (A) (A) (A) (A) (A) (A) (A) (A) (A) (A) (A) (A)
                 (A) (A) (A) (A) (A) (A) (A) (A) (A) (A) (A) (A)
                 (A) (A) (A) (A) (A) (A) (A) (A) (A) (A) (A) (A)
                 (A) (A) (A) (A) (A) (A) (A) (A) (A) (A) (A) (A)
                 (A) (A) (A) (A) (A) (A) (A) (A) (A) (A) (A) (A)
                 (A) (A) (A) (A) (A) (A) (A) (A) (A) (A) (A) (A)
                 (A) (A) (A) (A) (A) (A) (A) (A) (A) (A) (A) (A)
                 (A) (A) (A) (A) (A) (A) (A) (A) (A) (A) (A) (A)
                 (A) (A) (A) (A) (A) (A) (A) (A) (A) (A) (A) (A)
                 (A) (A) (A) (A) (A) (A) (A) (A) (A) (A) (A) (A)
                 (A) (A) (A) (A) (A) (A) (A) (A) (A) (A) (A) (A)
                 (A) (A) (A) (A) (A) (A) (A) (A) (A) (A) (A) (A)
                 (A) (A) (A) (A) (A) (A) (A) (A) (A) (A) (A) (A)
                 (A) (A) (A) (A) (A) (A) (A) (A) (A) (A) (A) (A)
                 (A) (A) (A) (A) (A) (A) (A) (A) (A) (A) (A) (A)
                 (A) (A) (A) (A) (A) (A) (A) (A) (A) (A) (A) (A)
                 (A) (A) (A) (A) (A) (A) (A) (A) (A) (A) (A) (A)
                 (A) (A) (A) (A) (A) (A) (A) (A) (A) (A) (A) (A)
                 (A) (A) (A) (A) (A) (A) (A) (A) (A) (A) (A) (A)
                 (A) (A) (A) (A) (A) (A) (A) (A) (A) (A) (A) (A)
                 (A) (A) (A) (A) (A) (A) (A) (A) (A) (A) (A) (A)
                 (A) (A) (A) (A) (A) (A) (A) (A) (A) (A) (A) (A)
                 (A) (A) (A) (A) (A) (A) (A) (A) (A) (A) (A) (A)
                 (A) (A) (A) (A) (A) (A) (A) (A) (A) (A) (A) (A)
                 (A) (A) (A) (A) (A) (A) (A) (A)
 The electronic state is 1-A.
 Alpha  occ. eigenvalues --  -10.77666 -10.73326 -10.73155 -10.72490 -10.72381
 Alpha  occ. eigenvalues --  -10.71564 -10.71178 -10.71175 -10.70980 -10.70832
 Alpha  occ. eigenvalues --  -10.70018 -10.69926 -10.69725 -10.69536  -1.16444
 Alpha  occ. eigenvalues --   -1.12466  -1.06947  -1.05729  -1.01313  -1.00193
 Alpha  occ. eigenvalues --   -0.95774  -0.91055  -0.86420  -0.85898  -0.83815
 Alpha  occ. eigenvalues --   -0.78400  -0.76024  -0.74418  -0.69564  -0.69244
 Alpha  occ. eigenvalues --   -0.68506  -0.68189  -0.68100  -0.64742  -0.64280
 Alpha  occ. eigenvalues --   -0.63066  -0.61857  -0.60043  -0.59640  -0.59089
 Alpha  occ. eigenvalues --   -0.56900  -0.55208  -0.54836  -0.52439  -0.46636
 Alpha  occ. eigenvalues --   -0.46067  -0.44479
 Alpha virt. eigenvalues --   -0.26089  -0.14670  -0.14097  -0.12773  -0.11179
 Alpha virt. eigenvalues --   -0.10086  -0.09231  -0.08003  -0.07951  -0.07476
 Alpha virt. eigenvalues --   -0.07204  -0.07144  -0.05643  -0.05581  -0.05333
 Alpha virt. eigenvalues --   -0.03827  -0.03652  -0.03281  -0.03132  -0.02163
 Alpha virt. eigenvalues --   -0.01369  -0.00931   0.00193   0.00590   0.00675
 Alpha virt. eigenvalues --    0.01056   0.01512   0.01940   0.02207   0.02291
 Alpha virt. eigenvalues --    0.02451   0.02679   0.02748   0.03277   0.03372
 Alpha virt. eigenvalues --    0.04237   0.04502   0.04697   0.05031   0.05368
 Alpha virt. eigenvalues --    0.06025   0.06292   0.06594   0.07044   0.07251
 Alpha virt. eigenvalues --    0.07893   0.08154   0.08358   0.08546   0.08928
 Alpha virt. eigenvalues --    0.09501   0.09604   0.10033   0.10815   0.11077
 Alpha virt. eigenvalues --    0.11116   0.12185   0.12246   0.12907   0.12978
 Alpha virt. eigenvalues --    0.13399   0.13518   0.14015   0.14382   0.16155
 Alpha virt. eigenvalues --    0.16329   0.16424   0.17345   0.17610   0.17766
 Alpha virt. eigenvalues --    0.18128   0.19026   0.19272   0.19643   0.19749
 Alpha virt. eigenvalues --    0.21534   0.21606   0.22710   0.23099   0.23556
 Alpha virt. eigenvalues --    0.23744   0.24572   0.25212   0.26907   0.27604
 Alpha virt. eigenvalues --    0.28850   0.29264   0.29882   0.31338   0.35813
 Alpha virt. eigenvalues --    0.36417   0.38155   0.39269   0.41152   0.41400
 Alpha virt. eigenvalues --    0.41963   0.42201   0.42983   0.43685   0.44294
 Alpha virt. eigenvalues --    0.44960   0.45010   0.46007   0.46178   0.47946
 Alpha virt. eigenvalues --    0.48527   0.48864   0.49013   0.50423   0.51206
 Alpha virt. eigenvalues --    0.51500   0.51737   0.52111   0.52876   0.53992
 Alpha virt. eigenvalues --    0.54088   0.54640   0.55679   0.55788   0.57471
 Alpha virt. eigenvalues --    0.58239   0.58816   0.61438   0.62154   0.62355
 Alpha virt. eigenvalues --    0.63204   0.63495   0.64888   0.65167   0.67206
 Alpha virt. eigenvalues --    0.70417   0.70564   0.71015   0.72404   0.72858
 Alpha virt. eigenvalues --    0.75721   0.76021   0.76250   0.76882   0.77072
 Alpha virt. eigenvalues --    0.77755   0.77842   0.78235   0.80063   0.80380
 Alpha virt. eigenvalues --    0.81246   0.81632   0.82141   0.83013   0.85169
 Alpha virt. eigenvalues --    0.87119   0.88069   0.88149   0.89517   0.90419
 Alpha virt. eigenvalues --    0.91049   0.91288   0.93230   0.94630   0.96400
 Alpha virt. eigenvalues --    0.96697   1.00371   1.01210   1.01759   1.02723
 Alpha virt. eigenvalues --    1.03184   1.03779   1.04733   1.05534   1.08762
 Alpha virt. eigenvalues --    1.19549   1.23215   1.24067   1.25191   1.28112
 Alpha virt. eigenvalues --    1.29678   1.31878   1.34239   1.35717   1.36009
 Alpha virt. eigenvalues --    1.39321   1.40121   1.40887   1.43015   1.43464
 Alpha virt. eigenvalues --    1.43543   1.44977   1.45579   1.46386   1.46667
 Alpha virt. eigenvalues --    1.47649   1.48005   1.51721   1.53640   1.55719
 Alpha virt. eigenvalues --    1.55885   1.56385   1.56555   1.57777   1.61443
 Alpha virt. eigenvalues --    1.63235   1.63472   1.63826   1.66108   1.68282
 Alpha virt. eigenvalues --    1.68361   1.68682   1.69727   1.74383   1.75973
 Alpha virt. eigenvalues --    1.77157   1.78046   1.80016   1.80135   1.80711
 Alpha virt. eigenvalues --    1.83099   1.83254   1.83599   1.83813   1.84172
 Alpha virt. eigenvalues --    1.84280   1.85880   1.86020   1.88219   1.91378
 Alpha virt. eigenvalues --    1.92013   1.94131   1.95197   1.97646   1.98198
 Alpha virt. eigenvalues --    1.99745   2.02419   2.04416   2.07255   2.11800
 Alpha virt. eigenvalues --    2.12055   2.14029   2.15224   2.19107   2.21235
 Alpha virt. eigenvalues --    2.22785   2.28600   2.30189   2.34619   2.34951
 Alpha virt. eigenvalues --    2.36198   2.38661   2.39592   2.42343   2.44605
 Alpha virt. eigenvalues --    2.46204   2.46491   2.49326   2.52921   2.53797
 Alpha virt. eigenvalues --    2.54242   2.56769   2.57850   2.58308   2.59627
 Alpha virt. eigenvalues --    2.59835   2.61601   2.62126   2.63503   2.63799
 Alpha virt. eigenvalues --    2.64765   2.65107   2.65224   2.65300   2.67849
 Alpha virt. eigenvalues --    2.68555   2.70962   2.71406   2.73354   2.74833
 Alpha virt. eigenvalues --    2.76310   2.78776   2.79723   2.82830   2.83064
 Alpha virt. eigenvalues --    2.84906   2.86297   2.92108   2.96974   2.99502
 Alpha virt. eigenvalues --    3.00069   3.05076   3.11031   3.11381   3.13059
 Alpha virt. eigenvalues --    3.20902   3.23715   3.26707   3.28221   3.30751
 Alpha virt. eigenvalues --    3.32766   3.33564   3.43408   3.45929   3.46562
 Alpha virt. eigenvalues --    3.48520   3.50132   3.56467   3.65892   3.66813
 Alpha virt. eigenvalues --    3.67454   3.94175   3.94536   3.95160   3.96238
 Alpha virt. eigenvalues --    4.04003   4.06850   4.07483   4.12516   4.35512
 Alpha virt. eigenvalues --    4.61297   4.69798   4.71603  23.45340  23.60493
 Alpha virt. eigenvalues --   23.82199  23.85457  23.87913  23.89179  23.90491
 Alpha virt. eigenvalues --   23.92470  23.97701  23.99369  23.99920  24.00510
 Alpha virt. eigenvalues --   24.10394  24.10817
          Condensed to atoms (all electrons):
               1          2          3          4          5          6
     1  C    8.523923   0.403339  -0.589554   1.864580  -0.000543  -0.095050
     2  C    0.403339   7.131007   0.356154  -0.992717  -0.025654  -0.015458
     3  C   -0.589554   0.356154   6.587634   0.707291  -0.123377   0.016703
     4  C    1.864580  -0.992717   0.707291  10.775489  -0.291501  -0.122753
     5  C   -0.000543  -0.025654  -0.123377  -0.291501  10.728938   0.771969
     6  C   -0.095050  -0.015458   0.016703  -0.122753   0.771969   6.623490
     7  C   -0.025251   0.002629  -0.013663  -0.025269  -1.042983   0.352106
     8  C    0.405990  -0.021176  -0.093136  -0.021697   1.866888  -0.527374
     9  C   -1.250004  -0.800145   0.301083  -0.239725  -0.321672   0.292326
    10  C   -1.246204   0.224103  -0.338492  -2.519705  -2.507020  -0.396413
    11  C    0.279020  -0.987206   1.053154  -0.277224  -1.495982  -0.184224
    12  C   -1.876720   1.285880  -1.362260  -1.369326  -0.285572  -0.207350
    13  C    0.175262  -0.228489  -0.161728  -1.528521  -0.357972   1.033523
    14  C   -1.069807  -0.206862  -0.208886  -0.326197  -1.296440  -1.415955
    15  H    0.365104  -0.105185  -0.000545   0.025954   0.005763   0.001234
    16  H   -0.017107   0.377809  -0.018412   0.015259  -0.001483  -0.000346
    17  H   -0.024023  -0.017344   0.376598  -0.066900   0.000189   0.000411
    18  H    0.048539   0.002755  -0.085531   0.450781   0.008571  -0.004901
    19  H   -0.046631  -0.008807   0.051955  -0.072649  -0.067243   0.051066
    20  H    0.007593   0.002140  -0.005194   0.007012   0.455143  -0.087230
    21  H   -0.001289  -0.000410   0.000392   0.000365  -0.064110   0.372607
    22  H    0.000646   0.000367  -0.000317  -0.001586   0.012023  -0.014915
    23  H    0.006021  -0.002619   0.000978   0.005795   0.026334  -0.001962
    24  H    0.031793   0.014953  -0.002688  -0.010848  -0.010325  -0.003204
    25  H    0.035985   0.014237   0.000187  -0.013681  -0.013946  -0.000327
               7          8          9         10         11         12
     1  C   -0.025251   0.405990  -1.250004  -1.246204   0.279020  -1.876720
     2  C    0.002629  -0.021176  -0.800145   0.224103  -0.987206   1.285880
     3  C   -0.013663  -0.093136   0.301083  -0.338492   1.053154  -1.362260
     4  C   -0.025269  -0.021697  -0.239725  -2.519705  -0.277224  -1.369326
     5  C   -1.042983   1.866888  -0.321672  -2.507020  -1.495982  -0.285572
     6  C    0.352106  -0.527374   0.292326  -0.396413  -0.184224  -0.207350
     7  C    7.079719   0.364501  -0.747309   0.251286  -0.235628  -0.192206
     8  C    0.364501   8.513854  -1.245007  -1.224475   0.184138  -1.065857
     9  C   -0.747309  -1.245007   9.504840   0.279377   1.650552  -1.845391
    10  C    0.251286  -1.224475   0.279377   9.199249  -0.506495   2.358930
    11  C   -0.235628   0.184138   1.650552  -0.506495  14.490477  -3.763494
    12  C   -0.192206  -1.065857  -1.845391   2.358930  -3.763494  15.728368
    13  C   -0.926304   0.293040   1.649405  -0.472227   1.178024  -4.781655
    14  C    1.288541  -1.916547  -1.814524   2.334752  -4.816057   2.937296
    15  H   -0.002756   0.005394   0.090862  -0.009145  -0.026629  -0.023997
    16  H    0.000356   0.000807   0.003426  -0.010229   0.026369  -0.033885
    17  H   -0.000387  -0.001359  -0.005093   0.020618  -0.026155   0.088199
    18  H    0.001817   0.007355  -0.025426   0.016243  -0.009690  -0.049564
    19  H   -0.006928  -0.046546   0.075418   0.422259   0.075430  -0.067373
    20  H    0.004250   0.048666  -0.025983   0.016625  -0.010895  -0.012277
    21  H   -0.017414  -0.022651  -0.005750   0.020286  -0.006368   0.005301
    22  H    0.379272  -0.021020   0.004197  -0.009324   0.002987  -0.009125
    23  H   -0.103406   0.364831   0.088382  -0.009831   0.001129   0.006652
    24  H    0.014406   0.030026   0.357550   0.002669   0.009131  -0.049225
    25  H    0.013943   0.033865   0.354788   0.007985   0.019585  -0.068703
              13         14         15         16         17         18
     1  C    0.175262  -1.069807   0.365104  -0.017107  -0.024023   0.048539
     2  C   -0.228489  -0.206862  -0.105185   0.377809  -0.017344   0.002755
     3  C   -0.161728  -0.208886  -0.000545  -0.018412   0.376598  -0.085531
     4  C   -1.528521  -0.326197   0.025954   0.015259  -0.066900   0.450781
     5  C   -0.357972  -1.296440   0.005763  -0.001483   0.000189   0.008571
     6  C    1.033523  -1.415955   0.001234  -0.000346   0.000411  -0.004901
     7  C   -0.926304   1.288541  -0.002756   0.000356  -0.000387   0.001817
     8  C    0.293040  -1.916547   0.005394   0.000807  -0.001359   0.007355
     9  C    1.649405  -1.814524   0.090862   0.003426  -0.005093  -0.025426
    10  C   -0.472227   2.334752  -0.009145  -0.010229   0.020618   0.016243
    11  C    1.178024  -4.816057  -0.026629   0.026369  -0.026155  -0.009690
    12  C   -4.781655   2.937296  -0.023997  -0.033885   0.088199  -0.049564
    13  C   14.479810  -3.776501   0.000457   0.003125  -0.006106  -0.012197
    14  C   -3.776501  15.827372   0.006429  -0.009091   0.005015  -0.012433
    15  H    0.000457   0.006429   0.439237  -0.009132   0.001525   0.000175
    16  H    0.003125  -0.009091  -0.009132   0.418982  -0.006750   0.001949
    17  H   -0.006106   0.005015   0.001525  -0.006750   0.421830  -0.009966
    18  H   -0.012197  -0.012433   0.000175   0.001949  -0.009966   0.450527
    19  H    0.079672  -0.064002   0.000372  -0.000592   0.001553  -0.006117
    20  H   -0.010571  -0.051087  -0.000128   0.000019  -0.000153   0.001303
    21  H   -0.027885   0.089320   0.000015  -0.000007   0.000010  -0.000136
    22  H    0.029730  -0.034891  -0.000132   0.000007  -0.000007   0.000012
    23  H   -0.028049  -0.022058   0.000592  -0.000120   0.000011  -0.000099
    24  H    0.005343  -0.051672  -0.000739   0.000694  -0.000182   0.000228
    25  H    0.019434  -0.069971  -0.001192   0.000530  -0.000080   0.000086
              19         20         21         22         23         24
     1  C   -0.046631   0.007593  -0.001289   0.000646   0.006021   0.031793
     2  C   -0.008807   0.002140  -0.000410   0.000367  -0.002619   0.014953
     3  C    0.051955  -0.005194   0.000392  -0.000317   0.000978  -0.002688
     4  C   -0.072649   0.007012   0.000365  -0.001586   0.005795  -0.010848
     5  C   -0.067243   0.455143  -0.064110   0.012023   0.026334  -0.010325
     6  C    0.051066  -0.087230   0.372607  -0.014915  -0.001962  -0.003204
     7  C   -0.006928   0.004250  -0.017414   0.379272  -0.103406   0.014406
     8  C   -0.046546   0.048666  -0.022651  -0.021020   0.364831   0.030026
     9  C    0.075418  -0.025983  -0.005750   0.004197   0.088382   0.357550
    10  C    0.422259   0.016625   0.020286  -0.009324  -0.009831   0.002669
    11  C    0.075430  -0.010895  -0.006368   0.002987   0.001129   0.009131
    12  C   -0.067373  -0.012277   0.005301  -0.009125   0.006652  -0.049225
    13  C    0.079672  -0.010571  -0.027885   0.029730  -0.028049   0.005343
    14  C   -0.064002  -0.051087   0.089320  -0.034891  -0.022058  -0.051672
    15  H    0.000372  -0.000128   0.000015  -0.000132   0.000592  -0.000739
    16  H   -0.000592   0.000019  -0.000007   0.000007  -0.000120   0.000694
    17  H    0.001553  -0.000153   0.000010  -0.000007   0.000011  -0.000182
    18  H   -0.006117   0.001303  -0.000136   0.000012  -0.000099   0.000228
    19  H    0.443152  -0.006350   0.001311  -0.000499   0.000250   0.000296
    20  H   -0.006350   0.456384  -0.010468   0.001919   0.000169   0.000280
    21  H    0.001311  -0.010468   0.423109  -0.006608   0.001438  -0.000207
    22  H   -0.000499   0.001919  -0.006608   0.420041  -0.008959   0.000735
    23  H    0.000250   0.000169   0.001438  -0.008959   0.438586  -0.000683
    24  H    0.000296   0.000280  -0.000207   0.000735  -0.000683   0.492434
    25  H    0.000894   0.000131  -0.000095   0.000557  -0.001010  -0.079450
              25
     1  C    0.035985
     2  C    0.014237
     3  C    0.000187
     4  C   -0.013681
     5  C   -0.013946
     6  C   -0.000327
     7  C    0.013943
     8  C    0.033865
     9  C    0.354788
    10  C    0.007985
    11  C    0.019585
    12  C   -0.068703
    13  C    0.019434
    14  C   -0.069971
    15  H   -0.001192
    16  H    0.000530
    17  H   -0.000080
    18  H    0.000086
    19  H    0.000894
    20  H    0.000131
    21  H   -0.000095
    22  H    0.000557
    23  H   -0.001010
    24  H   -0.079450
    25  H    0.494799
 Mulliken charges:
               1
     1  C    0.094389
     2  C   -0.403300
     3  C   -0.448349
     4  C    0.027776
     5  C    0.030003
     6  C   -0.437973
     7  C   -0.413322
     8  C    0.087490
     9  C   -0.326175
    10  C    0.095178
    11  C   -0.623950
    12  C    0.653351
    13  C   -0.628623
    14  C    0.674256
    15  H    0.236465
    16  H    0.257822
    17  H    0.248545
    18  H    0.225715
    19  H    0.190108
    20  H    0.218704
    21  H    0.249243
    22  H    0.254890
    23  H    0.237628
    24  H    0.248682
    25  H    0.251448
 Sum of Mulliken charges =   1.00000
 Mulliken charges with hydrogens summed into heavy atoms:
               1
     1  C    0.330854
     2  C   -0.145479
     3  C   -0.199803
     4  C    0.253491
     5  C    0.248707
     6  C   -0.188730
     7  C   -0.158433
     8  C    0.325118
     9  C    0.173954
    10  C    0.285286
    11  C   -0.623950
    12  C    0.653351
    13  C   -0.628623
    14  C    0.674256
 Electronic spatial extent (au):  <R**2>=           2856.0886
 Charge=              1.0000 electrons
 Dipole moment (field-independent basis, Debye):
    X=             -0.1898    Y=              0.1875    Z=             -0.0026  Tot=              0.2668
 Quadrupole moment (field-independent basis, Debye-Ang):
   XX=            -31.1072   YY=            -56.2659   ZZ=            -84.1423
   XY=             -0.1915   XZ=             -0.0019   YZ=              0.0283
 Traceless Quadrupole moment (field-independent basis, Debye-Ang):
   XX=             26.0646   YY=              0.9059   ZZ=            -26.9705
   XY=             -0.1915   XZ=             -0.0019   YZ=              0.0283
 Octapole moment (field-independent basis, Debye-Ang**2):
  XXX=             -2.4243  YYY=              5.2114  ZZZ=              0.0142  XYY=             -0.5020
  XXY=             -5.1759  XXZ=             -0.0277  XZZ=             -0.1581  YZZ=             -3.0889
  YYZ=              0.0326  XYZ=              0.0044
 Hexadecapole moment (field-independent basis, Debye-Ang**3):
 XXXX=          -2122.5094 YYYY=           -609.2482 ZZZZ=            -99.3346 XXXY=             -1.1279
 XXXZ=             -0.0135 YYYX=             -1.3094 YYYZ=              0.0940 ZZZX=             -0.0028
 ZZZY=             -0.0190 XXYY=           -507.7318 XXZZ=           -590.7961 YYZZ=           -145.7002
 XXYZ=              0.8831 YYXZ=             -0.0037 ZZXY=             -0.1503
 N-N= 7.811835142699D+02 E-N=-2.798708391026D+03  KE= 5.375055198985D+02
 Unable to Open any file for archive entry.
 1\1\GINC-GADI-CPU-CLX-0215\SP\RM062X TD-FC\6-311++G(d,p)\C14H11(1+)\TS
 1578\25-Jul-2022\0\\#n M062X/6-311++G(d,p) TD(NStates=1) EmpiricalDisp
 ersion=GD3 SP\\SP_-1\\1,1\C,0,2.4927,1.3481,0.003\C,0,3.7015,0.6547,-0
 .001\C,0,3.6839,-0.7311,-0.001\C,0,2.4632,-1.4199,-0.004\C,0,-2.4632,-
 1.3779,-0.004\C,0,-3.6839,-0.6791,-0.001\C,0,-3.7015,0.7067,-0.001\C,0
 ,-2.4927,1.3901,0.003\C,0,0.,1.4621,0.008\C,0,0.,-1.4205,-0.007\C,0,1.
 2621,0.6727,0.001\C,0,1.2375,-0.7351,0.001\C,0,-1.2621,0.6987,0.001\C,
 0,-1.2375,-0.7091,0.001\H,0,2.4881,2.4303,0.003\H,0,4.6368,1.1964,-0.0
 05\H,0,4.6093,-1.2877,0.003\H,0,2.4675,-2.5054,-0.004\H,0,0.,-2.5016,-
 0.007\H,0,-2.4675,-2.4574,-0.004\H,0,-4.6093,-1.2397,0.003\H,0,-4.6368
 ,1.2444,-0.005\H,0,-2.4881,2.4743,0.003\H,0,-0.001,2.1545,-0.8526\H,0,
 0.001,2.1545,0.8666\\Version=ES64L-G16RevC.01\State=1-A\HF=-539.759894
 4\RMSD=4.506e-09\PG=C01 [X(C14H11)]\\@
 The archive entry for this job was punched.



 WE LOSE BECAUSE WE WIN

 GAMBLERS,

 RECOLLECTING WHICH,

 TOSS THEIR DICE AGAIN....


                          EMILY DICKINSON  BOLTS OF MELODY NO. 533
 Job cpu time:       0 days  0 hours 59 minutes 59.3 seconds.
 Elapsed time:       0 days  0 hours  3 minutes 48.4 seconds.
 File lengths (MBytes):  RWF=    460 Int=      0 D2E=      0 Chk=     15 Scr=      1
 Normal termination of Gaussian 16 at Mon Jul 25 20:19:53 2022.
