 Entering Gaussian System, Link 0=g16
 Initial command:
 /apps/gaussian/g16c01/g16/l1.exe "/jobfs/52583666.gadi-pbs/Gau-2506204.inp" -scrdir="/jobfs/52583666.gadi-pbs/"
 Entering Link 1 = /apps/gaussian/g16c01/g16/l1.exe PID=   2506205.
  
 Copyright (c) 1988-2019, Gaussian, Inc.  All Rights Reserved.
  
 This is part of the Gaussian(R) 16 program.  It is based on
 the Gaussian(R) 09 system (copyright 2009, Gaussian, Inc.),
 the Gaussian(R) 03 system (copyright 2003, Gaussian, Inc.),
 the Gaussian(R) 98 system (copyright 1998, Gaussian, Inc.),
 the Gaussian(R) 94 system (copyright 1995, Gaussian, Inc.),
 the Gaussian 92(TM) system (copyright 1992, Gaussian, Inc.),
 the Gaussian 90(TM) system (copyright 1990, Gaussian, Inc.),
 the Gaussian 88(TM) system (copyright 1988, Gaussian, Inc.),
 the Gaussian 86(TM) system (copyright 1986, Carnegie Mellon
 University), and the Gaussian 82(TM) system (copyright 1983,
 Carnegie Mellon University). Gaussian is a federally registered
 trademark of Gaussian, Inc.
  
 This software contains proprietary and confidential information,
 including trade secrets, belonging to Gaussian, Inc.
  
 This software is provided under written license and may be
 used, copied, transmitted, or stored only in accord with that
 written license.
  
 The following legend is applicable only to US Government
 contracts under FAR:
  
                    RESTRICTED RIGHTS LEGEND
  
 Use, reproduction and disclosure by the US Government is
 subject to restrictions as set forth in subparagraphs (a)
 and (c) of the Commercial Computer Software - Restricted
 Rights clause in FAR 52.227-19.
  
 Gaussian, Inc.
 340 Quinnipiac St., Bldg. 40, Wallingford CT 06492
  
  
 ---------------------------------------------------------------
 Warning -- This program may not be used in any manner that
 competes with the business of Gaussian, Inc. or will provide
 assistance to any competitor of Gaussian, Inc.  The licensee
 of this program is prohibited from giving any competitor of
 Gaussian, Inc. access to this program.  By using this program,
 the user acknowledges that Gaussian, Inc. is engaged in the
 business of creating and licensing software in the field of
 computational chemistry and represents and warrants to the
 licensee that it is not a competitor of Gaussian, Inc. and that
 it will not use this program in any manner prohibited above.
 ---------------------------------------------------------------
  

 Cite this work as:
 Gaussian 16, Revision C.01,
 M. J. Frisch, G. W. Trucks, H. B. Schlegel, G. E. Scuseria, 
 M. A. Robb, J. R. Cheeseman, G. Scalmani, V. Barone, 
 G. A. Petersson, H. Nakatsuji, X. Li, M. Caricato, A. V. Marenich, 
 J. Bloino, B. G. Janesko, R. Gomperts, B. Mennucci, H. P. Hratchian, 
 J. V. Ortiz, A. F. Izmaylov, J. L. Sonnenberg, D. Williams-Young, 
 F. Ding, F. Lipparini, F. Egidi, J. Goings, B. Peng, A. Petrone, 
 T. Henderson, D. Ranasinghe, V. G. Zakrzewski, J. Gao, N. Rega, 
 G. Zheng, W. Liang, M. Hada, M. Ehara, K. Toyota, R. Fukuda, 
 J. Hasegawa, M. Ishida, T. Nakajima, Y. Honda, O. Kitao, H. Nakai, 
 T. Vreven, K. Throssell, J. A. Montgomery, Jr., J. E. Peralta, 
 F. Ogliaro, M. J. Bearpark, J. J. Heyd, E. N. Brothers, K. N. Kudin, 
 V. N. Staroverov, T. A. Keith, R. Kobayashi, J. Normand, 
 K. Raghavachari, A. P. Rendell, J. C. Burant, S. S. Iyengar, 
 J. Tomasi, M. Cossi, J. M. Millam, M. Klene, C. Adamo, R. Cammi, 
 J. W. Ochterski, R. L. Martin, K. Morokuma, O. Farkas, 
 J. B. Foresman, and D. J. Fox, Gaussian, Inc., Wallingford CT, 2019.
 
 ******************************************
 Gaussian 16:  ES64L-G16RevC.01  3-Jul-2019
                25-Jul-2022 
 ******************************************
 %NProcShared=16
 Will use up to   16 processors via shared memory.
 %mem = 64GB
 ---------------------------------------------------------------
 #n M062X/6-311++G(d,p) TD(NStates=1) EmpiricalDispersion=GD3 SP
 ---------------------------------------------------------------
 1/38=1,172=1/1;
 2/12=2,17=6,18=5,40=1/2;
 3/5=4,6=6,7=1111,11=9,25=1,30=1,74=-55,124=31/1,2,3,8;
 4//1;
 5/5=2,38=5/2;
 8/6=1,10=2,108=1/1;
 9/41=1,42=1,70=2/14;
 6/7=2,8=2,9=2,10=2/1;
 99/5=1,9=1/99;
 ----
 SP_3
 ----
 Symbolic Z-matrix:
 Charge =  1 Multiplicity = 1
 C                     2.4927    1.4321   -0.009 
 C                     3.7015    0.7587    0.003 
 C                     3.6839   -0.6271    0.003 
 C                     2.4632   -1.3359    0.012 
 C                    -2.4632   -1.4619    0.012 
 C                    -3.6839   -0.7831    0.003 
 C                    -3.7015    0.6027    0.003 
 C                    -2.4927    1.3061   -0.009 
 C                     0.        1.4621   -0.024 
 C                     0.       -1.4205    0.021 
 C                     1.2621    0.7247   -0.003 
 C                     1.2375   -0.6831   -0.003 
 C                    -1.2621    0.6467   -0.003 
 C                    -1.2375   -0.7611   -0.003 
 H                     2.4881    2.5183   -0.009 
 H                     4.6368    1.2924    0.015 
 H                     4.6093   -1.1917   -0.009 
 H                     2.4675   -2.4094    0.012 
 H                     0.       -2.5016    0.021 
 H                    -2.4675   -2.5534    0.012 
 H                    -4.6093   -1.3357   -0.009 
 H                    -4.6368    1.1484    0.015 
 H                    -2.4881    2.3863   -0.009 
 H                     0.003     2.1545   -0.8806 
 H                    -0.003     2.1545    0.8386 
 
                          Input orientation:                          
 ---------------------------------------------------------------------
 Center     Atomic      Atomic             Coordinates (Angstroms)
 Number     Number       Type             X           Y           Z
 ---------------------------------------------------------------------
      1          6           0        2.492700    1.432100   -0.009000
      2          6           0        3.701500    0.758700    0.003000
      3          6           0        3.683900   -0.627100    0.003000
      4          6           0        2.463200   -1.335900    0.012000
      5          6           0       -2.463200   -1.461900    0.012000
      6          6           0       -3.683900   -0.783100    0.003000
      7          6           0       -3.701500    0.602700    0.003000
      8          6           0       -2.492700    1.306100   -0.009000
      9          6           0        0.000000    1.462100   -0.024000
     10          6           0        0.000000   -1.420500    0.021000
     11          6           0        1.262100    0.724700   -0.003000
     12          6           0        1.237500   -0.683100   -0.003000
     13          6           0       -1.262100    0.646700   -0.003000
     14          6           0       -1.237500   -0.761100   -0.003000
     15          1           0        2.488100    2.518300   -0.009000
     16          1           0        4.636800    1.292400    0.015000
     17          1           0        4.609300   -1.191700   -0.009000
     18          1           0        2.467500   -2.409400    0.012000
     19          1           0        0.000000   -2.501600    0.021000
     20          1           0       -2.467500   -2.553400    0.012000
     21          1           0       -4.609300   -1.335700   -0.009000
     22          1           0       -4.636800    1.148400    0.015000
     23          1           0       -2.488100    2.386300   -0.009000
     24          1           0        0.003000    2.154500   -0.880600
     25          1           0       -0.003000    2.154500    0.838600
 ---------------------------------------------------------------------
                    Distance matrix (angstroms):
                    1          2          3          4          5
     1  C    0.000000
     2  C    1.383766   0.000000
     3  C    2.378951   1.385912   0.000000
     4  C    2.768237   2.433273   1.411590   0.000000
     5  C    5.739044   6.552455   6.203532   4.928011   0.000000
     6  C    6.561832   7.544619   7.369451   6.171913   1.396767
     7  C    6.249493   7.404643   7.487092   6.462335   2.407497
     8  C    4.986992   6.218352   6.472078   5.616186   2.768237
     9  C    2.492926   3.767838   4.235163   3.727929   3.823405
    10  C    3.788374   4.295386   3.768412   2.464669   2.463564
    11  C    1.419446   2.439644   2.773538   2.385150   4.319642
    12  C    2.459600   2.854841   2.447048   1.388781   3.781790
    13  C    3.836067   4.964867   5.107398   4.220046   2.426739
    14  C    4.327188   5.167548   4.923228   3.745104   1.411980
    15  H    1.086210   2.137446   3.365059   3.854338   6.352779
    16  H    2.148780   1.076924   2.143045   3.410646   7.615522
    17  H    3.371101   2.151350   1.084104   2.151042   7.077691
    18  H    3.841640   3.399955   2.157847   1.073509   5.020912
    19  H    4.657086   4.932645   4.133424   2.725122   2.673651
    20  H    6.363037   7.001903   6.445963   5.078790   1.091508
    21  H    7.622278   8.570651   8.323426   7.072531   2.149910
    22  H    7.135183   8.347410   8.508031   7.522085   3.396794
    23  H    5.071377   6.400029   6.868356   6.194400   3.848338
    24  H    2.734987   4.050668   4.697560   4.362592   4.467351
    25  H    2.732912   4.045962   4.693480   4.352965   4.451314
                    6          7          8          9         10
     6  C    0.000000
     7  C    1.385912   0.000000
     8  C    2.404965   1.398611   0.000000
     9  C    4.314252   3.800053   2.497622   0.000000
    10  C    3.738679   4.218384   3.694428   2.882951   0.000000
    11  C    5.170727   4.965103   3.799551   1.461881   2.489047
    12  C    4.922420   5.103630   4.227451   2.476637   1.440743
    13  C    2.812380   2.439804   1.396145   1.502736   2.422145
    14  C    2.446506   2.816253   2.418446   2.544497   1.402423
    15  H    6.999498   6.479260   5.126187   2.703040   4.658936
    16  H    8.575657   8.366784   7.129554   4.640068   5.372130
    17  H    8.303268   8.502318   7.528440   5.318696   4.615073
    18  H    6.362755   6.865085   6.197497   4.591118   2.658300
    19  H    4.065057   4.830953   4.551157   3.963955   1.081100
    20  H    2.147946   3.388776   3.859639   4.713183   2.715161
    21  H    1.077903   2.140476   3.385130   5.391990   4.610178
    22  H    2.153800   1.082921   2.150026   4.647563   5.300868
    23  H    3.387503   2.157247   1.080210   2.654244   4.547886
    24  H    4.796194   4.112439   2.776326   1.101449   3.686939
    25  H    4.782964   4.096976   2.763479   1.106122   3.667302
                   11         12         13         14         15
    11  C    0.000000
    12  C    1.408015   0.000000
    13  C    2.525405   2.831319   0.000000
    14  C    2.907852   2.476229   1.408015   0.000000
    15  H    2.172582   3.437004   4.191291   4.963325   0.000000
    16  H    3.422164   3.931687   5.934162   6.222908   2.473928
    17  H    3.856990   3.409948   6.152486   5.862638   4.273592
    18  H    3.357945   2.119726   4.821814   4.055138   4.927788
    19  H    3.464460   2.199756   3.391941   2.135725   5.602762
    20  H    4.965489   4.150334   3.419628   2.173813   7.090878
    21  H    6.222429   5.883111   3.890205   3.420415   8.076286
    22  H    5.914124   6.153220   3.411836   3.898943   7.255439
    23  H    4.101823   4.827147   2.128220   3.386763   4.977950
    24  H    2.097580   3.216543   2.155022   3.287818   2.658526
    25  H    2.086408   3.209222   2.137074   3.276126   2.656380
                   16         17         18         19         20
    16  H    0.000000
    17  H    2.484368   0.000000
    18  H    4.290594   2.463847   0.000000
    19  H    5.991192   4.791908   2.469238   0.000000
    20  H    8.078444   7.206647   4.937100   2.468060   0.000000
    21  H    9.612380   9.219725   7.157819   4.754563   2.463847
    22  H    9.274718   9.537663   7.945378   5.901055   4.290594
    23  H    7.208425   7.948281   6.896169   5.484807   4.939788
    24  H    4.797647   5.759752   5.263048   4.742590   5.391143
    25  H    4.790540   5.760971   5.255076   4.727340   5.377857
                   21         22         23         24         25
    21  H    0.000000
    22  H    2.484368   0.000000
    23  H    4.284014   2.479896   0.000000
    24  H    5.849316   4.831364   2.649339   0.000000
    25  H    5.841055   4.812760   2.635883   1.719210   0.000000
 Stoichiometry    C14H11(1+)
 Framework group  C1[X(C14H11)]
 Deg. of freedom    69
 Full point group                 C1      NOp   1
 Largest Abelian subgroup         C1      NOp   1
 Largest concise Abelian subgroup C1      NOp   1
                         Standard orientation:                         
 ---------------------------------------------------------------------
 Center     Atomic      Atomic             Coordinates (Angstroms)
 Number     Number       Type             X           Y           Z
 ---------------------------------------------------------------------
      1          6           0        2.532551   -1.351272    0.000021
      2          6           0        3.721512   -0.643370   -0.007321
      3          6           0        3.664122    0.741322    0.001912
      4          6           0        2.423569    1.414817   -0.002535
      5          6           0       -2.504418    1.399285   -0.002387
      6          6           0       -3.705120    0.685664    0.001918
      7          6           0       -3.682914   -0.700039   -0.007320
      8          6           0       -2.454411   -1.368499    0.000161
      9          6           0        0.041741   -1.452945    0.014471
     10          6           0       -0.041045    1.428702   -0.011317
     11          6           0        1.282143   -0.679480   -0.001437
     12          6           0        1.217123    0.727001    0.007942
     13          6           0       -1.243256   -0.674005   -0.001271
     14          6           0       -1.259097    0.733890    0.008114
     15          1           0        2.559147   -2.437132   -0.007218
     16          1           0        4.671753   -1.149898   -0.022746
     17          1           0        4.572926    1.332172    0.017804
     18          1           0        2.397038    2.487974    0.004619
     19          1           0       -0.072093    2.509332   -0.004112
     20          1           0       -2.540062    2.490187    0.004887
     21          1           0       -4.646007    1.211368    0.017470
     22          1           0       -4.602157   -1.272282   -0.023088
     23          1           0       -2.418792   -2.448097   -0.007037
     24          1           0        0.064669   -2.150668    0.866438
     25          1           0        0.058583   -2.139380   -0.852724
 ---------------------------------------------------------------------
 Rotational constants (GHZ):           2.1372686           0.4443281           0.3686573
 Standard basis: 6-311++G(d,p) (5D, 7F)
 There are   399 symmetry adapted cartesian basis functions of A   symmetry.
 There are   385 symmetry adapted basis functions of A   symmetry.
   385 basis functions,   603 primitive gaussians,   399 cartesian basis functions
    47 alpha electrons       47 beta electrons
       nuclear repulsion energy       781.1201930391 Hartrees.
 NAtoms=   25 NActive=   25 NUniq=   25 SFac= 1.00D+00 NAtFMM=   60 NAOKFM=F Big=F
 Integral buffers will be    131072 words long.
 Regular integral format.
 Two-electron integral symmetry is turned on.
 Nuclear repulsion after empirical dispersion term =      781.1192140055 Hartrees.
 One-electron integrals computed using PRISM.
 NBasis=   385 RedAO= T EigKep=  1.37D-06  NBF=   385
 NBsUse=   379 1.00D-06 EigRej=  8.65D-07 NBFU=   379
 ExpMin= 3.60D-02 ExpMax= 4.56D+03 ExpMxC= 6.82D+02 IAcc=3 IRadAn=         5 AccDes= 0.00D+00
 Harris functional with IExCor= 1009 and IRadAn=       5 diagonalized for initial guess.
 HarFok:  IExCor= 1009 AccDes= 0.00D+00 IRadAn=         5 IDoV= 1 UseB2=F ITyADJ=14
 ICtDFT=  3500011 ScaDFX=  1.000000  1.000000  1.000000  1.000000
 FoFCou: FMM=F IPFlag=           0 FMFlag=      100000 FMFlg1=           0
         NFxFlg=           0 DoJE=T BraDBF=F KetDBF=T FulRan=T
         wScrn=  0.000000 ICntrl=       500 IOpCl=  0 I1Cent=   200000004 NGrid=           0
         NMat0=    1 NMatS0=      1 NMatT0=    0 NMatD0=    1 NMtDS0=    0 NMtDT0=    0
 Petite list used in FoFCou.
 Requested convergence on RMS density matrix=1.00D-08 within 128 cycles.
 Requested convergence on MAX density matrix=1.00D-06.
 Requested convergence on             energy=1.00D-06.
 No special actions if energy rises.
 SCF Done:  E(RM062X) =  -539.757210819     A.U. after   15 cycles
            NFock= 15  Conv=0.61D-08     -V/T= 2.0042
 DoSCS=F DFT=T ScalE2(SS,OS)=  1.000000  1.000000
 ExpMin= 3.60D-02 ExpMax= 4.56D+03 ExpMxC= 6.82D+02 IAcc=3 IRadAn=         5 AccDes= 0.00D+00
 HarFok:  IExCor=  205 AccDes= 0.00D+00 IRadAn=         5 IDoV=-2 UseB2=F ITyADJ=14
 ICtDFT= 12500011 ScaDFX=  1.000000  1.000000  1.000000  1.000000
 Range of M.O.s used for correlation:    15   379
 NBasis=   385 NAE=    47 NBE=    47 NFC=    14 NFV=     0
 NROrb=    365 NOA=    33 NOB=    33 NVA=   332 NVB=   332

 **** Warning!!: The largest alpha MO coefficient is  0.14475560D+03

 Orbital symmetries:
       Occupied  (A) (A) (A) (A) (A) (A) (A) (A) (A) (A) (A) (A)
                 (A) (A) (A) (A) (A) (A) (A) (A) (A) (A) (A) (A)
                 (A) (A) (A) (A) (A) (A) (A) (A) (A) (A) (A) (A)
                 (A) (A) (A) (A) (A) (A) (A) (A) (A) (A) (A)
       Virtual   (A) (A) (A) (A) (A) (A) (A) (A) (A) (A) (A) (A)
                 (A) (A) (A) (A) (A) (A) (A) (A) (A) (A) (A) (A)
                 (A) (A) (A) (A) (A) (A) (A) (A) (A) (A) (A) (A)
                 (A) (A) (A) (A) (A) (A) (A) (A) (A) (A) (A) (A)
                 (A) (A) (A) (A) (A) (A) (A) (A) (A) (A) (A) (A)
                 (A) (A) (A) (A) (A) (A) (A) (A) (A) (A) (A) (A)
                 (A) (A) (A) (A) (A) (A) (A) (A) (A) (A) (A) (A)
                 (A) (A) (A) (A) (A) (A) (A) (A) (A) (A) (A) (A)
                 (A) (A) (A) (A) (A) (A) (A) (A) (A) (A) (A) (A)
                 (A) (A) (A) (A) (A) (A) (A) (A) (A) (A) (A) (A)
                 (A) (A) (A) (A) (A) (A) (A) (A) (A) (A) (A) (A)
                 (A) (A) (A) (A) (A) (A) (A) (A) (A) (A) (A) (A)
                 (A) (A) (A) (A) (A) (A) (A) (A) (A) (A) (A) (A)
                 (A) (A) (A) (A) (A) (A) (A) (A) (A) (A) (A) (A)
                 (A) (A) (A) (A) (A) (A) (A) (A) (A) (A) (A) (A)
                 (A) (A) (A) (A) (A) (A) (A) (A) (A) (A) (A) (A)
                 (A) (A) (A) (A) (A) (A) (A) (A) (A) (A) (A) (A)
                 (A) (A) (A) (A) (A) (A) (A) (A) (A) (A) (A) (A)
                 (A) (A) (A) (A) (A) (A) (A) (A) (A) (A) (A) (A)
                 (A) (A) (A) (A) (A) (A) (A) (A) (A) (A) (A) (A)
                 (A) (A) (A) (A) (A) (A) (A) (A) (A) (A) (A) (A)
                 (A) (A) (A) (A) (A) (A) (A) (A) (A) (A) (A) (A)
                 (A) (A) (A) (A) (A) (A) (A) (A) (A) (A) (A) (A)
                 (A) (A) (A) (A) (A) (A) (A) (A) (A) (A) (A) (A)
                 (A) (A) (A) (A) (A) (A) (A) (A) (A) (A) (A) (A)
                 (A) (A) (A) (A) (A) (A) (A) (A) (A) (A) (A) (A)
                 (A) (A) (A) (A) (A) (A) (A) (A) (A) (A) (A) (A)
                 (A) (A) (A) (A) (A) (A) (A) (A)
     4 initial guesses have been made.
 Convergence on wavefunction:    0.001000000000000
 Iteration     1 Dimension     4 NMult     0 NNew      4
 CISAX will form     4 AO SS matrices at one time.
 Iteration     2 Dimension     6 NMult     4 NNew      2
 Iteration     3 Dimension     8 NMult     6 NNew      2
 Iteration     4 Dimension    10 NMult     8 NNew      2
 Iteration     5 Dimension    12 NMult    10 NNew      2
 Iteration     6 Dimension    14 NMult    12 NNew      2
 ***********************************************************************
 Excited states from <AA,BB:AA,BB> singles matrix:
 ***********************************************************************
 
 Ground to excited state transition densities written to RWF  633
 Ground to excited state transition electric dipole moments (Au):
       state          X           Y           Z        Dip. S.      Osc.
         1        -0.2019      0.6163     -0.0010      0.4206      0.0287
 Ground to excited state transition velocity dipole moments (Au):
       state          X           Y           Z        Dip. S.      Osc.
         1         0.0189     -0.0704      0.0001      0.0053      0.0346
 Ground to excited state transition magnetic dipole moments (Au):
       state          X           Y           Z
         1        -0.0010      0.0011     -0.1815
 Ground to excited state transition velocity quadrupole moments (Au):
       state          XX          YY          ZZ          XY          XZ          YZ
         1        -0.2772     -0.0325      0.0094     -0.0495     -0.0003     -0.0004
 <0|del|b> * <b|rxdel|0> + <0|del|b> * <b|delr+rdel|0>
 Rotatory Strengths (R) in cgs (10**-40 erg-esu-cm/Gauss)
       state          XX          YY          ZZ    R(velocity)    E-M Angle
         1        -0.4145     -0.1265     -0.2296     -0.2569       90.48
 1/2[<0|r|b>*<b|rxdel|0> + (<0|rxdel|b>*<b|r|0>)*]
 Rotatory Strengths (R) in cgs (10**-40 erg-esu-cm/Gauss)
       state          XX          YY          ZZ     R(length)
         1        -0.1387     -0.4867     -0.1225     -0.2493
  1/2[<0|del|b>*<b|r|0> + (<0|r|b>*<b|del|0>)*] (Au)
       state          X           Y           Z        Dip. S.   Osc.(frdel)
         1        -0.0038     -0.0434     -0.0000      0.0472      0.0315

 Excitation energies and oscillator strengths:
 
 Excited State   1:      Singlet-A      2.7880 eV  444.71 nm  f=0.0287  <S**2>=0.000
      47 -> 48         0.70204
 This state for optimization and/or second-order correction.
 Total Energy, E(TD-HF/TD-DFT) =  -539.654754933    
 Copying the excited state density for this state as the 1-particle RhoCI density.
 SavETr:  write IOETrn=   770 NScale= 10 NData=  16 NLR=1 NState=    1 LETran=      28.

 **********************************************************************

            Population analysis using the SCF Density.

 **********************************************************************

 Orbital symmetries:
       Occupied  (A) (A) (A) (A) (A) (A) (A) (A) (A) (A) (A) (A)
                 (A) (A) (A) (A) (A) (A) (A) (A) (A) (A) (A) (A)
                 (A) (A) (A) (A) (A) (A) (A) (A) (A) (A) (A) (A)
                 (A) (A) (A) (A) (A) (A) (A) (A) (A) (A) (A)
       Virtual   (A) (A) (A) (A) (A) (A) (A) (A) (A) (A) (A) (A)
                 (A) (A) (A) (A) (A) (A) (A) (A) (A) (A) (A) (A)
                 (A) (A) (A) (A) (A) (A) (A) (A) (A) (A) (A) (A)
                 (A) (A) (A) (A) (A) (A) (A) (A) (A) (A) (A) (A)
                 (A) (A) (A) (A) (A) (A) (A) (A) (A) (A) (A) (A)
                 (A) (A) (A) (A) (A) (A) (A) (A) (A) (A) (A) (A)
                 (A) (A) (A) (A) (A) (A) (A) (A) (A) (A) (A) (A)
                 (A) (A) (A) (A) (A) (A) (A) (A) (A) (A) (A) (A)
                 (A) (A) (A) (A) (A) (A) (A) (A) (A) (A) (A) (A)
                 (A) (A) (A) (A) (A) (A) (A) (A) (A) (A) (A) (A)
                 (A) (A) (A) (A) (A) (A) (A) (A) (A) (A) (A) (A)
                 (A) (A) (A) (A) (A) (A) (A) (A) (A) (A) (A) (A)
                 (A) (A) (A) (A) (A) (A) (A) (A) (A) (A) (A) (A)
                 (A) (A) (A) (A) (A) (A) (A) (A) (A) (A) (A) (A)
                 (A) (A) (A) (A) (A) (A) (A) (A) (A) (A) (A) (A)
                 (A) (A) (A) (A) (A) (A) (A) (A) (A) (A) (A) (A)
                 (A) (A) (A) (A) (A) (A) (A) (A) (A) (A) (A) (A)
                 (A) (A) (A) (A) (A) (A) (A) (A) (A) (A) (A) (A)
                 (A) (A) (A) (A) (A) (A) (A) (A) (A) (A) (A) (A)
                 (A) (A) (A) (A) (A) (A) (A) (A) (A) (A) (A) (A)
                 (A) (A) (A) (A) (A) (A) (A) (A) (A) (A) (A) (A)
                 (A) (A) (A) (A) (A) (A) (A) (A) (A) (A) (A) (A)
                 (A) (A) (A) (A) (A) (A) (A) (A) (A) (A) (A) (A)
                 (A) (A) (A) (A) (A) (A) (A) (A) (A) (A) (A) (A)
                 (A) (A) (A) (A) (A) (A) (A) (A) (A) (A) (A) (A)
                 (A) (A) (A) (A) (A) (A) (A) (A) (A) (A) (A) (A)
                 (A) (A) (A) (A) (A) (A) (A) (A) (A) (A) (A) (A)
                 (A) (A) (A) (A) (A) (A) (A) (A)
 The electronic state is 1-A.
 Alpha  occ. eigenvalues --  -10.77658 -10.73494 -10.72982 -10.72598 -10.72271
 Alpha  occ. eigenvalues --  -10.71953 -10.71531 -10.70984 -10.70789 -10.70495
 Alpha  occ. eigenvalues --  -10.70109 -10.69918 -10.69834 -10.69350  -1.16458
 Alpha  occ. eigenvalues --   -1.12466  -1.06961  -1.05730  -1.01308  -1.00266
 Alpha  occ. eigenvalues --   -0.95712  -0.91048  -0.86428  -0.85881  -0.83797
 Alpha  occ. eigenvalues --   -0.78414  -0.76001  -0.74414  -0.69595  -0.69244
 Alpha  occ. eigenvalues --   -0.68525  -0.68149  -0.68096  -0.64766  -0.64244
 Alpha  occ. eigenvalues --   -0.63083  -0.61778  -0.60240  -0.59453  -0.59073
 Alpha  occ. eigenvalues --   -0.56919  -0.55151  -0.54824  -0.52446  -0.46732
 Alpha  occ. eigenvalues --   -0.46127  -0.44313
 Alpha virt. eigenvalues --   -0.26097  -0.14677  -0.14100  -0.12764  -0.11182
 Alpha virt. eigenvalues --   -0.10085  -0.09237  -0.08054  -0.07905  -0.07478
 Alpha virt. eigenvalues --   -0.07212  -0.07132  -0.05645  -0.05582  -0.05337
 Alpha virt. eigenvalues --   -0.03840  -0.03701  -0.03292  -0.03121  -0.02148
 Alpha virt. eigenvalues --   -0.01375  -0.00940   0.00200   0.00580   0.00723
 Alpha virt. eigenvalues --    0.01057   0.01503   0.01932   0.02150   0.02311
 Alpha virt. eigenvalues --    0.02455   0.02738   0.02780   0.03127   0.03384
 Alpha virt. eigenvalues --    0.04216   0.04486   0.04708   0.05034   0.05389
 Alpha virt. eigenvalues --    0.05954   0.06267   0.06580   0.07044   0.07229
 Alpha virt. eigenvalues --    0.07899   0.08080   0.08335   0.08607   0.08927
 Alpha virt. eigenvalues --    0.09394   0.09702   0.09982   0.10610   0.11113
 Alpha virt. eigenvalues --    0.11233   0.12197   0.12272   0.12863   0.12971
 Alpha virt. eigenvalues --    0.13334   0.13474   0.14010   0.14376   0.15935
 Alpha virt. eigenvalues --    0.16393   0.16654   0.17300   0.17333   0.17737
 Alpha virt. eigenvalues --    0.18169   0.18827   0.19341   0.19664   0.19775
 Alpha virt. eigenvalues --    0.21420   0.21674   0.22616   0.22961   0.23458
 Alpha virt. eigenvalues --    0.23619   0.24525   0.24810   0.26859   0.27602
 Alpha virt. eigenvalues --    0.28875   0.29071   0.30009   0.31264   0.35749
 Alpha virt. eigenvalues --    0.36346   0.37948   0.39227   0.41111   0.41360
 Alpha virt. eigenvalues --    0.41939   0.42197   0.42975   0.43710   0.44304
 Alpha virt. eigenvalues --    0.44818   0.44993   0.45523   0.46196   0.47942
 Alpha virt. eigenvalues --    0.48506   0.48778   0.48989   0.50420   0.51179
 Alpha virt. eigenvalues --    0.51228   0.51839   0.52084   0.52697   0.54071
 Alpha virt. eigenvalues --    0.54126   0.54566   0.55729   0.55909   0.57488
 Alpha virt. eigenvalues --    0.58228   0.58847   0.61418   0.62019   0.62381
 Alpha virt. eigenvalues --    0.63161   0.63480   0.64310   0.65194   0.66796
 Alpha virt. eigenvalues --    0.70370   0.70419   0.70980   0.72355   0.72770
 Alpha virt. eigenvalues --    0.75330   0.75717   0.76285   0.76701   0.76963
 Alpha virt. eigenvalues --    0.77278   0.77804   0.78238   0.80273   0.80912
 Alpha virt. eigenvalues --    0.81244   0.81526   0.82165   0.83033   0.85012
 Alpha virt. eigenvalues --    0.86154   0.87105   0.87853   0.89914   0.90712
 Alpha virt. eigenvalues --    0.90895   0.91509   0.93482   0.94641   0.96202
 Alpha virt. eigenvalues --    0.96941   1.00260   1.00874   1.01976   1.02838
 Alpha virt. eigenvalues --    1.03017   1.03569   1.04753   1.06211   1.08769
 Alpha virt. eigenvalues --    1.19502   1.22749   1.24096   1.24750   1.28831
 Alpha virt. eigenvalues --    1.29656   1.32665   1.33970   1.35391   1.35986
 Alpha virt. eigenvalues --    1.38980   1.39897   1.40628   1.42935   1.43462
 Alpha virt. eigenvalues --    1.43492   1.44770   1.46233   1.46544   1.46595
 Alpha virt. eigenvalues --    1.47719   1.47964   1.51686   1.53774   1.55592
 Alpha virt. eigenvalues --    1.56099   1.56432   1.56573   1.57800   1.61446
 Alpha virt. eigenvalues --    1.63227   1.63270   1.64143   1.66098   1.68127
 Alpha virt. eigenvalues --    1.68356   1.68675   1.69689   1.74348   1.75876
 Alpha virt. eigenvalues --    1.77068   1.78026   1.79909   1.80119   1.80758
 Alpha virt. eigenvalues --    1.82867   1.83301   1.83523   1.83770   1.84168
 Alpha virt. eigenvalues --    1.84386   1.85854   1.85945   1.88213   1.91317
 Alpha virt. eigenvalues --    1.91646   1.94125   1.95249   1.97446   1.98446
 Alpha virt. eigenvalues --    1.99799   2.02396   2.04457   2.07242   2.11717
 Alpha virt. eigenvalues --    2.12113   2.13579   2.15260   2.19133   2.21138
 Alpha virt. eigenvalues --    2.22723   2.28436   2.30369   2.34433   2.34951
 Alpha virt. eigenvalues --    2.36025   2.38481   2.39634   2.42157   2.44220
 Alpha virt. eigenvalues --    2.46249   2.46544   2.49027   2.53033   2.53742
 Alpha virt. eigenvalues --    2.54298   2.56632   2.57932   2.58369   2.59550
 Alpha virt. eigenvalues --    2.59946   2.61598   2.62038   2.63271   2.63761
 Alpha virt. eigenvalues --    2.64673   2.65038   2.65126   2.65202   2.67263
 Alpha virt. eigenvalues --    2.68538   2.70987   2.71364   2.73431   2.74939
 Alpha virt. eigenvalues --    2.76355   2.78743   2.79733   2.82642   2.83147
 Alpha virt. eigenvalues --    2.85092   2.86352   2.92091   2.96750   2.99434
 Alpha virt. eigenvalues --    3.00152   3.04834   3.10430   3.11199   3.13293
 Alpha virt. eigenvalues --    3.20253   3.23768   3.26650   3.28270   3.30583
 Alpha virt. eigenvalues --    3.32504   3.33512   3.43392   3.46031   3.46382
 Alpha virt. eigenvalues --    3.48439   3.50038   3.56379   3.65980   3.66684
 Alpha virt. eigenvalues --    3.67665   3.94048   3.94146   3.95161   3.96398
 Alpha virt. eigenvalues --    4.03941   4.06438   4.07443   4.12301   4.35443
 Alpha virt. eigenvalues --    4.60808   4.69560   4.71360  23.45339  23.60235
 Alpha virt. eigenvalues --   23.81802  23.84728  23.87138  23.89444  23.90362
 Alpha virt. eigenvalues --   23.93447  23.97403  23.98675  24.00760  24.01816
 Alpha virt. eigenvalues --   24.10075  24.11310
          Condensed to atoms (all electrons):
               1          2          3          4          5          6
     1  C    8.326745   0.564018  -0.546102   1.504433   0.004083  -0.084506
     2  C    0.564018   6.872064   0.355926  -0.826333  -0.055085  -0.011973
     3  C   -0.546102   0.355926   6.723557   0.636233  -0.106780   0.016127
     4  C    1.504433  -0.826333   0.636233   9.699160   0.029818  -0.119180
     5  C    0.004083  -0.055085  -0.106780   0.029818   9.660178   0.484276
     6  C   -0.084506  -0.011973   0.016127  -0.119180   0.484276   6.650673
     7  C   -0.032454   0.006348  -0.017781  -0.051838  -0.676841   0.331524
     8  C    0.395107  -0.044870  -0.088466   0.069003   1.478940  -0.700843
     9  C   -1.517972  -0.550806   0.267184  -0.649050  -0.496871   0.316445
    10  C   -0.995098   0.205165  -0.457829  -2.143520  -2.106707  -0.313601
    11  C    0.169239  -0.982139   1.094899  -0.887900  -1.537717  -0.122952
    12  C   -1.320286   0.982313  -1.329959  -0.211338  -0.103292  -0.240855
    13  C    0.103197  -0.193522  -0.194799  -1.452685  -0.768521   1.191940
    14  C   -1.019873  -0.191060  -0.220186  -0.051864  -0.234170  -1.242802
    15  H    0.356901  -0.092508  -0.002251   0.021826   0.005581   0.000718
    16  H   -0.025653   0.380911  -0.011733   0.007795  -0.001566  -0.000301
    17  H   -0.014907  -0.022557   0.369840  -0.052329   0.000350   0.000390
    18  H    0.043842   0.007778  -0.097347   0.445213   0.011427  -0.005366
    19  H   -0.045147  -0.005843   0.051555  -0.065489  -0.074753   0.055290
    20  H    0.007793   0.001274  -0.004308   0.016130   0.428909  -0.093191
    21  H   -0.001440  -0.000350   0.000433  -0.000295  -0.058685   0.381069
    22  H    0.000981   0.000305  -0.000380  -0.001189   0.016935  -0.022388
    23  H    0.004114  -0.002871   0.001446   0.005389   0.020721   0.002599
    24  H    0.036245   0.012399   0.001920  -0.017252  -0.015544   0.003509
    25  H    0.024063   0.013554  -0.005975  -0.006312  -0.009046  -0.004674
               7          8          9         10         11         12
     1  C   -0.032454   0.395107  -1.517972  -0.995098   0.169239  -1.320286
     2  C    0.006348  -0.044870  -0.550806   0.205165  -0.982139   0.982313
     3  C   -0.017781  -0.088466   0.267184  -0.457829   1.094899  -1.329959
     4  C   -0.051838   0.069003  -0.649050  -2.143520  -0.887900  -0.211338
     5  C   -0.676841   1.478940  -0.496871  -2.106707  -1.537717  -0.103292
     6  C    0.331524  -0.700843   0.316445  -0.313601  -0.122952  -0.240855
     7  C    7.051224   0.671115  -0.706009   0.139324  -0.182231  -0.228401
     8  C    0.671115   8.357826  -1.554262  -1.066043   0.089980  -1.024353
     9  C   -0.706009  -1.554262   8.977559   0.480513   1.619718  -1.180563
    10  C    0.139324  -1.066043   0.480513   9.070796  -0.385499   1.722859
    11  C   -0.182231   0.089980   1.619718  -0.385499  14.134602  -3.466027
    12  C   -0.228401  -1.024353  -1.180563   1.722859  -3.466027  14.385902
    13  C   -1.187332   0.115891   1.638087  -0.452770   1.492409  -4.595103
    14  C    1.001146  -1.192987  -1.213253   1.738231  -4.524229   2.230652
    15  H   -0.002493   0.006110   0.074994  -0.009639  -0.019038  -0.011670
    16  H    0.000351   0.000515   0.005076  -0.009510   0.036489  -0.036546
    17  H   -0.000427  -0.001231  -0.004577   0.018491  -0.023378   0.072586
    18  H    0.002260   0.008527  -0.029012   0.029392  -0.022106  -0.042776
    19  H   -0.012220  -0.044974   0.073347   0.424450   0.080786  -0.064010
    20  H    0.003546   0.043134  -0.028421   0.030722  -0.010876  -0.004200
    21  H   -0.021248  -0.019682  -0.002351   0.018561  -0.005405   0.003287
    22  H    0.376114  -0.013731   0.002450  -0.011828   0.002677  -0.008590
    23  H   -0.098925   0.357591   0.079996  -0.007954  -0.004770   0.005699
    24  H    0.013096   0.042534   0.350771   0.012856   0.031805  -0.085394
    25  H    0.015959   0.030472   0.360198  -0.002220  -0.014409  -0.037601
              13         14         15         16         17         18
     1  C    0.103197  -1.019873   0.356901  -0.025653  -0.014907   0.043842
     2  C   -0.193522  -0.191060  -0.092508   0.380911  -0.022557   0.007778
     3  C   -0.194799  -0.220186  -0.002251  -0.011733   0.369840  -0.097347
     4  C   -1.452685  -0.051864   0.021826   0.007795  -0.052329   0.445213
     5  C   -0.768521  -0.234170   0.005581  -0.001566   0.000350   0.011427
     6  C    1.191940  -1.242802   0.000718  -0.000301   0.000390  -0.005366
     7  C   -1.187332   1.001146  -0.002493   0.000351  -0.000427   0.002260
     8  C    0.115891  -1.192987   0.006110   0.000515  -0.001231   0.008527
     9  C    1.638087  -1.213253   0.074994   0.005076  -0.004577  -0.029012
    10  C   -0.452770   1.738231  -0.009639  -0.009510   0.018491   0.029392
    11  C    1.492409  -4.524229  -0.019038   0.036489  -0.023378  -0.022106
    12  C   -4.595103   2.230652  -0.011670  -0.036546   0.072586  -0.042776
    13  C   14.133355  -3.344221  -0.002440   0.002382  -0.006145  -0.007518
    14  C   -3.344221  13.947023   0.005990  -0.008863   0.004560  -0.005979
    15  H   -0.002440   0.005990   0.438191  -0.008956   0.001401   0.000109
    16  H    0.002382  -0.008863  -0.008956   0.421506  -0.006770   0.001935
    17  H   -0.006145   0.004560   0.001401  -0.006770   0.424785  -0.010773
    18  H   -0.007518  -0.005979   0.000109   0.001935  -0.010773   0.462552
    19  H    0.074231  -0.072259   0.000166  -0.000448   0.001190  -0.006796
    20  H   -0.023059  -0.035655  -0.000076   0.000011  -0.000128   0.001400
    21  H   -0.017424   0.068484   0.000006  -0.000007   0.000011  -0.000180
    22  H    0.026521  -0.032774  -0.000106   0.000007  -0.000007   0.000029
    23  H   -0.013295  -0.015760   0.000609  -0.000142   0.000018  -0.000164
    24  H    0.025951  -0.083212  -0.001011   0.000408   0.000002   0.000053
    25  H    0.005505  -0.026989  -0.000466   0.000923  -0.000328   0.000463
              19         20         21         22         23         24
     1  C   -0.045147   0.007793  -0.001440   0.000981   0.004114   0.036245
     2  C   -0.005843   0.001274  -0.000350   0.000305  -0.002871   0.012399
     3  C    0.051555  -0.004308   0.000433  -0.000380   0.001446   0.001920
     4  C   -0.065489   0.016130  -0.000295  -0.001189   0.005389  -0.017252
     5  C   -0.074753   0.428909  -0.058685   0.016935   0.020721  -0.015544
     6  C    0.055290  -0.093191   0.381069  -0.022388   0.002599   0.003509
     7  C   -0.012220   0.003546  -0.021248   0.376114  -0.098925   0.013096
     8  C   -0.044974   0.043134  -0.019682  -0.013731   0.357591   0.042534
     9  C    0.073347  -0.028421  -0.002351   0.002450   0.079996   0.350771
    10  C    0.424450   0.030722   0.018561  -0.011828  -0.007954   0.012856
    11  C    0.080786  -0.010876  -0.005405   0.002677  -0.004770   0.031805
    12  C   -0.064010  -0.004200   0.003287  -0.008590   0.005699  -0.085394
    13  C    0.074231  -0.023059  -0.017424   0.026521  -0.013295   0.025951
    14  C   -0.072259  -0.035655   0.068484  -0.032774  -0.015760  -0.083212
    15  H    0.000166  -0.000076   0.000006  -0.000106   0.000609  -0.001011
    16  H   -0.000448   0.000011  -0.000007   0.000007  -0.000142   0.000408
    17  H    0.001190  -0.000128   0.000011  -0.000007   0.000018   0.000002
    18  H   -0.006796   0.001400  -0.000180   0.000029  -0.000164   0.000053
    19  H    0.446163  -0.005935   0.001881  -0.000719   0.000507   0.001412
    20  H   -0.005935   0.445358  -0.009264   0.002014   0.000123  -0.000080
    21  H    0.001881  -0.009264   0.420618  -0.007100   0.001663   0.000032
    22  H   -0.000719   0.002014  -0.007100   0.418265  -0.009499   0.000333
    23  H    0.000507   0.000123   0.001663  -0.009499   0.440448  -0.001846
    24  H    0.001412  -0.000080   0.000032   0.000333  -0.001846   0.494597
    25  H   -0.000214   0.000299  -0.000240   0.000800  -0.000236  -0.077900
              25
     1  C    0.024063
     2  C    0.013554
     3  C   -0.005975
     4  C   -0.006312
     5  C   -0.009046
     6  C   -0.004674
     7  C    0.015959
     8  C    0.030472
     9  C    0.360198
    10  C   -0.002220
    11  C   -0.014409
    12  C   -0.037601
    13  C    0.005505
    14  C   -0.026989
    15  H   -0.000466
    16  H    0.000923
    17  H   -0.000328
    18  H    0.000463
    19  H   -0.000214
    20  H    0.000299
    21  H   -0.000240
    22  H    0.000800
    23  H   -0.000236
    24  H   -0.077900
    25  H    0.488270
 Mulliken charges:
               1
     1  C    0.062678
     2  C   -0.422140
     3  C   -0.435225
     4  C    0.101574
     5  C    0.104359
     6  C   -0.471928
     7  C   -0.393806
     8  C    0.084693
     9  C   -0.313192
    10  C    0.070860
    11  C   -0.563931
    12  C    0.587666
    13  C   -0.550633
    14  C    0.520050
    15  H    0.238049
    16  H    0.252185
    17  H    0.249935
    18  H    0.213037
    19  H    0.187830
    20  H    0.234479
    21  H    0.247627
    22  H    0.260878
    23  H    0.234538
    24  H    0.254314
    25  H    0.246103
 Sum of Mulliken charges =   1.00000
 Mulliken charges with hydrogens summed into heavy atoms:
               1
     1  C    0.300727
     2  C   -0.169955
     3  C   -0.185290
     4  C    0.314611
     5  C    0.338838
     6  C   -0.224302
     7  C   -0.132929
     8  C    0.319232
     9  C    0.187225
    10  C    0.258690
    11  C   -0.563931
    12  C    0.587666
    13  C   -0.550633
    14  C    0.520050
 Electronic spatial extent (au):  <R**2>=           2857.0973
 Charge=              1.0000 electrons
 Dipole moment (field-independent basis, Debye):
    X=             -0.5684    Y=              0.1836    Z=             -0.0076  Tot=              0.5974
 Quadrupole moment (field-independent basis, Debye-Ang):
   XX=            -31.0260   YY=            -56.2970   ZZ=            -84.1435
   XY=             -0.5736   XZ=              0.0033   YZ=              0.0850
 Traceless Quadrupole moment (field-independent basis, Debye-Ang):
   XX=             26.1295   YY=              0.8585   ZZ=            -26.9880
   XY=             -0.5736   XZ=              0.0033   YZ=              0.0850
 Octapole moment (field-independent basis, Debye-Ang**2):
  XXX=             -7.2646  YYY=              5.1965  ZZZ=              0.0428  XYY=             -1.5038
  XXY=             -5.1777  XXZ=             -0.0818  XZZ=             -0.4730  YZZ=             -3.0897
  YYZ=              0.0969  XYZ=             -0.0170
 Hexadecapole moment (field-independent basis, Debye-Ang**3):
 XXXX=          -2122.3928 YYYY=           -609.2902 ZZZZ=            -99.3706 XXXY=             -3.3832
 XXXZ=             -0.2035 YYYX=             -3.9204 YYYZ=              0.2863 ZZZX=              0.0088
 ZZZY=             -0.0560 XXYY=           -507.8211 XXZZ=           -591.0431 YYZZ=           -145.6676
 XXYZ=              2.6438 YYXZ=              0.0849 ZZXY=             -0.4498
 N-N= 7.811192140055D+02 E-N=-2.798579469500D+03  KE= 5.375079365987D+02
 Unable to Open any file for archive entry.
 1\1\GINC-GADI-CPU-CLX-0215\SP\RM062X TD-FC\6-311++G(d,p)\C14H11(1+)\TS
 1578\25-Jul-2022\0\\#n M062X/6-311++G(d,p) TD(NStates=1) EmpiricalDisp
 ersion=GD3 SP\\SP_3\\1,1\C,0,2.4927,1.4321,-0.009\C,0,3.7015,0.7587,0.
 003\C,0,3.6839,-0.6271,0.003\C,0,2.4632,-1.3359,0.012\C,0,-2.4632,-1.4
 619,0.012\C,0,-3.6839,-0.7831,0.003\C,0,-3.7015,0.6027,0.003\C,0,-2.49
 27,1.3061,-0.009\C,0,0.,1.4621,-0.024\C,0,0.,-1.4205,0.021\C,0,1.2621,
 0.7247,-0.003\C,0,1.2375,-0.6831,-0.003\C,0,-1.2621,0.6467,-0.003\C,0,
 -1.2375,-0.7611,-0.003\H,0,2.4881,2.5183,-0.009\H,0,4.6368,1.2924,0.01
 5\H,0,4.6093,-1.1917,-0.009\H,0,2.4675,-2.4094,0.012\H,0,0.,-2.5016,0.
 021\H,0,-2.4675,-2.5534,0.012\H,0,-4.6093,-1.3357,-0.009\H,0,-4.6368,1
 .1484,0.015\H,0,-2.4881,2.3863,-0.009\H,0,0.003,2.1545,-0.8806\H,0,-0.
 003,2.1545,0.8386\\Version=ES64L-G16RevC.01\State=1-A\HF=-539.7572108\
 RMSD=6.088e-09\PG=C01 [X(C14H11)]\\@
 The archive entry for this job was punched.


 ARTHROPOD AXIOM: A COMPUTER SYSTEM IS LIKE A SPIDER'S WEB.
 YOU CANNOT PULL ON ONE END WITHOUT MAKING THE OTHER END MOVE.
     -- GREG WETTSTEIN
 Job cpu time:       0 days  1 hours  3 minutes 29.8 seconds.
 Elapsed time:       0 days  0 hours  4 minutes  3.9 seconds.
 File lengths (MBytes):  RWF=    460 Int=      0 D2E=      0 Chk=     15 Scr=      1
 Normal termination of Gaussian 16 at Mon Jul 25 20:33:59 2022.
