 Entering Gaussian System, Link 0=g16
 Initial command:
 /apps/gaussian/g16c01/g16/l1.exe "/jobfs/52583666.gadi-pbs/Gau-2457246.inp" -scrdir="/jobfs/52583666.gadi-pbs/"
 Entering Link 1 = /apps/gaussian/g16c01/g16/l1.exe PID=   2457247.
  
 Copyright (c) 1988-2019, Gaussian, Inc.  All Rights Reserved.
  
 This is part of the Gaussian(R) 16 program.  It is based on
 the Gaussian(R) 09 system (copyright 2009, Gaussian, Inc.),
 the Gaussian(R) 03 system (copyright 2003, Gaussian, Inc.),
 the Gaussian(R) 98 system (copyright 1998, Gaussian, Inc.),
 the Gaussian(R) 94 system (copyright 1995, Gaussian, Inc.),
 the Gaussian 92(TM) system (copyright 1992, Gaussian, Inc.),
 the Gaussian 90(TM) system (copyright 1990, Gaussian, Inc.),
 the Gaussian 88(TM) system (copyright 1988, Gaussian, Inc.),
 the Gaussian 86(TM) system (copyright 1986, Carnegie Mellon
 University), and the Gaussian 82(TM) system (copyright 1983,
 Carnegie Mellon University). Gaussian is a federally registered
 trademark of Gaussian, Inc.
  
 This software contains proprietary and confidential information,
 including trade secrets, belonging to Gaussian, Inc.
  
 This software is provided under written license and may be
 used, copied, transmitted, or stored only in accord with that
 written license.
  
 The following legend is applicable only to US Government
 contracts under FAR:
  
                    RESTRICTED RIGHTS LEGEND
  
 Use, reproduction and disclosure by the US Government is
 subject to restrictions as set forth in subparagraphs (a)
 and (c) of the Commercial Computer Software - Restricted
 Rights clause in FAR 52.227-19.
  
 Gaussian, Inc.
 340 Quinnipiac St., Bldg. 40, Wallingford CT 06492
  
  
 ---------------------------------------------------------------
 Warning -- This program may not be used in any manner that
 competes with the business of Gaussian, Inc. or will provide
 assistance to any competitor of Gaussian, Inc.  The licensee
 of this program is prohibited from giving any competitor of
 Gaussian, Inc. access to this program.  By using this program,
 the user acknowledges that Gaussian, Inc. is engaged in the
 business of creating and licensing software in the field of
 computational chemistry and represents and warrants to the
 licensee that it is not a competitor of Gaussian, Inc. and that
 it will not use this program in any manner prohibited above.
 ---------------------------------------------------------------
  

 Cite this work as:
 Gaussian 16, Revision C.01,
 M. J. Frisch, G. W. Trucks, H. B. Schlegel, G. E. Scuseria, 
 M. A. Robb, J. R. Cheeseman, G. Scalmani, V. Barone, 
 G. A. Petersson, H. Nakatsuji, X. Li, M. Caricato, A. V. Marenich, 
 J. Bloino, B. G. Janesko, R. Gomperts, B. Mennucci, H. P. Hratchian, 
 J. V. Ortiz, A. F. Izmaylov, J. L. Sonnenberg, D. Williams-Young, 
 F. Ding, F. Lipparini, F. Egidi, J. Goings, B. Peng, A. Petrone, 
 T. Henderson, D. Ranasinghe, V. G. Zakrzewski, J. Gao, N. Rega, 
 G. Zheng, W. Liang, M. Hada, M. Ehara, K. Toyota, R. Fukuda, 
 J. Hasegawa, M. Ishida, T. Nakajima, Y. Honda, O. Kitao, H. Nakai, 
 T. Vreven, K. Throssell, J. A. Montgomery, Jr., J. E. Peralta, 
 F. Ogliaro, M. J. Bearpark, J. J. Heyd, E. N. Brothers, K. N. Kudin, 
 V. N. Staroverov, T. A. Keith, R. Kobayashi, J. Normand, 
 K. Raghavachari, A. P. Rendell, J. C. Burant, S. S. Iyengar, 
 J. Tomasi, M. Cossi, J. M. Millam, M. Klene, C. Adamo, R. Cammi, 
 J. W. Ochterski, R. L. Martin, K. Morokuma, O. Farkas, 
 J. B. Foresman, and D. J. Fox, Gaussian, Inc., Wallingford CT, 2019.
 
 ******************************************
 Gaussian 16:  ES64L-G16RevC.01  3-Jul-2019
                25-Jul-2022 
 ******************************************
 %NProcShared=16
 Will use up to   16 processors via shared memory.
 %mem = 64GB
 ---------------------------------------------------------------
 #n M062X/6-311++G(d,p) TD(NStates=1) EmpiricalDispersion=GD3 SP
 ---------------------------------------------------------------
 1/38=1,172=1/1;
 2/12=2,17=6,18=5,40=1/2;
 3/5=4,6=6,7=1111,11=9,25=1,30=1,74=-55,124=31/1,2,3,8;
 4//1;
 5/5=2,38=5/2;
 8/6=1,10=2,108=1/1;
 9/41=1,42=1,70=2/14;
 6/7=2,8=2,9=2,10=2/1;
 99/5=1,9=1/99;
 -----
 SP_-4
 -----
 Symbolic Z-matrix:
 Charge =  1 Multiplicity = 1
 C                     2.4927    1.2851    0.012 
 C                     3.7015    0.5767   -0.004 
 C                     3.6839   -0.8091   -0.004 
 C                     2.4632   -1.4829   -0.016 
 C                    -2.4632   -1.3149   -0.016 
 C                    -3.6839   -0.6011   -0.004 
 C                    -3.7015    0.7847   -0.004 
 C                    -2.4927    1.4531    0.012 
 C                     0.        1.4621    0.032 
 C                     0.       -1.4205   -0.028 
 C                     1.2621    0.6337    0.004 
 C                     1.2375   -0.7741    0.004 
 C                    -1.2621    0.7377    0.004 
 C                    -1.2375   -0.6701    0.004 
 H                     2.4881    2.3643    0.012 
 H                     4.6368    1.1244   -0.02 
 H                     4.6093   -1.3597    0.012 
 H                     2.4675   -2.5774   -0.016 
 H                     0.       -2.5016   -0.028 
 H                    -2.4675   -2.3854   -0.016 
 H                    -4.6093   -1.1677    0.012 
 H                    -4.6368    1.3164   -0.02 
 H                    -2.4881    2.5403    0.012 
 H                    -0.004     2.1545   -0.8316 
 H                     0.004     2.1545    0.8876 
 
                          Input orientation:                          
 ---------------------------------------------------------------------
 Center     Atomic      Atomic             Coordinates (Angstroms)
 Number     Number       Type             X           Y           Z
 ---------------------------------------------------------------------
      1          6           0        2.492700    1.285100    0.012000
      2          6           0        3.701500    0.576700   -0.004000
      3          6           0        3.683900   -0.809100   -0.004000
      4          6           0        2.463200   -1.482900   -0.016000
      5          6           0       -2.463200   -1.314900   -0.016000
      6          6           0       -3.683900   -0.601100   -0.004000
      7          6           0       -3.701500    0.784700   -0.004000
      8          6           0       -2.492700    1.453100    0.012000
      9          6           0        0.000000    1.462100    0.032000
     10          6           0        0.000000   -1.420500   -0.028000
     11          6           0        1.262100    0.633700    0.004000
     12          6           0        1.237500   -0.774100    0.004000
     13          6           0       -1.262100    0.737700    0.004000
     14          6           0       -1.237500   -0.670100    0.004000
     15          1           0        2.488100    2.364300    0.012000
     16          1           0        4.636800    1.124400   -0.020000
     17          1           0        4.609300   -1.359700    0.012000
     18          1           0        2.467500   -2.577400   -0.016000
     19          1           0        0.000000   -2.501600   -0.028000
     20          1           0       -2.467500   -2.385400   -0.016000
     21          1           0       -4.609300   -1.167700    0.012000
     22          1           0       -4.636800    1.316400   -0.020000
     23          1           0       -2.488100    2.540300    0.012000
     24          1           0       -0.004000    2.154500   -0.831600
     25          1           0        0.004000    2.154500    0.887600
 ---------------------------------------------------------------------
                    Distance matrix (angstroms):
                    1          2          3          4          5
     1  C    0.000000
     2  C    1.401172   0.000000
     3  C    2.409333   1.385912   0.000000
     4  C    2.768299   2.403223   1.394367   0.000000
     5  C    5.596582   6.448397   6.167886   4.929264   0.000000
     6  C    6.458204   7.478726   7.370735   6.210037   1.414130
     7  C    6.214400   7.405921   7.555417   6.568537   2.437591
     8  C    4.988230   6.255913   6.577856   5.760367   2.768299
     9  C    2.499056   3.806091   4.327905   3.839620   3.712329
    10  C    3.679052   4.206006   3.734368   2.464019   2.465492
    11  C    1.392394   2.440079   2.819016   2.433729   4.204201
    12  C    2.411617   2.809986   2.446663   1.416029   3.740060
    13  C    3.794500   4.966217   5.182236   4.336972   2.378278
    14  C    4.211563   5.093947   4.923369   3.788961   1.385102
    15  H    1.079210   2.160581   3.391262   3.847382   6.168684
    16  H    2.150352   1.083982   2.155620   3.394491   7.507343
    17  H    3.387471   2.138692   1.076932   2.149816   7.072697
    18  H    3.862684   3.386923   2.146313   1.094508   5.089765
    19  H    4.533680   4.814313   4.054165   2.665567   2.734183
    20  H    6.170651   6.843299   6.350164   5.012615   1.070509
    21  H    7.513630   8.491913   8.300965   7.079576   2.151324
    22  H    7.129641   8.371061   8.587902   7.631913   3.412960
    23  H    5.136526   6.493622   7.022273   6.379835   3.855382
    24  H    2.775073   4.111582   4.802963   4.470230   4.330081
    25  H    2.777798   4.117755   4.808278   4.482726   4.352046
                    6          7          8          9         10
     6  C    0.000000
     7  C    1.385912   0.000000
     8  C    2.374648   1.381380   0.000000
     9  C    4.222465   3.763146   2.492796   0.000000
    10  C    3.774005   4.308664   3.804304   2.883224   0.000000
    11  C    5.097814   4.965903   3.843176   1.509943   2.411153
    12  C    4.924446   5.179155   4.344523   2.555930   1.396518
    13  C    2.767231   2.439866   1.423460   1.455485   2.500350
    14  C    2.447386   2.861434   2.466489   2.465455   1.447595
    15  H    6.847440   6.388000   5.063463   2.646697   4.529564
    16  H    8.497744   8.345232   7.137145   4.649372   5.289281
    17  H    8.327839   8.583013   7.638733   5.404498   4.609875
    18  H    6.461086   7.025697   6.391346   4.733753   2.725274
    19  H    4.145310   4.949894   4.674912   3.964154   1.081100
    20  H    2.159514   3.401828   3.838685   4.571008   2.649478
    21  H    1.085199   2.153189   3.368767   5.306778   4.616401
    22  H    2.141280   1.075987   2.148692   4.639380   5.384292
    23  H    3.361337   2.134181   1.087210   2.711744   4.677625
    24  H    4.671179   4.028992   2.719789   1.106905   3.664207
    25  H    4.689231   4.049942   2.737179   1.100675   3.690388
                   11         12         13         14         15
    11  C    0.000000
    12  C    1.408015   0.000000
    13  C    2.526342   2.921222   0.000000
    14  C    2.819201   2.477184   1.408015   0.000000
    15  H    2.120876   3.378405   4.087773   4.804971   0.000000
    16  H    3.410273   3.893600   5.911610   6.142329   2.480985
    17  H    3.895825   3.422284   6.234781   5.887332   4.285751
    18  H    3.429949   2.182932   4.990010   4.167159   4.941822
    19  H    3.379945   2.125250   3.476634   2.210616   5.465274
    20  H    4.798467   4.040261   3.347707   2.110818   6.864285
    21  H    6.141534   5.860039   3.851540   3.408329   7.927680
    22  H    5.938323   6.235236   3.424043   3.937258   7.201619
    23  H    4.207040   4.986523   2.180024   3.445393   4.979311
    24  H    2.148038   3.288806   2.070837   3.193449   2.639363
    25  H    2.162498   3.298328   2.095490   3.209429   2.642242
                   16         17         18         19         20
    16  H    0.000000
    17  H    2.484458   0.000000
    18  H    4.290595   2.463917   0.000000
    19  H    5.886243   4.748808   2.468693   0.000000
    20  H    7.924001   7.150800   4.938734   2.470264   0.000000
    21  H    9.526023   9.220599   7.215895   4.798597   2.463917
    22  H    9.275587   9.625638   8.101406   6.006422   4.290595
    23  H    7.264296   8.098339   7.123876   5.622544   4.925823
    24  H    4.822533   5.860358   5.400407   4.724940   5.229219
    25  H    4.831944   5.858760   5.410749   4.745272   5.247428
                   21         22         23         24         25
    21  H    0.000000
    22  H    2.484458   0.000000
    23  H    4.271856   2.473028   0.000000
    24  H    5.740859   4.777441   2.651651   0.000000
    25  H    5.752063   4.802413   2.669472   1.719219   0.000000
 Stoichiometry    C14H11(1+)
 Framework group  C1[X(C14H11)]
 Deg. of freedom    69
 Full point group                 C1      NOp   1
 Largest Abelian subgroup         C1      NOp   1
 Largest concise Abelian subgroup C1      NOp   1
                         Standard orientation:                         
 ---------------------------------------------------------------------
 Center     Atomic      Atomic             Coordinates (Angstroms)
 Number     Number       Type             X           Y           Z
 ---------------------------------------------------------------------
      1          6           0       -2.442019   -1.370942    0.000179
      2          6           0       -3.677048   -0.709212   -0.009857
      3          6           0       -3.712501    0.676191    0.002465
      4          6           0       -2.518485    1.396298   -0.003210
      5          6           0        2.410735    1.416977   -0.003346
      6          6           0        3.657861    0.750342    0.002645
      7          6           0        3.728489   -0.633714   -0.009667
      8          6           0        2.546158   -1.348005    0.000058
      9          6           0        0.055630   -1.452580    0.019291
     10          6           0       -0.054703    1.428328   -0.015086
     11          6           0       -1.237253   -0.672875   -0.001692
     12          6           0       -1.266553    0.734779    0.010827
     13          6           0        1.289078   -0.680186   -0.001922
     14          6           0        1.210614    0.725586    0.010584
     15          1           0       -2.396117   -2.449133   -0.009412
     16          1           0       -4.590701   -1.292144   -0.030982
     17          1           0       -4.658296    1.190806    0.023103
     18          1           0       -2.564673    2.489788    0.006517
     19          1           0       -0.096081    2.508593   -0.005477
     20          1           0        2.374059    2.486815    0.006170
     21          1           0        4.560898    1.351780    0.023935
     22          1           0        4.683453   -1.129064   -0.030135
     23          1           0        2.583173   -2.434542   -0.009606
     24          1           0        0.086072   -2.136613   -0.850428
     25          1           0        0.078190   -2.152206    0.868702
 ---------------------------------------------------------------------
 Rotational constants (GHZ):           2.1380869           0.4441028           0.3685303
 Standard basis: 6-311++G(d,p) (5D, 7F)
 There are   399 symmetry adapted cartesian basis functions of A   symmetry.
 There are   385 symmetry adapted basis functions of A   symmetry.
   385 basis functions,   603 primitive gaussians,   399 cartesian basis functions
    47 alpha electrons       47 beta electrons
       nuclear repulsion energy       781.0639543431 Hartrees.
 NAtoms=   25 NActive=   25 NUniq=   25 SFac= 1.00D+00 NAtFMM=   60 NAOKFM=F Big=F
 Integral buffers will be    131072 words long.
 Regular integral format.
 Two-electron integral symmetry is turned on.
 Nuclear repulsion after empirical dispersion term =      781.0629756664 Hartrees.
 One-electron integrals computed using PRISM.
 NBasis=   385 RedAO= T EigKep=  1.57D-06  NBF=   385
 NBsUse=   379 1.00D-06 EigRej=  8.74D-07 NBFU=   379
 ExpMin= 3.60D-02 ExpMax= 4.56D+03 ExpMxC= 6.82D+02 IAcc=3 IRadAn=         5 AccDes= 0.00D+00
 Harris functional with IExCor= 1009 and IRadAn=       5 diagonalized for initial guess.
 HarFok:  IExCor= 1009 AccDes= 0.00D+00 IRadAn=         5 IDoV= 1 UseB2=F ITyADJ=14
 ICtDFT=  3500011 ScaDFX=  1.000000  1.000000  1.000000  1.000000
 FoFCou: FMM=F IPFlag=           0 FMFlag=      100000 FMFlg1=           0
         NFxFlg=           0 DoJE=T BraDBF=F KetDBF=T FulRan=T
         wScrn=  0.000000 ICntrl=       500 IOpCl=  0 I1Cent=   200000004 NGrid=           0
         NMat0=    1 NMatS0=      1 NMatT0=    0 NMatD0=    1 NMtDS0=    0 NMtDT0=    0
 Petite list used in FoFCou.
 Requested convergence on RMS density matrix=1.00D-08 within 128 cycles.
 Requested convergence on MAX density matrix=1.00D-06.
 Requested convergence on             energy=1.00D-06.
 No special actions if energy rises.
 SCF Done:  E(RM062X) =  -539.754864595     A.U. after   15 cycles
            NFock= 15  Conv=0.68D-08     -V/T= 2.0042
 DoSCS=F DFT=T ScalE2(SS,OS)=  1.000000  1.000000
 ExpMin= 3.60D-02 ExpMax= 4.56D+03 ExpMxC= 6.82D+02 IAcc=3 IRadAn=         5 AccDes= 0.00D+00
 HarFok:  IExCor=  205 AccDes= 0.00D+00 IRadAn=         5 IDoV=-2 UseB2=F ITyADJ=14
 ICtDFT= 12500011 ScaDFX=  1.000000  1.000000  1.000000  1.000000
 Range of M.O.s used for correlation:    15   379
 NBasis=   385 NAE=    47 NBE=    47 NFC=    14 NFV=     0
 NROrb=    365 NOA=    33 NOB=    33 NVA=   332 NVB=   332

 **** Warning!!: The largest alpha MO coefficient is  0.13755218D+03

 Orbital symmetries:
       Occupied  (A) (A) (A) (A) (A) (A) (A) (A) (A) (A) (A) (A)
                 (A) (A) (A) (A) (A) (A) (A) (A) (A) (A) (A) (A)
                 (A) (A) (A) (A) (A) (A) (A) (A) (A) (A) (A) (A)
                 (A) (A) (A) (A) (A) (A) (A) (A) (A) (A) (A)
       Virtual   (A) (A) (A) (A) (A) (A) (A) (A) (A) (A) (A) (A)
                 (A) (A) (A) (A) (A) (A) (A) (A) (A) (A) (A) (A)
                 (A) (A) (A) (A) (A) (A) (A) (A) (A) (A) (A) (A)
                 (A) (A) (A) (A) (A) (A) (A) (A) (A) (A) (A) (A)
                 (A) (A) (A) (A) (A) (A) (A) (A) (A) (A) (A) (A)
                 (A) (A) (A) (A) (A) (A) (A) (A) (A) (A) (A) (A)
                 (A) (A) (A) (A) (A) (A) (A) (A) (A) (A) (A) (A)
                 (A) (A) (A) (A) (A) (A) (A) (A) (A) (A) (A) (A)
                 (A) (A) (A) (A) (A) (A) (A) (A) (A) (A) (A) (A)
                 (A) (A) (A) (A) (A) (A) (A) (A) (A) (A) (A) (A)
                 (A) (A) (A) (A) (A) (A) (A) (A) (A) (A) (A) (A)
                 (A) (A) (A) (A) (A) (A) (A) (A) (A) (A) (A) (A)
                 (A) (A) (A) (A) (A) (A) (A) (A) (A) (A) (A) (A)
                 (A) (A) (A) (A) (A) (A) (A) (A) (A) (A) (A) (A)
                 (A) (A) (A) (A) (A) (A) (A) (A) (A) (A) (A) (A)
                 (A) (A) (A) (A) (A) (A) (A) (A) (A) (A) (A) (A)
                 (A) (A) (A) (A) (A) (A) (A) (A) (A) (A) (A) (A)
                 (A) (A) (A) (A) (A) (A) (A) (A) (A) (A) (A) (A)
                 (A) (A) (A) (A) (A) (A) (A) (A) (A) (A) (A) (A)
                 (A) (A) (A) (A) (A) (A) (A) (A) (A) (A) (A) (A)
                 (A) (A) (A) (A) (A) (A) (A) (A) (A) (A) (A) (A)
                 (A) (A) (A) (A) (A) (A) (A) (A) (A) (A) (A) (A)
                 (A) (A) (A) (A) (A) (A) (A) (A) (A) (A) (A) (A)
                 (A) (A) (A) (A) (A) (A) (A) (A) (A) (A) (A) (A)
                 (A) (A) (A) (A) (A) (A) (A) (A) (A) (A) (A) (A)
                 (A) (A) (A) (A) (A) (A) (A) (A) (A) (A) (A) (A)
                 (A) (A) (A) (A) (A) (A) (A) (A) (A) (A) (A) (A)
                 (A) (A) (A) (A) (A) (A) (A) (A)
     4 initial guesses have been made.
 Convergence on wavefunction:    0.001000000000000
 Iteration     1 Dimension     4 NMult     0 NNew      4
 CISAX will form     4 AO SS matrices at one time.
 Iteration     2 Dimension     6 NMult     4 NNew      2
 Iteration     3 Dimension     8 NMult     6 NNew      2
 Iteration     4 Dimension    10 NMult     8 NNew      2
 Iteration     5 Dimension    12 NMult    10 NNew      2
 Iteration     6 Dimension    14 NMult    12 NNew      2
 ***********************************************************************
 Excited states from <AA,BB:AA,BB> singles matrix:
 ***********************************************************************
 
 Ground to excited state transition densities written to RWF  633
 Ground to excited state transition electric dipole moments (Au):
       state          X           Y           Z        Dip. S.      Osc.
         1        -0.2597      0.5996     -0.0014      0.4270      0.0289
 Ground to excited state transition velocity dipole moments (Au):
       state          X           Y           Z        Dip. S.      Osc.
         1         0.0242     -0.0679      0.0001      0.0052      0.0341
 Ground to excited state transition magnetic dipole moments (Au):
       state          X           Y           Z
         1        -0.0010      0.0004     -0.2215
 Ground to excited state transition velocity quadrupole moments (Au):
       state          XX          YY          ZZ          XY          XZ          YZ
         1        -0.2650     -0.0309      0.0091     -0.0599     -0.0006     -0.0005
 <0|del|b> * <b|rxdel|0> + <0|del|b> * <b|delr+rdel|0>
 Rotatory Strengths (R) in cgs (10**-40 erg-esu-cm/Gauss)
       state          XX          YY          ZZ    R(velocity)    E-M Angle
         1        -0.3657     -0.1988     -0.0022     -0.1889       90.00
 1/2[<0|r|b>*<b|rxdel|0> + (<0|rxdel|b>*<b|r|0>)*]
 Rotatory Strengths (R) in cgs (10**-40 erg-esu-cm/Gauss)
       state          XX          YY          ZZ     R(length)
         1        -0.1919     -0.1770     -0.2122     -0.1937
  1/2[<0|del|b>*<b|r|0> + (<0|r|b>*<b|del|0>)*] (Au)
       state          X           Y           Z        Dip. S.   Osc.(frdel)
         1        -0.0063     -0.0407     -0.0000      0.0470      0.0313

 Excitation energies and oscillator strengths:
 
 Excited State   1:      Singlet-A      2.7637 eV  448.62 nm  f=0.0289  <S**2>=0.000
      47 -> 48         0.70123
 This state for optimization and/or second-order correction.
 Total Energy, E(TD-HF/TD-DFT) =  -539.653301993    
 Copying the excited state density for this state as the 1-particle RhoCI density.
 SavETr:  write IOETrn=   770 NScale= 10 NData=  16 NLR=1 NState=    1 LETran=      28.

 **********************************************************************

            Population analysis using the SCF Density.

 **********************************************************************

 Orbital symmetries:
       Occupied  (A) (A) (A) (A) (A) (A) (A) (A) (A) (A) (A) (A)
                 (A) (A) (A) (A) (A) (A) (A) (A) (A) (A) (A) (A)
                 (A) (A) (A) (A) (A) (A) (A) (A) (A) (A) (A) (A)
                 (A) (A) (A) (A) (A) (A) (A) (A) (A) (A) (A)
       Virtual   (A) (A) (A) (A) (A) (A) (A) (A) (A) (A) (A) (A)
                 (A) (A) (A) (A) (A) (A) (A) (A) (A) (A) (A) (A)
                 (A) (A) (A) (A) (A) (A) (A) (A) (A) (A) (A) (A)
                 (A) (A) (A) (A) (A) (A) (A) (A) (A) (A) (A) (A)
                 (A) (A) (A) (A) (A) (A) (A) (A) (A) (A) (A) (A)
                 (A) (A) (A) (A) (A) (A) (A) (A) (A) (A) (A) (A)
                 (A) (A) (A) (A) (A) (A) (A) (A) (A) (A) (A) (A)
                 (A) (A) (A) (A) (A) (A) (A) (A) (A) (A) (A) (A)
                 (A) (A) (A) (A) (A) (A) (A) (A) (A) (A) (A) (A)
                 (A) (A) (A) (A) (A) (A) (A) (A) (A) (A) (A) (A)
                 (A) (A) (A) (A) (A) (A) (A) (A) (A) (A) (A) (A)
                 (A) (A) (A) (A) (A) (A) (A) (A) (A) (A) (A) (A)
                 (A) (A) (A) (A) (A) (A) (A) (A) (A) (A) (A) (A)
                 (A) (A) (A) (A) (A) (A) (A) (A) (A) (A) (A) (A)
                 (A) (A) (A) (A) (A) (A) (A) (A) (A) (A) (A) (A)
                 (A) (A) (A) (A) (A) (A) (A) (A) (A) (A) (A) (A)
                 (A) (A) (A) (A) (A) (A) (A) (A) (A) (A) (A) (A)
                 (A) (A) (A) (A) (A) (A) (A) (A) (A) (A) (A) (A)
                 (A) (A) (A) (A) (A) (A) (A) (A) (A) (A) (A) (A)
                 (A) (A) (A) (A) (A) (A) (A) (A) (A) (A) (A) (A)
                 (A) (A) (A) (A) (A) (A) (A) (A) (A) (A) (A) (A)
                 (A) (A) (A) (A) (A) (A) (A) (A) (A) (A) (A) (A)
                 (A) (A) (A) (A) (A) (A) (A) (A) (A) (A) (A) (A)
                 (A) (A) (A) (A) (A) (A) (A) (A) (A) (A) (A) (A)
                 (A) (A) (A) (A) (A) (A) (A) (A) (A) (A) (A) (A)
                 (A) (A) (A) (A) (A) (A) (A) (A) (A) (A) (A) (A)
                 (A) (A) (A) (A) (A) (A) (A) (A) (A) (A) (A) (A)
                 (A) (A) (A) (A) (A) (A) (A) (A)
 The electronic state is 1-A.
 Alpha  occ. eigenvalues --  -10.77650 -10.73576 -10.72897 -10.72651 -10.72216
 Alpha  occ. eigenvalues --  -10.72148 -10.71710 -10.70987 -10.70597 -10.70330
 Alpha  occ. eigenvalues --  -10.70153 -10.70015 -10.69789 -10.69259  -1.16470
 Alpha  occ. eigenvalues --   -1.12466  -1.06974  -1.05731  -1.01303  -1.00327
 Alpha  occ. eigenvalues --   -0.95661  -0.91042  -0.86434  -0.85865  -0.83781
 Alpha  occ. eigenvalues --   -0.78425  -0.75982  -0.74410  -0.69620  -0.69243
 Alpha  occ. eigenvalues --   -0.68536  -0.68144  -0.68070  -0.64784  -0.64215
 Alpha  occ. eigenvalues --   -0.63095  -0.61713  -0.60350  -0.59351  -0.59058
 Alpha  occ. eigenvalues --   -0.56933  -0.55102  -0.54813  -0.52452  -0.46816
 Alpha  occ. eigenvalues --   -0.46160  -0.44186
 Alpha virt. eigenvalues --   -0.26104  -0.14683  -0.14103  -0.12756  -0.11185
 Alpha virt. eigenvalues --   -0.10085  -0.09242  -0.08080  -0.07883  -0.07479
 Alpha virt. eigenvalues --   -0.07217  -0.07124  -0.05646  -0.05582  -0.05342
 Alpha virt. eigenvalues --   -0.03854  -0.03737  -0.03301  -0.03113  -0.02135
 Alpha virt. eigenvalues --   -0.01382  -0.00948   0.00205   0.00570   0.00736
 Alpha virt. eigenvalues --    0.01059   0.01495   0.01923   0.02121   0.02319
 Alpha virt. eigenvalues --    0.02456   0.02739   0.02848   0.03097   0.03391
 Alpha virt. eigenvalues --    0.04198   0.04476   0.04715   0.05036   0.05407
 Alpha virt. eigenvalues --    0.05898   0.06245   0.06566   0.07040   0.07211
 Alpha virt. eigenvalues --    0.07902   0.08032   0.08318   0.08644   0.08926
 Alpha virt. eigenvalues --    0.09338   0.09749   0.09937   0.10503   0.11109
 Alpha virt. eigenvalues --    0.11299   0.12173   0.12293   0.12836   0.12940
 Alpha virt. eigenvalues --    0.13282   0.13439   0.14008   0.14371   0.15807
 Alpha virt. eigenvalues --    0.16427   0.16637   0.17063   0.17321   0.17785
 Alpha virt. eigenvalues --    0.18197   0.18714   0.19294   0.19664   0.19803
 Alpha virt. eigenvalues --    0.21369   0.21716   0.22548   0.22864   0.23432
 Alpha virt. eigenvalues --    0.23646   0.24489   0.24697   0.26835   0.27600
 Alpha virt. eigenvalues --    0.28892   0.28943   0.30083   0.31241   0.35660
 Alpha virt. eigenvalues --    0.36315   0.37780   0.39202   0.41073   0.41330
 Alpha virt. eigenvalues --    0.41913   0.42195   0.42961   0.43713   0.44306
 Alpha virt. eigenvalues --    0.44510   0.44975   0.45393   0.46189   0.47947
 Alpha virt. eigenvalues --    0.48486   0.48656   0.49026   0.50418   0.50994
 Alpha virt. eigenvalues --    0.51110   0.51888   0.52055   0.52606   0.54048
 Alpha virt. eigenvalues --    0.54197   0.54522   0.55770   0.55981   0.57511
 Alpha virt. eigenvalues --    0.58219   0.58868   0.61406   0.61971   0.62384
 Alpha virt. eigenvalues --    0.63140   0.63358   0.63977   0.65197   0.66589
 Alpha virt. eigenvalues --    0.70272   0.70414   0.70941   0.72290   0.72689
 Alpha virt. eigenvalues --    0.75078   0.75460   0.76332   0.76535   0.76825
 Alpha virt. eigenvalues --    0.77078   0.77779   0.78247   0.80187   0.81156
 Alpha virt. eigenvalues --    0.81290   0.81485   0.82168   0.83060   0.84672
 Alpha virt. eigenvalues --    0.85516   0.86930   0.87641   0.89758   0.90753
 Alpha virt. eigenvalues --    0.90990   0.91699   0.93620   0.94652   0.96132
 Alpha virt. eigenvalues --    0.97080   1.00198   1.00680   1.02038   1.02825
 Alpha virt. eigenvalues --    1.02947   1.03597   1.04783   1.06512   1.08882
 Alpha virt. eigenvalues --    1.19424   1.22364   1.24082   1.24541   1.29233
 Alpha virt. eigenvalues --    1.29774   1.33193   1.33907   1.35151   1.35931
 Alpha virt. eigenvalues --    1.38672   1.39823   1.40513   1.42871   1.43340
 Alpha virt. eigenvalues --    1.43420   1.44855   1.46430   1.46575   1.46782
 Alpha virt. eigenvalues --    1.47769   1.47942   1.51656   1.53885   1.55519
 Alpha virt. eigenvalues --    1.56219   1.56381   1.56692   1.57825   1.61442
 Alpha virt. eigenvalues --    1.63166   1.63233   1.64317   1.66087   1.68003
 Alpha virt. eigenvalues --    1.68351   1.68693   1.69657   1.74309   1.75786
 Alpha virt. eigenvalues --    1.76993   1.78009   1.79794   1.80089   1.80783
 Alpha virt. eigenvalues --    1.82727   1.83303   1.83450   1.83738   1.84171
 Alpha virt. eigenvalues --    1.84458   1.85832   1.85984   1.88211   1.91240
 Alpha virt. eigenvalues --    1.91403   1.94099   1.95306   1.97333   1.98602
 Alpha virt. eigenvalues --    1.99830   2.02375   2.04464   2.07235   2.11666
 Alpha virt. eigenvalues --    2.12173   2.13310   2.15298   2.19139   2.21057
 Alpha virt. eigenvalues --    2.22669   2.28309   2.30480   2.34291   2.34921
 Alpha virt. eigenvalues --    2.35869   2.38340   2.39666   2.42013   2.44001
 Alpha virt. eigenvalues --    2.46159   2.46623   2.48780   2.53109   2.53683
 Alpha virt. eigenvalues --    2.54344   2.56527   2.57981   2.58417   2.59515
 Alpha virt. eigenvalues --    2.60015   2.61589   2.61958   2.63093   2.63689
 Alpha virt. eigenvalues --    2.64568   2.64973   2.65051   2.65176   2.66903
 Alpha virt. eigenvalues --    2.68481   2.70977   2.71338   2.73487   2.75005
 Alpha virt. eigenvalues --    2.76382   2.78720   2.79744   2.82489   2.83228
 Alpha virt. eigenvalues --    2.85225   2.86394   2.92076   2.96582   2.99379
 Alpha virt. eigenvalues --    3.00216   3.04620   3.09933   3.11120   3.13502
 Alpha virt. eigenvalues --    3.19790   3.23744   3.26592   3.28294   3.30418
 Alpha virt. eigenvalues --    3.32389   3.33477   3.43376   3.46037   3.46294
 Alpha virt. eigenvalues --    3.48379   3.49925   3.56311   3.66046   3.66633
 Alpha virt. eigenvalues --    3.67793   3.93871   3.93946   3.95125   3.96497
 Alpha virt. eigenvalues --    4.03878   4.06133   4.07403   4.12136   4.35386
 Alpha virt. eigenvalues --    4.60386   4.69362   4.71152  23.45338  23.60015
 Alpha virt. eigenvalues --   23.81447  23.84253  23.86395  23.89917  23.90258
 Alpha virt. eigenvalues --   23.93842  23.97313  23.98585  24.01310  24.02584
 Alpha virt. eigenvalues --   24.09957  24.11592
          Condensed to atoms (all electrons):
               1          2          3          4          5          6
     1  C    8.335548   0.748384  -0.741105   1.382950   0.081334  -0.085820
     2  C    0.748384   7.020694   0.307085  -0.538306  -0.059045  -0.019102
     3  C   -0.741105   0.307085   6.680318   0.344934  -0.116830   0.016488
     4  C    1.382950  -0.538306   0.344934   9.288924   0.143569  -0.096922
     5  C    0.081334  -0.059045  -0.116830   0.143569   9.379509   0.542132
     6  C   -0.085820  -0.019102   0.016488  -0.096922   0.542132   6.759743
     7  C   -0.049590   0.007497  -0.011251  -0.063714  -0.742338   0.354567
     8  C    0.391810  -0.033150  -0.080943  -0.006049   1.421345  -0.542250
     9  C   -1.631025  -0.656187   0.312715  -0.603991  -0.762436   0.243255
    10  C   -1.010261   0.092628  -0.264426  -1.903538  -1.976701  -0.445357
    11  C    0.060777  -1.236860   1.215821  -1.099523  -1.398739  -0.194915
    12  C   -1.046259   0.877288  -1.161916   0.155304   0.068923  -0.212966
    13  C    0.087741  -0.168794  -0.096248  -1.510014  -1.180022   1.074015
    14  C   -1.016636  -0.232103  -0.243970   0.046713   0.111768  -1.264226
    15  H    0.355413  -0.097411   0.004369   0.018843   0.004985   0.001506
    16  H   -0.012370   0.376247  -0.024959   0.017537  -0.000989  -0.000392
    17  H   -0.018809  -0.023031   0.384911  -0.056643  -0.000544   0.000443
    18  H    0.041550   0.004316  -0.096920   0.422688   0.018557  -0.004070
    19  H   -0.043610  -0.014275   0.057634  -0.074783  -0.064548   0.052071
    20  H    0.008658   0.002367  -0.005477   0.012557   0.444193  -0.101571
    21  H   -0.001178  -0.000436   0.000394   0.000334  -0.048880   0.370191
    22  H    0.000419   0.000338  -0.000290  -0.001500   0.005517  -0.010867
    23  H    0.006222  -0.002331   0.000584   0.005280   0.019979  -0.001902
    24  H    0.029305   0.016073  -0.005430  -0.008564  -0.004532  -0.007107
    25  H    0.046032   0.012313   0.005054  -0.015873  -0.018547   0.002966
               7          8          9         10         11         12
     1  C   -0.049590   0.391810  -1.631025  -1.010261   0.060777  -1.046259
     2  C    0.007497  -0.033150  -0.656187   0.092628  -1.236860   0.877288
     3  C   -0.011251  -0.080943   0.312715  -0.264426   1.215821  -1.161916
     4  C   -0.063714  -0.006049  -0.603991  -1.903538  -1.099523   0.155304
     5  C   -0.742338   1.421345  -0.762436  -1.976701  -1.398739   0.068923
     6  C    0.354567  -0.542250   0.243255  -0.445357  -0.194915  -0.212966
     7  C    6.777830   0.602689  -0.464069   0.174902  -0.178657  -0.181824
     8  C    0.602689   8.298382  -1.579903  -0.915808   0.100233  -1.013669
     9  C   -0.464069  -1.579903   8.694264   0.619407   1.501385  -0.864284
    10  C    0.174902  -0.915808   0.619407   8.832397  -0.274064   1.369399
    11  C   -0.178657   0.100233   1.501385  -0.274064  13.686675  -2.967037
    12  C   -0.181824  -1.013669  -0.864284   1.369399  -2.967037  13.030889
    13  C   -0.965775   0.138193   1.498087  -0.205080   1.562934  -4.291624
    14  C    0.865052  -1.213680  -0.846487   1.371568  -4.346658   1.965854
    15  H   -0.002857   0.003184   0.073727  -0.007167  -0.008448  -0.010240
    16  H    0.000276   0.001030   0.001110  -0.012039   0.024258  -0.029523
    17  H   -0.000332  -0.001455  -0.000946   0.016818  -0.011110   0.059193
    18  H    0.001106   0.007733  -0.029096   0.032987  -0.025617  -0.033266
    19  H   -0.005635  -0.043841   0.071446   0.425791   0.074458  -0.073578
    20  H    0.009422   0.042350  -0.029348   0.030456  -0.005695  -0.004818
    21  H   -0.025050  -0.011976  -0.003921   0.016835  -0.005908   0.003996
    22  H    0.383081  -0.028403   0.004500  -0.008932   0.001809  -0.008418
    23  H   -0.087063   0.355818   0.067558  -0.009224  -0.004293   0.004851
    24  H    0.013182   0.021172   0.362356  -0.004181   0.003797  -0.017661
    25  H    0.011417   0.038266   0.347259   0.014769   0.024802  -0.089677
              13         14         15         16         17         18
     1  C    0.087741  -1.016636   0.355413  -0.012370  -0.018809   0.041550
     2  C   -0.168794  -0.232103  -0.097411   0.376247  -0.023031   0.004316
     3  C   -0.096248  -0.243970   0.004369  -0.024959   0.384911  -0.096920
     4  C   -1.510014   0.046713   0.018843   0.017537  -0.056643   0.422688
     5  C   -1.180022   0.111768   0.004985  -0.000989  -0.000544   0.018557
     6  C    1.074015  -1.264226   0.001506  -0.000392   0.000443  -0.004070
     7  C   -0.965775   0.865052  -0.002857   0.000276  -0.000332   0.001106
     8  C    0.138193  -1.213680   0.003184   0.001030  -0.001455   0.007733
     9  C    1.498087  -0.846487   0.073727   0.001110  -0.000946  -0.029096
    10  C   -0.205080   1.371568  -0.007167  -0.012039   0.016818   0.032987
    11  C    1.562934  -4.346658  -0.008448   0.024258  -0.011110  -0.025617
    12  C   -4.291624   1.965854  -0.010240  -0.029523   0.059193  -0.033266
    13  C   13.717673  -3.174611  -0.007637   0.002225  -0.004963  -0.009930
    14  C   -3.174611  13.634381   0.005048  -0.008015   0.002163  -0.001432
    15  H   -0.007637   0.005048   0.441877  -0.009706   0.001729   0.000061
    16  H    0.002225  -0.008015  -0.009706   0.417944  -0.007303   0.002061
    17  H   -0.004963   0.002163   0.001729  -0.007303   0.420132  -0.009037
    18  H   -0.009930  -0.001432   0.000061   0.002061  -0.009037   0.443702
    19  H    0.079487  -0.066145   0.000573  -0.000790   0.002063  -0.005826
    20  H   -0.022669  -0.042681  -0.000182   0.000036  -0.000194   0.001390
    21  H   -0.018824   0.064099   0.000019  -0.000007   0.000011  -0.000126
    22  H    0.036776  -0.034000  -0.000147   0.000007  -0.000007   0.000012
    23  H   -0.017361  -0.006908   0.000582  -0.000099   0.000004  -0.000065
    24  H   -0.022285  -0.031170  -0.000015   0.000821  -0.000252   0.000322
    25  H    0.038698  -0.089532  -0.002339   0.000259   0.000075  -0.000144
              19         20         21         22         23         24
     1  C   -0.043610   0.008658  -0.001178   0.000419   0.006222   0.029305
     2  C   -0.014275   0.002367  -0.000436   0.000338  -0.002331   0.016073
     3  C    0.057634  -0.005477   0.000394  -0.000290   0.000584  -0.005430
     4  C   -0.074783   0.012557   0.000334  -0.001500   0.005280  -0.008564
     5  C   -0.064548   0.444193  -0.048880   0.005517   0.019979  -0.004532
     6  C    0.052071  -0.101571   0.370191  -0.010867  -0.001902  -0.007107
     7  C   -0.005635   0.009422  -0.025050   0.383081  -0.087063   0.013182
     8  C   -0.043841   0.042350  -0.011976  -0.028403   0.355818   0.021172
     9  C    0.071446  -0.029348  -0.003921   0.004500   0.067558   0.362356
    10  C    0.425791   0.030456   0.016835  -0.008932  -0.009224  -0.004181
    11  C    0.074458  -0.005695  -0.005908   0.001809  -0.004293   0.003797
    12  C   -0.073578  -0.004818   0.003996  -0.008418   0.004851  -0.017661
    13  C    0.079487  -0.022669  -0.018824   0.036776  -0.017361  -0.022285
    14  C   -0.066145  -0.042681   0.064099  -0.034000  -0.006908  -0.031170
    15  H    0.000573  -0.000182   0.000019  -0.000147   0.000582  -0.000015
    16  H   -0.000790   0.000036  -0.000007   0.000007  -0.000099   0.000821
    17  H    0.002063  -0.000194   0.000011  -0.000007   0.000004  -0.000252
    18  H   -0.005826   0.001390  -0.000126   0.000012  -0.000065   0.000322
    19  H    0.448416  -0.007020   0.001163  -0.000436   0.000143  -0.000391
    20  H   -0.007020   0.466315  -0.010983   0.001945   0.000044   0.000539
    21  H    0.001163  -0.010983   0.425818  -0.006913   0.001383  -0.000386
    22  H   -0.000436   0.001945  -0.006913   0.422318  -0.008969   0.001028
    23  H    0.000143   0.000044   0.001383  -0.008969   0.438561  -0.000363
    24  H   -0.000391   0.000539  -0.000386   0.001028  -0.000363   0.485513
    25  H    0.001597   0.000027   0.000055   0.000312  -0.000807  -0.076642
              25
     1  C    0.046032
     2  C    0.012313
     3  C    0.005054
     4  C   -0.015873
     5  C   -0.018547
     6  C    0.002966
     7  C    0.011417
     8  C    0.038266
     9  C    0.347259
    10  C    0.014769
    11  C    0.024802
    12  C   -0.089677
    13  C    0.038698
    14  C   -0.089532
    15  H   -0.002339
    16  H    0.000259
    17  H    0.000075
    18  H   -0.000144
    19  H    0.001597
    20  H    0.000027
    21  H    0.000055
    22  H    0.000312
    23  H   -0.000807
    24  H   -0.076642
    25  H    0.493885
 Mulliken charges:
               1
     1  C    0.080520
     2  C   -0.384200
     3  C   -0.480542
     4  C    0.139789
     5  C    0.132340
     6  C   -0.429910
     7  C   -0.422867
     8  C    0.048921
     9  C   -0.325376
    10  C    0.038823
    11  C   -0.499424
    12  C    0.471061
    13  C   -0.539990
    14  C    0.551609
    15  H    0.234232
    16  H    0.262383
    17  H    0.247085
    18  H    0.239043
    19  H    0.186036
    20  H    0.210338
    21  H    0.250291
    22  H    0.250818
    23  H    0.238375
    24  H    0.244869
    25  H    0.255775
 Sum of Mulliken charges =   1.00000
 Mulliken charges with hydrogens summed into heavy atoms:
               1
     1  C    0.314753
     2  C   -0.121816
     3  C   -0.233457
     4  C    0.378832
     5  C    0.342678
     6  C   -0.179619
     7  C   -0.172048
     8  C    0.287296
     9  C    0.175268
    10  C    0.224859
    11  C   -0.499424
    12  C    0.471061
    13  C   -0.539990
    14  C    0.551609
 Electronic spatial extent (au):  <R**2>=           2857.9808
 Charge=              1.0000 electrons
 Dipole moment (field-independent basis, Debye):
    X=             -0.7565    Y=              0.1802    Z=             -0.0102  Tot=              0.7777
 Quadrupole moment (field-independent basis, Debye-Ang):
   XX=            -30.9566   YY=            -56.3239   ZZ=            -84.1443
   XY=             -0.7633   XZ=             -0.0097   YZ=              0.1129
 Traceless Quadrupole moment (field-independent basis, Debye-Ang):
   XX=             26.1850   YY=              0.8177   ZZ=            -27.0027
   XY=             -0.7633   XZ=             -0.0097   YZ=              0.1129
 Octapole moment (field-independent basis, Debye-Ang**2):
  XXX=             -9.6748  YYY=              5.1830  ZZZ=              0.0575  XYY=             -2.0023
  XXY=             -5.1800  XXZ=             -0.1114  XZZ=             -0.6296  YZZ=             -3.0906
  YYZ=              0.1319  XYZ=              0.0131
 Hexadecapole moment (field-independent basis, Debye-Ang**3):
 XXXX=          -2122.3409 YYYY=           -609.3243 ZZZZ=            -99.4010 XXXY=             -4.5094
 XXXZ=             -0.2999 YYYX=             -5.2140 YYYZ=              0.3729 ZZZX=             -0.0107
 ZZZY=             -0.0757 XXYY=           -507.8980 XXZZ=           -591.2605 YYZZ=           -145.6391
 XXYZ=              3.5274 YYXZ=              0.0591 ZZXY=             -0.5964
 N-N= 7.810629756664D+02 E-N=-2.798466725734D+03  KE= 5.375100815138D+02
 Unable to Open any file for archive entry.
 1\1\GINC-GADI-CPU-CLX-0215\SP\RM062X TD-FC\6-311++G(d,p)\C14H11(1+)\TS
 1578\25-Jul-2022\0\\#n M062X/6-311++G(d,p) TD(NStates=1) EmpiricalDisp
 ersion=GD3 SP\\SP_-4\\1,1\C,0,2.4927,1.2851,0.012\C,0,3.7015,0.5767,-0
 .004\C,0,3.6839,-0.8091,-0.004\C,0,2.4632,-1.4829,-0.016\C,0,-2.4632,-
 1.3149,-0.016\C,0,-3.6839,-0.6011,-0.004\C,0,-3.7015,0.7847,-0.004\C,0
 ,-2.4927,1.4531,0.012\C,0,0.,1.4621,0.032\C,0,0.,-1.4205,-0.028\C,0,1.
 2621,0.6337,0.004\C,0,1.2375,-0.7741,0.004\C,0,-1.2621,0.7377,0.004\C,
 0,-1.2375,-0.6701,0.004\H,0,2.4881,2.3643,0.012\H,0,4.6368,1.1244,-0.0
 2\H,0,4.6093,-1.3597,0.012\H,0,2.4675,-2.5774,-0.016\H,0,0.,-2.5016,-0
 .028\H,0,-2.4675,-2.3854,-0.016\H,0,-4.6093,-1.1677,0.012\H,0,-4.6368,
 1.3164,-0.02\H,0,-2.4881,2.5403,0.012\H,0,-0.004,2.1545,-0.8316\H,0,0.
 004,2.1545,0.8876\\Version=ES64L-G16RevC.01\State=1-A\HF=-539.7548646\
 RMSD=6.753e-09\PG=C01 [X(C14H11)]\\@
 The archive entry for this job was punched.


 LEARN FROM YESTERDAY,
 LIVE FOR TODAY,
 LOOK TO TOMORROW,
 REST THIS AFTERNOON.

           -- SNOOPY
 Job cpu time:       0 days  1 hours  0 minutes 29.3 seconds.
 Elapsed time:       0 days  0 hours  3 minutes 51.1 seconds.
 File lengths (MBytes):  RWF=    460 Int=      0 D2E=      0 Chk=     15 Scr=      1
 Normal termination of Gaussian 16 at Mon Jul 25 20:08:00 2022.
