 Entering Gaussian System, Link 0=g16
 Initial command:
 /apps/gaussian/g16c01/g16/l1.exe "/jobfs/52583666.gadi-pbs/Gau-2479595.inp" -scrdir="/jobfs/52583666.gadi-pbs/"
 Entering Link 1 = /apps/gaussian/g16c01/g16/l1.exe PID=   2479596.
  
 Copyright (c) 1988-2019, Gaussian, Inc.  All Rights Reserved.
  
 This is part of the Gaussian(R) 16 program.  It is based on
 the Gaussian(R) 09 system (copyright 2009, Gaussian, Inc.),
 the Gaussian(R) 03 system (copyright 2003, Gaussian, Inc.),
 the Gaussian(R) 98 system (copyright 1998, Gaussian, Inc.),
 the Gaussian(R) 94 system (copyright 1995, Gaussian, Inc.),
 the Gaussian 92(TM) system (copyright 1992, Gaussian, Inc.),
 the Gaussian 90(TM) system (copyright 1990, Gaussian, Inc.),
 the Gaussian 88(TM) system (copyright 1988, Gaussian, Inc.),
 the Gaussian 86(TM) system (copyright 1986, Carnegie Mellon
 University), and the Gaussian 82(TM) system (copyright 1983,
 Carnegie Mellon University). Gaussian is a federally registered
 trademark of Gaussian, Inc.
  
 This software contains proprietary and confidential information,
 including trade secrets, belonging to Gaussian, Inc.
  
 This software is provided under written license and may be
 used, copied, transmitted, or stored only in accord with that
 written license.
  
 The following legend is applicable only to US Government
 contracts under FAR:
  
                    RESTRICTED RIGHTS LEGEND
  
 Use, reproduction and disclosure by the US Government is
 subject to restrictions as set forth in subparagraphs (a)
 and (c) of the Commercial Computer Software - Restricted
 Rights clause in FAR 52.227-19.
  
 Gaussian, Inc.
 340 Quinnipiac St., Bldg. 40, Wallingford CT 06492
  
  
 ---------------------------------------------------------------
 Warning -- This program may not be used in any manner that
 competes with the business of Gaussian, Inc. or will provide
 assistance to any competitor of Gaussian, Inc.  The licensee
 of this program is prohibited from giving any competitor of
 Gaussian, Inc. access to this program.  By using this program,
 the user acknowledges that Gaussian, Inc. is engaged in the
 business of creating and licensing software in the field of
 computational chemistry and represents and warrants to the
 licensee that it is not a competitor of Gaussian, Inc. and that
 it will not use this program in any manner prohibited above.
 ---------------------------------------------------------------
  

 Cite this work as:
 Gaussian 16, Revision C.01,
 M. J. Frisch, G. W. Trucks, H. B. Schlegel, G. E. Scuseria, 
 M. A. Robb, J. R. Cheeseman, G. Scalmani, V. Barone, 
 G. A. Petersson, H. Nakatsuji, X. Li, M. Caricato, A. V. Marenich, 
 J. Bloino, B. G. Janesko, R. Gomperts, B. Mennucci, H. P. Hratchian, 
 J. V. Ortiz, A. F. Izmaylov, J. L. Sonnenberg, D. Williams-Young, 
 F. Ding, F. Lipparini, F. Egidi, J. Goings, B. Peng, A. Petrone, 
 T. Henderson, D. Ranasinghe, V. G. Zakrzewski, J. Gao, N. Rega, 
 G. Zheng, W. Liang, M. Hada, M. Ehara, K. Toyota, R. Fukuda, 
 J. Hasegawa, M. Ishida, T. Nakajima, Y. Honda, O. Kitao, H. Nakai, 
 T. Vreven, K. Throssell, J. A. Montgomery, Jr., J. E. Peralta, 
 F. Ogliaro, M. J. Bearpark, J. J. Heyd, E. N. Brothers, K. N. Kudin, 
 V. N. Staroverov, T. A. Keith, R. Kobayashi, J. Normand, 
 K. Raghavachari, A. P. Rendell, J. C. Burant, S. S. Iyengar, 
 J. Tomasi, M. Cossi, J. M. Millam, M. Klene, C. Adamo, R. Cammi, 
 J. W. Ochterski, R. L. Martin, K. Morokuma, O. Farkas, 
 J. B. Foresman, and D. J. Fox, Gaussian, Inc., Wallingford CT, 2019.
 
 ******************************************
 Gaussian 16:  ES64L-G16RevC.01  3-Jul-2019
                25-Jul-2022 
 ******************************************
 %NProcShared=16
 Will use up to   16 processors via shared memory.
 %mem = 64GB
 ---------------------------------------------------------------
 #n M062X/6-311++G(d,p) TD(NStates=1) EmpiricalDispersion=GD3 SP
 ---------------------------------------------------------------
 1/38=1,172=1/1;
 2/12=2,17=6,18=5,40=1/2;
 3/5=4,6=6,7=1111,11=9,25=1,30=1,74=-55,124=31/1,2,3,8;
 4//1;
 5/5=2,38=5/2;
 8/6=1,10=2,108=1/1;
 9/41=1,42=1,70=2/14;
 6/7=2,8=2,9=2,10=2/1;
 99/5=1,9=1/99;
 ----
 SP_1
 ----
 Symbolic Z-matrix:
 Charge =  1 Multiplicity = 1
 C                     2.4927    1.3901   -0.003 
 C                     3.7015    0.7067    0.001 
 C                     3.6839   -0.6791    0.001 
 C                     2.4632   -1.3779    0.004 
 C                    -2.4632   -1.4199    0.004 
 C                    -3.6839   -0.7311    0.001 
 C                    -3.7015    0.6547    0.001 
 C                    -2.4927    1.3481   -0.003 
 C                     0.        1.4621   -0.008 
 C                     0.       -1.4205    0.007 
 C                     1.2621    0.6987   -0.001 
 C                     1.2375   -0.7091   -0.001 
 C                    -1.2621    0.6727   -0.001 
 C                    -1.2375   -0.7351   -0.001 
 H                     2.4881    2.4743   -0.003 
 H                     4.6368    1.2444    0.005 
 H                     4.6093   -1.2397   -0.003 
 H                     2.4675   -2.4574    0.004 
 H                     0.       -2.5016    0.007 
 H                    -2.4675   -2.5054    0.004 
 H                    -4.6093   -1.2877   -0.003 
 H                    -4.6368    1.1964    0.005 
 H                    -2.4881    2.4303   -0.003 
 H                     0.001     2.1545   -0.8666 
 H                    -0.001     2.1545    0.8526 
 
                          Input orientation:                          
 ---------------------------------------------------------------------
 Center     Atomic      Atomic             Coordinates (Angstroms)
 Number     Number       Type             X           Y           Z
 ---------------------------------------------------------------------
      1          6           0        2.492700    1.390100   -0.003000
      2          6           0        3.701500    0.706700    0.001000
      3          6           0        3.683900   -0.679100    0.001000
      4          6           0        2.463200   -1.377900    0.004000
      5          6           0       -2.463200   -1.419900    0.004000
      6          6           0       -3.683900   -0.731100    0.001000
      7          6           0       -3.701500    0.654700    0.001000
      8          6           0       -2.492700    1.348100   -0.003000
      9          6           0        0.000000    1.462100   -0.008000
     10          6           0        0.000000   -1.420500    0.007000
     11          6           0        1.262100    0.698700   -0.001000
     12          6           0        1.237500   -0.709100   -0.001000
     13          6           0       -1.262100    0.672700   -0.001000
     14          6           0       -1.237500   -0.735100   -0.001000
     15          1           0        2.488100    2.474300   -0.003000
     16          1           0        4.636800    1.244400    0.005000
     17          1           0        4.609300   -1.239700   -0.003000
     18          1           0        2.467500   -2.457400    0.004000
     19          1           0        0.000000   -2.501600    0.007000
     20          1           0       -2.467500   -2.505400    0.004000
     21          1           0       -4.609300   -1.287700   -0.003000
     22          1           0       -4.636800    1.196400    0.005000
     23          1           0       -2.488100    2.430300   -0.003000
     24          1           0        0.001000    2.154500   -0.866600
     25          1           0       -0.001000    2.154500    0.852600
 ---------------------------------------------------------------------
                    Distance matrix (angstroms):
                    1          2          3          4          5
     1  C    0.000000
     2  C    1.388614   0.000000
     3  C    2.387585   1.385912   0.000000
     4  C    2.768166   2.424655   1.406570   0.000000
     5  C    5.697113   6.521193   6.191578   4.926579   0.000000
     6  C    6.530689   7.524055   7.367983   6.181035   1.401629
     7  C    6.237703   7.403183   7.504875   6.491148   2.416063
     8  C    4.985577   6.227321   6.500765   5.656153   2.768166
     9  C    2.493745   3.777805   4.260978   3.759401   3.791230
    10  C    3.756744   4.269206   3.757769   2.463570   2.463202
    11  C    1.411529   2.439414   2.786297   2.398944   4.285598
    12  C    2.445848   2.841793   2.446585   1.396302   3.768347
    13  C    3.822720   4.963717   5.127405   4.252393   2.412808
    14  C    4.293119   5.145145   4.921719   3.756115   1.404036
    15  H    1.084210   2.144007   3.372519   3.852287   6.299223
    16  H    2.149060   1.078853   2.146599   3.406023   7.583436
    17  H    3.375773   2.147694   1.081967   2.150557   7.074799
    18  H    3.847589   3.396218   2.154528   1.079509   5.038671
    19  H    4.621578   4.898400   4.110068   2.707409   2.690249
    20  H    6.307024   6.955153   6.416783   5.057970   1.085509
    21  H    7.590060   8.546756   8.315502   7.073079   2.150179
    22  H    7.132135   8.352668   8.529453   7.552286   3.401406
    23  H    5.088259   6.425104   6.911003   6.246424   3.850287
    24  H    2.745666   4.067254   4.727131   4.392974   4.427930
    25  H    2.744977   4.065692   4.725780   4.389790   4.422543
                    6          7          8          9         10
     6  C    0.000000
     7  C    1.385912   0.000000
     8  C    2.396257   1.393563   0.000000
     9  C    4.287345   3.788546   2.495310   0.000000
    10  C    3.747856   4.243535   3.725426   2.882639   0.000000
    11  C    5.148519   4.963795   3.810544   1.475034   2.466570
    12  C    4.921450   5.123834   4.259867   2.499113   1.427431
    13  C    2.799245   2.439467   1.403761   1.488656   2.444268
    14  C    2.446404   2.828930   2.432129   2.521734   1.414653
    15  H    6.954724   6.451520   5.106535   2.686115   4.621711
    16  H    8.551998   8.359127   7.130259   4.641926   5.348047
    17  H    8.308782   8.523976   7.558777   5.342789   4.612855
    18  H    6.389041   6.909540   6.251837   4.631542   2.676514
    19  H    4.087276   4.864501   4.586267   3.963728   1.081100
    20  H    2.151227   3.392491   3.853589   4.672232   2.695473
    21  H    1.079900   2.144070   3.380449   5.367222   4.611224
    22  H    2.150184   1.080852   2.149475   4.644425   5.324292
    23  H    3.380001   2.150607   1.082210   2.669846   4.584692
    24  H    4.760032   4.087864   2.759461   1.103002   3.680191
    25  H    4.755593   4.082686   2.755159   1.104559   3.673645
                   11         12         13         14         15
    11  C    0.000000
    12  C    1.408015   0.000000
    13  C    2.524334   2.856111   0.000000
    14  C    2.881628   2.475137   1.408015   0.000000
    15  H    2.157738   3.420240   4.160501   4.917352   0.000000
    16  H    3.418541   3.920643   5.926542   6.198859   2.475809
    17  H    3.867964   3.413294   6.174999   5.868534   4.277065
    18  H    3.378458   2.137634   4.869031   4.085752   4.931748
    19  H    3.440186   2.178193   3.416012   2.156848   5.563301
    20  H    4.916930   4.117492   3.399020   2.155664   7.025342
    21  H    6.198316   5.875360   3.879036   3.416783   8.032791
    22  H    5.919862   6.175627   3.415099   3.909727   7.238597
    23  H    4.130671   4.871954   2.142951   3.403493   4.976395
    24  H    2.111632   3.237036   2.130825   3.260818   2.652121
    25  H    2.107939   3.234613   2.124791   3.256893   2.651404
                   16         17         18         19         20
    16  H    0.000000
    17  H    2.484265   0.000000
    18  H    4.290593   2.463767   0.000000
    19  H    5.960909   4.778926   2.467898   0.000000
    20  H    8.033186   7.189099   4.935233   2.467505   0.000000
    21  H    9.586551   9.218725   7.172820   4.766477   2.463767
    22  H    9.273724   9.561643   7.988826   5.930862   4.290593
    23  H    7.222923   7.990118   6.960433   5.523982   4.935748
    24  H    4.804020   5.788163   5.301999   4.737346   5.344727
    25  H    4.801656   5.788567   5.299362   4.732262   5.340263
                   21         22         23         24         25
    21  H    0.000000
    22  H    2.484265   0.000000
    23  H    4.280539   2.477798   0.000000
    24  H    5.818025   4.815271   2.649054   0.000000
    25  H    5.815258   4.809056   2.644576   1.719201   0.000000
 Stoichiometry    C14H11(1+)
 Framework group  C1[X(C14H11)]
 Deg. of freedom    69
 Full point group                 C1      NOp   1
 Largest Abelian subgroup         C1      NOp   1
 Largest concise Abelian subgroup C1      NOp   1
                         Standard orientation:                         
 ---------------------------------------------------------------------
 Center     Atomic      Atomic             Coordinates (Angstroms)
 Number     Number       Type             X           Y           Z
 ---------------------------------------------------------------------
      1          6           0        2.505817   -1.357481    0.000018
      2          6           0        3.708016   -0.662528   -0.002447
      3          6           0        3.677144    0.723037    0.000631
      4          6           0        2.449807    1.410118   -0.000833
      5          6           0       -2.476770    1.404932   -0.000807
      6          6           0       -3.690817    0.704467    0.000646
      7          6           0       -3.695143   -0.681434   -0.002434
      8          6           0       -2.479757   -1.363232    0.000043
      9          6           0        0.013921   -1.453363    0.004824
     10          6           0       -0.013688    1.429131   -0.003772
     11          6           0        1.268651   -0.677897   -0.000463
     12          6           0        1.230568    0.729600    0.002664
     13          6           0       -1.255682   -0.676074   -0.000440
     14          6           0       -1.244567    0.731893    0.002688
     15          1           0        2.511601   -2.441673   -0.002391
     16          1           0        4.648423   -1.191235   -0.007629
     17          1           0        4.597132    1.292464    0.005890
     18          1           0        2.443767    2.489607    0.001566
     19          1           0       -0.024043    2.510178   -0.001370
     20          1           0       -2.491466    2.490338    0.001604
     21          1           0       -4.621505    1.252168    0.005869
     22          1           0       -4.625212   -1.232057   -0.007650
     23          1           0       -2.464792   -2.445336   -0.002362
     24          1           0        0.021559   -2.147628    0.861883
     25          1           0        0.019546   -2.143827   -0.857313
 ---------------------------------------------------------------------
 Rotational constants (GHZ):           2.1363327           0.4445859           0.3688026
 Standard basis: 6-311++G(d,p) (5D, 7F)
 There are   399 symmetry adapted cartesian basis functions of A   symmetry.
 There are   385 symmetry adapted basis functions of A   symmetry.
   385 basis functions,   603 primitive gaussians,   399 cartesian basis functions
    47 alpha electrons       47 beta electrons
       nuclear repulsion energy       781.1844933437 Hartrees.
 NAtoms=   25 NActive=   25 NUniq=   25 SFac= 1.00D+00 NAtFMM=   60 NAOKFM=F Big=F
 Integral buffers will be    131072 words long.
 Regular integral format.
 Two-electron integral symmetry is turned on.
 Nuclear repulsion after empirical dispersion term =      781.1835139011 Hartrees.
 One-electron integrals computed using PRISM.
 NBasis=   385 RedAO= T EigKep=  1.15D-06  NBF=   385
 NBsUse=   379 1.00D-06 EigRej=  8.44D-07 NBFU=   379
 ExpMin= 3.60D-02 ExpMax= 4.56D+03 ExpMxC= 6.82D+02 IAcc=3 IRadAn=         5 AccDes= 0.00D+00
 Harris functional with IExCor= 1009 and IRadAn=       5 diagonalized for initial guess.
 HarFok:  IExCor= 1009 AccDes= 0.00D+00 IRadAn=         5 IDoV= 1 UseB2=F ITyADJ=14
 ICtDFT=  3500011 ScaDFX=  1.000000  1.000000  1.000000  1.000000
 FoFCou: FMM=F IPFlag=           0 FMFlag=      100000 FMFlg1=           0
         NFxFlg=           0 DoJE=T BraDBF=F KetDBF=T FulRan=T
         wScrn=  0.000000 ICntrl=       500 IOpCl=  0 I1Cent=   200000004 NGrid=           0
         NMat0=    1 NMatS0=      1 NMatT0=    0 NMatD0=    1 NMtDS0=    0 NMtDT0=    0
 Petite list used in FoFCou.
 Requested convergence on RMS density matrix=1.00D-08 within 128 cycles.
 Requested convergence on MAX density matrix=1.00D-06.
 Requested convergence on             energy=1.00D-06.
 No special actions if energy rises.
 SCF Done:  E(RM062X) =  -539.759894402     A.U. after   15 cycles
            NFock= 15  Conv=0.46D-08     -V/T= 2.0042
 DoSCS=F DFT=T ScalE2(SS,OS)=  1.000000  1.000000
 ExpMin= 3.60D-02 ExpMax= 4.56D+03 ExpMxC= 6.82D+02 IAcc=3 IRadAn=         5 AccDes= 0.00D+00
 HarFok:  IExCor=  205 AccDes= 0.00D+00 IRadAn=         5 IDoV=-2 UseB2=F ITyADJ=14
 ICtDFT= 12500011 ScaDFX=  1.000000  1.000000  1.000000  1.000000
 Range of M.O.s used for correlation:    15   379
 NBasis=   385 NAE=    47 NBE=    47 NFC=    14 NFV=     0
 NROrb=    365 NOA=    33 NOB=    33 NVA=   332 NVB=   332

 **** Warning!!: The largest alpha MO coefficient is  0.15351073D+03

 Orbital symmetries:
       Occupied  (A) (A) (A) (A) (A) (A) (A) (A) (A) (A) (A) (A)
                 (A) (A) (A) (A) (A) (A) (A) (A) (A) (A) (A) (A)
                 (A) (A) (A) (A) (A) (A) (A) (A) (A) (A) (A) (A)
                 (A) (A) (A) (A) (A) (A) (A) (A) (A) (A) (A)
       Virtual   (A) (A) (A) (A) (A) (A) (A) (A) (A) (A) (A) (A)
                 (A) (A) (A) (A) (A) (A) (A) (A) (A) (A) (A) (A)
                 (A) (A) (A) (A) (A) (A) (A) (A) (A) (A) (A) (A)
                 (A) (A) (A) (A) (A) (A) (A) (A) (A) (A) (A) (A)
                 (A) (A) (A) (A) (A) (A) (A) (A) (A) (A) (A) (A)
                 (A) (A) (A) (A) (A) (A) (A) (A) (A) (A) (A) (A)
                 (A) (A) (A) (A) (A) (A) (A) (A) (A) (A) (A) (A)
                 (A) (A) (A) (A) (A) (A) (A) (A) (A) (A) (A) (A)
                 (A) (A) (A) (A) (A) (A) (A) (A) (A) (A) (A) (A)
                 (A) (A) (A) (A) (A) (A) (A) (A) (A) (A) (A) (A)
                 (A) (A) (A) (A) (A) (A) (A) (A) (A) (A) (A) (A)
                 (A) (A) (A) (A) (A) (A) (A) (A) (A) (A) (A) (A)
                 (A) (A) (A) (A) (A) (A) (A) (A) (A) (A) (A) (A)
                 (A) (A) (A) (A) (A) (A) (A) (A) (A) (A) (A) (A)
                 (A) (A) (A) (A) (A) (A) (A) (A) (A) (A) (A) (A)
                 (A) (A) (A) (A) (A) (A) (A) (A) (A) (A) (A) (A)
                 (A) (A) (A) (A) (A) (A) (A) (A) (A) (A) (A) (A)
                 (A) (A) (A) (A) (A) (A) (A) (A) (A) (A) (A) (A)
                 (A) (A) (A) (A) (A) (A) (A) (A) (A) (A) (A) (A)
                 (A) (A) (A) (A) (A) (A) (A) (A) (A) (A) (A) (A)
                 (A) (A) (A) (A) (A) (A) (A) (A) (A) (A) (A) (A)
                 (A) (A) (A) (A) (A) (A) (A) (A) (A) (A) (A) (A)
                 (A) (A) (A) (A) (A) (A) (A) (A) (A) (A) (A) (A)
                 (A) (A) (A) (A) (A) (A) (A) (A) (A) (A) (A) (A)
                 (A) (A) (A) (A) (A) (A) (A) (A) (A) (A) (A) (A)
                 (A) (A) (A) (A) (A) (A) (A) (A) (A) (A) (A) (A)
                 (A) (A) (A) (A) (A) (A) (A) (A) (A) (A) (A) (A)
                 (A) (A) (A) (A) (A) (A) (A) (A)
     4 initial guesses have been made.
 Convergence on wavefunction:    0.001000000000000
 Iteration     1 Dimension     4 NMult     0 NNew      4
 CISAX will form     4 AO SS matrices at one time.
 Iteration     2 Dimension     6 NMult     4 NNew      2
 Iteration     3 Dimension     8 NMult     6 NNew      2
 Iteration     4 Dimension    10 NMult     8 NNew      2
 Iteration     5 Dimension    12 NMult    10 NNew      2
 Iteration     6 Dimension    14 NMult    12 NNew      2
 ***********************************************************************
 Excited states from <AA,BB:AA,BB> singles matrix:
 ***********************************************************************
 
 Ground to excited state transition densities written to RWF  633
 Ground to excited state transition electric dipole moments (Au):
       state          X           Y           Z        Dip. S.      Osc.
         1         0.0709     -0.6406      0.0003      0.4154      0.0287
 Ground to excited state transition velocity dipole moments (Au):
       state          X           Y           Z        Dip. S.      Osc.
         1        -0.0066      0.0740     -0.0000      0.0055      0.0356
 Ground to excited state transition magnetic dipole moments (Au):
       state          X           Y           Z
         1         0.0003     -0.0002      0.0683
 Ground to excited state transition velocity quadrupole moments (Au):
       state          XX          YY          ZZ          XY          XZ          YZ
         1         0.2949      0.0348     -0.0098      0.0188     -0.0000      0.0002
 <0|del|b> * <b|rxdel|0> + <0|del|b> * <b|delr+rdel|0>
 Rotatory Strengths (R) in cgs (10**-40 erg-esu-cm/Gauss)
       state          XX          YY          ZZ    R(velocity)    E-M Angle
         1        -0.0577     -0.0150     -0.0567     -0.0431       90.00
 1/2[<0|r|b>*<b|rxdel|0> + (<0|rxdel|b>*<b|r|0>)*]
 Rotatory Strengths (R) in cgs (10**-40 erg-esu-cm/Gauss)
       state          XX          YY          ZZ     R(length)
         1        -0.0172     -0.0931     -0.0150     -0.0418
  1/2[<0|del|b>*<b|r|0> + (<0|r|b>*<b|del|0>)*] (Au)
       state          X           Y           Z        Dip. S.   Osc.(frdel)
         1        -0.0005     -0.0474     -0.0000      0.0479      0.0319

 Excitation energies and oscillator strengths:
 
 Excited State   1:      Singlet-A      2.8186 eV  439.88 nm  f=0.0287  <S**2>=0.000
      47 -> 48         0.70390
 This state for optimization and/or second-order correction.
 Total Energy, E(TD-HF/TD-DFT) =  -539.656312220    
 Copying the excited state density for this state as the 1-particle RhoCI density.
 SavETr:  write IOETrn=   770 NScale= 10 NData=  16 NLR=1 NState=    1 LETran=      28.

 **********************************************************************

            Population analysis using the SCF Density.

 **********************************************************************

 Orbital symmetries:
       Occupied  (A) (A) (A) (A) (A) (A) (A) (A) (A) (A) (A) (A)
                 (A) (A) (A) (A) (A) (A) (A) (A) (A) (A) (A) (A)
                 (A) (A) (A) (A) (A) (A) (A) (A) (A) (A) (A) (A)
                 (A) (A) (A) (A) (A) (A) (A) (A) (A) (A) (A)
       Virtual   (A) (A) (A) (A) (A) (A) (A) (A) (A) (A) (A) (A)
                 (A) (A) (A) (A) (A) (A) (A) (A) (A) (A) (A) (A)
                 (A) (A) (A) (A) (A) (A) (A) (A) (A) (A) (A) (A)
                 (A) (A) (A) (A) (A) (A) (A) (A) (A) (A) (A) (A)
                 (A) (A) (A) (A) (A) (A) (A) (A) (A) (A) (A) (A)
                 (A) (A) (A) (A) (A) (A) (A) (A) (A) (A) (A) (A)
                 (A) (A) (A) (A) (A) (A) (A) (A) (A) (A) (A) (A)
                 (A) (A) (A) (A) (A) (A) (A) (A) (A) (A) (A) (A)
                 (A) (A) (A) (A) (A) (A) (A) (A) (A) (A) (A) (A)
                 (A) (A) (A) (A) (A) (A) (A) (A) (A) (A) (A) (A)
                 (A) (A) (A) (A) (A) (A) (A) (A) (A) (A) (A) (A)
                 (A) (A) (A) (A) (A) (A) (A) (A) (A) (A) (A) (A)
                 (A) (A) (A) (A) (A) (A) (A) (A) (A) (A) (A) (A)
                 (A) (A) (A) (A) (A) (A) (A) (A) (A) (A) (A) (A)
                 (A) (A) (A) (A) (A) (A) (A) (A) (A) (A) (A) (A)
                 (A) (A) (A) (A) (A) (A) (A) (A) (A) (A) (A) (A)
                 (A) (A) (A) (A) (A) (A) (A) (A) (A) (A) (A) (A)
                 (A) (A) (A) (A) (A) (A) (A) (A) (A) (A) (A) (A)
                 (A) (A) (A) (A) (A) (A) (A) (A) (A) (A) (A) (A)
                 (A) (A) (A) (A) (A) (A) (A) (A) (A) (A) (A) (A)
                 (A) (A) (A) (A) (A) (A) (A) (A) (A) (A) (A) (A)
                 (A) (A) (A) (A) (A) (A) (A) (A) (A) (A) (A) (A)
                 (A) (A) (A) (A) (A) (A) (A) (A) (A) (A) (A) (A)
                 (A) (A) (A) (A) (A) (A) (A) (A) (A) (A) (A) (A)
                 (A) (A) (A) (A) (A) (A) (A) (A) (A) (A) (A) (A)
                 (A) (A) (A) (A) (A) (A) (A) (A) (A) (A) (A) (A)
                 (A) (A) (A) (A) (A) (A) (A) (A) (A) (A) (A) (A)
                 (A) (A) (A) (A) (A) (A) (A) (A)
 The electronic state is 1-A.
 Alpha  occ. eigenvalues --  -10.77666 -10.73326 -10.73155 -10.72490 -10.72381
 Alpha  occ. eigenvalues --  -10.71564 -10.71178 -10.71175 -10.70980 -10.70832
 Alpha  occ. eigenvalues --  -10.70018 -10.69926 -10.69725 -10.69536  -1.16444
 Alpha  occ. eigenvalues --   -1.12466  -1.06947  -1.05729  -1.01313  -1.00193
 Alpha  occ. eigenvalues --   -0.95774  -0.91055  -0.86420  -0.85898  -0.83815
 Alpha  occ. eigenvalues --   -0.78400  -0.76024  -0.74418  -0.69564  -0.69244
 Alpha  occ. eigenvalues --   -0.68506  -0.68189  -0.68100  -0.64742  -0.64280
 Alpha  occ. eigenvalues --   -0.63066  -0.61857  -0.60043  -0.59640  -0.59089
 Alpha  occ. eigenvalues --   -0.56900  -0.55208  -0.54836  -0.52439  -0.46636
 Alpha  occ. eigenvalues --   -0.46067  -0.44479
 Alpha virt. eigenvalues --   -0.26089  -0.14670  -0.14097  -0.12773  -0.11179
 Alpha virt. eigenvalues --   -0.10086  -0.09231  -0.08002  -0.07951  -0.07476
 Alpha virt. eigenvalues --   -0.07204  -0.07144  -0.05643  -0.05581  -0.05333
 Alpha virt. eigenvalues --   -0.03827  -0.03652  -0.03281  -0.03132  -0.02163
 Alpha virt. eigenvalues --   -0.01369  -0.00931   0.00193   0.00590   0.00675
 Alpha virt. eigenvalues --    0.01056   0.01512   0.01940   0.02207   0.02291
 Alpha virt. eigenvalues --    0.02451   0.02679   0.02748   0.03277   0.03373
 Alpha virt. eigenvalues --    0.04237   0.04502   0.04697   0.05031   0.05368
 Alpha virt. eigenvalues --    0.06025   0.06292   0.06594   0.07044   0.07251
 Alpha virt. eigenvalues --    0.07893   0.08154   0.08358   0.08546   0.08928
 Alpha virt. eigenvalues --    0.09501   0.09604   0.10033   0.10815   0.11077
 Alpha virt. eigenvalues --    0.11116   0.12184   0.12246   0.12908   0.12978
 Alpha virt. eigenvalues --    0.13399   0.13518   0.14015   0.14382   0.16156
 Alpha virt. eigenvalues --    0.16326   0.16426   0.17345   0.17610   0.17766
 Alpha virt. eigenvalues --    0.18128   0.19026   0.19272   0.19643   0.19749
 Alpha virt. eigenvalues --    0.21534   0.21606   0.22710   0.23099   0.23555
 Alpha virt. eigenvalues --    0.23744   0.24571   0.25212   0.26907   0.27604
 Alpha virt. eigenvalues --    0.28850   0.29264   0.29882   0.31338   0.35813
 Alpha virt. eigenvalues --    0.36417   0.38155   0.39269   0.41152   0.41400
 Alpha virt. eigenvalues --    0.41963   0.42201   0.42983   0.43685   0.44294
 Alpha virt. eigenvalues --    0.44960   0.45010   0.46007   0.46179   0.47946
 Alpha virt. eigenvalues --    0.48527   0.48865   0.49013   0.50423   0.51206
 Alpha virt. eigenvalues --    0.51499   0.51737   0.52111   0.52876   0.53992
 Alpha virt. eigenvalues --    0.54088   0.54640   0.55679   0.55788   0.57471
 Alpha virt. eigenvalues --    0.58239   0.58816   0.61438   0.62154   0.62355
 Alpha virt. eigenvalues --    0.63204   0.63495   0.64888   0.65167   0.67206
 Alpha virt. eigenvalues --    0.70417   0.70564   0.71015   0.72404   0.72859
 Alpha virt. eigenvalues --    0.75721   0.76020   0.76251   0.76882   0.77072
 Alpha virt. eigenvalues --    0.77756   0.77842   0.78235   0.80062   0.80380
 Alpha virt. eigenvalues --    0.81246   0.81632   0.82141   0.83013   0.85169
 Alpha virt. eigenvalues --    0.87119   0.88068   0.88149   0.89518   0.90418
 Alpha virt. eigenvalues --    0.91049   0.91288   0.93230   0.94630   0.96399
 Alpha virt. eigenvalues --    0.96697   1.00371   1.01211   1.01758   1.02723
 Alpha virt. eigenvalues --    1.03184   1.03779   1.04733   1.05534   1.08762
 Alpha virt. eigenvalues --    1.19549   1.23215   1.24067   1.25190   1.28113
 Alpha virt. eigenvalues --    1.29679   1.31877   1.34238   1.35717   1.36009
 Alpha virt. eigenvalues --    1.39321   1.40121   1.40887   1.43015   1.43470
 Alpha virt. eigenvalues --    1.43537   1.44977   1.45580   1.46385   1.46667
 Alpha virt. eigenvalues --    1.47648   1.48005   1.51721   1.53640   1.55719
 Alpha virt. eigenvalues --    1.55884   1.56385   1.56555   1.57777   1.61443
 Alpha virt. eigenvalues --    1.63235   1.63472   1.63826   1.66108   1.68282
 Alpha virt. eigenvalues --    1.68361   1.68682   1.69727   1.74383   1.75973
 Alpha virt. eigenvalues --    1.77157   1.78046   1.80016   1.80135   1.80711
 Alpha virt. eigenvalues --    1.83099   1.83253   1.83600   1.83813   1.84170
 Alpha virt. eigenvalues --    1.84281   1.85880   1.86020   1.88219   1.91378
 Alpha virt. eigenvalues --    1.92014   1.94131   1.95197   1.97647   1.98198
 Alpha virt. eigenvalues --    1.99745   2.02419   2.04416   2.07255   2.11800
 Alpha virt. eigenvalues --    2.12055   2.14029   2.15224   2.19107   2.21235
 Alpha virt. eigenvalues --    2.22785   2.28600   2.30189   2.34619   2.34951
 Alpha virt. eigenvalues --    2.36198   2.38661   2.39592   2.42343   2.44605
 Alpha virt. eigenvalues --    2.46203   2.46492   2.49326   2.52921   2.53797
 Alpha virt. eigenvalues --    2.54242   2.56769   2.57851   2.58308   2.59627
 Alpha virt. eigenvalues --    2.59835   2.61601   2.62126   2.63503   2.63799
 Alpha virt. eigenvalues --    2.64765   2.65107   2.65224   2.65299   2.67850
 Alpha virt. eigenvalues --    2.68555   2.70962   2.71406   2.73354   2.74833
 Alpha virt. eigenvalues --    2.76310   2.78776   2.79723   2.82831   2.83064
 Alpha virt. eigenvalues --    2.84906   2.86297   2.92108   2.96974   2.99502
 Alpha virt. eigenvalues --    3.00068   3.05076   3.11031   3.11381   3.13059
 Alpha virt. eigenvalues --    3.20902   3.23714   3.26707   3.28221   3.30751
 Alpha virt. eigenvalues --    3.32766   3.33564   3.43408   3.45929   3.46562
 Alpha virt. eigenvalues --    3.48520   3.50132   3.56467   3.65892   3.66812
 Alpha virt. eigenvalues --    3.67454   3.94175   3.94536   3.95160   3.96238
 Alpha virt. eigenvalues --    4.04003   4.06850   4.07483   4.12516   4.35512
 Alpha virt. eigenvalues --    4.61297   4.69798   4.71603  23.45340  23.60493
 Alpha virt. eigenvalues --   23.82199  23.85457  23.87913  23.89179  23.90491
 Alpha virt. eigenvalues --   23.92470  23.97701  23.99369  23.99919  24.00510
 Alpha virt. eigenvalues --   24.10394  24.10817
          Condensed to atoms (all electrons):
               1          2          3          4          5          6
     1  C    8.513491   0.364695  -0.527580   1.866719  -0.021511  -0.093131
     2  C    0.364695   7.079485   0.352294  -1.042927  -0.025315  -0.013659
     3  C   -0.527580   0.352294   6.623286   0.771715  -0.122708   0.016702
     4  C    1.866719  -1.042927   0.771715  10.730106  -0.291501  -0.123425
     5  C   -0.021511  -0.025315  -0.122708  -0.291501  10.774185   0.707612
     6  C   -0.093131  -0.013659   0.016702  -0.123425   0.707612   6.587828
     7  C   -0.021210   0.002628  -0.015460  -0.025606  -0.992798   0.355961
     8  C    0.405985  -0.025222  -0.095060  -0.000711   1.864714  -0.589355
     9  C   -1.245258  -0.746884   0.292084  -0.322017  -0.239420   0.301344
    10  C   -1.224378   0.251230  -0.396254  -2.507498  -2.519219  -0.338688
    11  C    0.292807  -0.926028   1.033285  -0.358412  -1.528313  -0.161752
    12  C   -1.915743   1.287848  -1.415329  -1.296194  -0.326774  -0.209016
    13  C    0.183908  -0.235652  -0.184211  -1.496126  -0.276754   1.053401
    14  C   -1.065576  -0.192344  -0.207229  -0.285067  -1.369455  -1.362887
    15  H    0.364802  -0.103444  -0.001971   0.026349   0.005793   0.000978
    16  H   -0.021026   0.379272  -0.014912   0.012025  -0.001587  -0.000317
    17  H   -0.022654  -0.017418   0.372613  -0.064117   0.000365   0.000392
    18  H    0.048672   0.004252  -0.087238   0.455163   0.007007  -0.005196
    19  H   -0.046552  -0.006921   0.051061  -0.067279  -0.072609   0.051959
    20  H    0.007355   0.001816  -0.004899   0.008576   0.450758  -0.085522
    21  H   -0.001359  -0.000387   0.000411   0.000189  -0.066891   0.376590
    22  H    0.000807   0.000356  -0.000346  -0.001482   0.015256  -0.018415
    23  H    0.005405  -0.002755   0.001234   0.005765   0.025937  -0.000534
    24  H    0.033863   0.013927  -0.000338  -0.013897  -0.013727   0.000188
    25  H    0.029979   0.014401  -0.003193  -0.010377  -0.010796  -0.002691
               7          8          9         10         11         12
     1  C   -0.021210   0.405985  -1.245258  -1.224378   0.292807  -1.915743
     2  C    0.002628  -0.025222  -0.746884   0.251230  -0.926028   1.287848
     3  C   -0.015460  -0.095060   0.292084  -0.396254   1.033285  -1.415329
     4  C   -0.025606  -0.000711  -0.322017  -2.507498  -0.358412  -1.296194
     5  C   -0.992798   1.864714  -0.239420  -2.519219  -1.528313  -0.326774
     6  C    0.355961  -0.589355   0.301344  -0.338688  -0.161752  -0.209016
     7  C    7.131270   0.403157  -0.800598   0.224176  -0.228477  -0.206708
     8  C    0.403157   8.524231  -1.249758  -1.246295   0.175448  -1.070076
     9  C   -0.800598  -1.249758   9.504863   0.279392   1.649190  -1.813912
    10  C    0.224176  -1.246295   0.279392   9.199284  -0.472361   2.334772
    11  C   -0.228477   0.175448   1.649190  -0.472361  14.479698  -3.776410
    12  C   -0.206708  -1.070076  -1.813912   2.334772  -3.776410  15.826421
    13  C   -0.987521   0.279242   1.650879  -0.506422   1.178026  -4.816089
    14  C    1.286607  -1.877393  -1.846103   2.358917  -4.781599   2.937268
    15  H   -0.002619   0.006010   0.088419  -0.009836  -0.028026  -0.022062
    16  H    0.000367   0.000646   0.004201  -0.009329   0.029743  -0.034905
    17  H   -0.000410  -0.001289  -0.005751   0.020293  -0.027897   0.089335
    18  H    0.002141   0.007593  -0.025989   0.016624  -0.010576  -0.051093
    19  H   -0.008814  -0.046628   0.075420   0.422260   0.079646  -0.063990
    20  H    0.002751   0.048533  -0.025421   0.016246  -0.012195  -0.012438
    21  H   -0.017341  -0.024019  -0.005092   0.020611  -0.006106   0.005014
    22  H    0.377809  -0.017102   0.003422  -0.010225   0.003122  -0.009090
    23  H   -0.105145   0.365133   0.090822  -0.009140   0.000447   0.006419
    24  H    0.014243   0.035935   0.354820   0.007989   0.019242  -0.070074
    25  H    0.014968   0.031885   0.357518   0.002663   0.005286  -0.051673
              13         14         15         16         17         18
     1  C    0.183908  -1.065576   0.364802  -0.021026  -0.022654   0.048672
     2  C   -0.235652  -0.192344  -0.103444   0.379272  -0.017418   0.004252
     3  C   -0.184211  -0.207229  -0.001971  -0.014912   0.372613  -0.087238
     4  C   -1.496126  -0.285067   0.026349   0.012025  -0.064117   0.455163
     5  C   -0.276754  -1.369455   0.005793  -0.001587   0.000365   0.007007
     6  C    1.053401  -1.362887   0.000978  -0.000317   0.000392  -0.005196
     7  C   -0.987521   1.286607  -0.002619   0.000367  -0.000410   0.002141
     8  C    0.279242  -1.877393   0.006010   0.000646  -0.001289   0.007593
     9  C    1.650879  -1.846103   0.088419   0.004201  -0.005751  -0.025989
    10  C   -0.506422   2.358917  -0.009836  -0.009329   0.020293   0.016624
    11  C    1.178026  -4.781599  -0.028026   0.029743  -0.027897  -0.010576
    12  C   -4.816089   2.937268  -0.022062  -0.034905   0.089335  -0.051093
    13  C   14.490528  -3.763561   0.001140   0.002990  -0.006369  -0.010894
    14  C   -3.763561  15.729177   0.006661  -0.009126   0.005302  -0.012273
    15  H    0.001140   0.006661   0.438587  -0.008959   0.001438   0.000169
    16  H    0.002990  -0.009126  -0.008959   0.420041  -0.006608   0.001919
    17  H   -0.006369   0.005302   0.001438  -0.006608   0.423109  -0.010469
    18  H   -0.010894  -0.012273   0.000169   0.001919  -0.010469   0.456383
    19  H    0.075446  -0.067380   0.000251  -0.000499   0.001311  -0.006353
    20  H   -0.009683  -0.049558  -0.000099   0.000012  -0.000136   0.001303
    21  H   -0.026143   0.088184   0.000011  -0.000007   0.000010  -0.000153
    22  H    0.026357  -0.033872  -0.000120   0.000007  -0.000007   0.000019
    23  H   -0.026651  -0.023991   0.000592  -0.000132   0.000015  -0.000128
    24  H    0.019774  -0.068544  -0.001019   0.000561  -0.000096   0.000132
    25  H    0.009188  -0.049265  -0.000685   0.000731  -0.000206   0.000279
              19         20         21         22         23         24
     1  C   -0.046552   0.007355  -0.001359   0.000807   0.005405   0.033863
     2  C   -0.006921   0.001816  -0.000387   0.000356  -0.002755   0.013927
     3  C    0.051061  -0.004899   0.000411  -0.000346   0.001234  -0.000338
     4  C   -0.067279   0.008576   0.000189  -0.001482   0.005765  -0.013897
     5  C   -0.072609   0.450758  -0.066891   0.015256   0.025937  -0.013727
     6  C    0.051959  -0.085522   0.376590  -0.018415  -0.000534   0.000188
     7  C   -0.008814   0.002751  -0.017341   0.377809  -0.105145   0.014243
     8  C   -0.046628   0.048533  -0.024019  -0.017102   0.365133   0.035935
     9  C    0.075420  -0.025421  -0.005092   0.003422   0.090822   0.354820
    10  C    0.422260   0.016246   0.020611  -0.010225  -0.009140   0.007989
    11  C    0.079646  -0.012195  -0.006106   0.003122   0.000447   0.019242
    12  C   -0.063990  -0.012438   0.005014  -0.009090   0.006419  -0.070074
    13  C    0.075446  -0.009683  -0.026143   0.026357  -0.026651   0.019774
    14  C   -0.067380  -0.049558   0.088184  -0.033872  -0.023991  -0.068544
    15  H    0.000251  -0.000099   0.000011  -0.000120   0.000592  -0.001019
    16  H   -0.000499   0.000012  -0.000007   0.000007  -0.000132   0.000561
    17  H    0.001311  -0.000136   0.000010  -0.000007   0.000015  -0.000096
    18  H   -0.006353   0.001303  -0.000153   0.000019  -0.000128   0.000132
    19  H    0.443152  -0.006114   0.001553  -0.000592   0.000372   0.000894
    20  H   -0.006114   0.450528  -0.009965   0.001949   0.000175   0.000085
    21  H    0.001553  -0.009965   0.421829  -0.006750   0.001525  -0.000079
    22  H   -0.000592   0.001949  -0.006750   0.418982  -0.009132   0.000527
    23  H    0.000372   0.000175   0.001525  -0.009132   0.439235  -0.001180
    24  H    0.000894   0.000085  -0.000079   0.000527  -0.001180   0.494779
    25  H    0.000296   0.000229  -0.000183   0.000697  -0.000739  -0.079450
              25
     1  C    0.029979
     2  C    0.014401
     3  C   -0.003193
     4  C   -0.010377
     5  C   -0.010796
     6  C   -0.002691
     7  C    0.014968
     8  C    0.031885
     9  C    0.357518
    10  C    0.002663
    11  C    0.005286
    12  C   -0.051673
    13  C    0.009188
    14  C   -0.049265
    15  H   -0.000685
    16  H    0.000731
    17  H   -0.000206
    18  H    0.000279
    19  H    0.000296
    20  H    0.000229
    21  H   -0.000183
    22  H    0.000697
    23  H   -0.000739
    24  H   -0.079450
    25  H    0.492455
 Mulliken charges:
               1
     1  C    0.087487
     2  C   -0.413247
     3  C   -0.437959
     4  C    0.030028
     5  C    0.027750
     6  C   -0.448367
     7  C   -0.403370
     8  C    0.094396
     9  C   -0.326171
    10  C    0.095187
    11  C   -0.627788
    12  C    0.674499
    13  C   -0.624804
    14  C    0.653110
    15  H    0.237642
    16  H    0.254891
    17  H    0.249243
    18  H    0.218706
    19  H    0.190108
    20  H    0.225712
    21  H    0.248546
    22  H    0.257821
    23  H    0.236451
    24  H    0.251446
    25  H    0.248684
 Sum of Mulliken charges =   1.00000
 Mulliken charges with hydrogens summed into heavy atoms:
               1
     1  C    0.325128
     2  C   -0.158356
     3  C   -0.188716
     4  C    0.248735
     5  C    0.253462
     6  C   -0.199821
     7  C   -0.145550
     8  C    0.330847
     9  C    0.173959
    10  C    0.285295
    11  C   -0.627788
    12  C    0.674499
    13  C   -0.624804
    14  C    0.653110
 Electronic spatial extent (au):  <R**2>=           2856.0886
 Charge=              1.0000 electrons
 Dipole moment (field-independent basis, Debye):
    X=             -0.1898    Y=              0.1875    Z=             -0.0026  Tot=              0.2668
 Quadrupole moment (field-independent basis, Debye-Ang):
   XX=            -31.1072   YY=            -56.2659   ZZ=            -84.1423
   XY=             -0.1915   XZ=              0.0015   YZ=              0.0283
 Traceless Quadrupole moment (field-independent basis, Debye-Ang):
   XX=             26.0646   YY=              0.9059   ZZ=            -26.9705
   XY=             -0.1915   XZ=              0.0015   YZ=              0.0283
 Octapole moment (field-independent basis, Debye-Ang**2):
  XXX=             -2.4244  YYY=              5.2114  ZZZ=              0.0142  XYY=             -0.5020
  XXY=             -5.1759  XXZ=             -0.0276  XZZ=             -0.1581  YZZ=             -3.0889
  YYZ=              0.0324  XYZ=             -0.0050
 Hexadecapole moment (field-independent basis, Debye-Ang**3):
 XXXX=          -2122.5094 YYYY=           -609.2482 ZZZZ=            -99.3346 XXXY=             -1.1280
 XXXZ=             -0.0270 YYYX=             -1.3096 YYYZ=              0.0946 ZZZX=              0.0029
 ZZZY=             -0.0189 XXYY=           -507.7318 XXZZ=           -590.7961 YYZZ=           -145.7002
 XXYZ=              0.8826 YYXZ=              0.0160 ZZXY=             -0.1504
 N-N= 7.811835139011D+02 E-N=-2.798708390454D+03  KE= 5.375055198755D+02
 Unable to Open any file for archive entry.
 1\1\GINC-GADI-CPU-CLX-0215\SP\RM062X TD-FC\6-311++G(d,p)\C14H11(1+)\TS
 1578\25-Jul-2022\0\\#n M062X/6-311++G(d,p) TD(NStates=1) EmpiricalDisp
 ersion=GD3 SP\\SP_1\\1,1\C,0,2.4927,1.3901,-0.003\C,0,3.7015,0.7067,0.
 001\C,0,3.6839,-0.6791,0.001\C,0,2.4632,-1.3779,0.004\C,0,-2.4632,-1.4
 199,0.004\C,0,-3.6839,-0.7311,0.001\C,0,-3.7015,0.6547,0.001\C,0,-2.49
 27,1.3481,-0.003\C,0,0.,1.4621,-0.008\C,0,0.,-1.4205,0.007\C,0,1.2621,
 0.6987,-0.001\C,0,1.2375,-0.7091,-0.001\C,0,-1.2621,0.6727,-0.001\C,0,
 -1.2375,-0.7351,-0.001\H,0,2.4881,2.4743,-0.003\H,0,4.6368,1.2444,0.00
 5\H,0,4.6093,-1.2397,-0.003\H,0,2.4675,-2.4574,0.004\H,0,0.,-2.5016,0.
 007\H,0,-2.4675,-2.5054,0.004\H,0,-4.6093,-1.2877,-0.003\H,0,-4.6368,1
 .1964,0.005\H,0,-2.4881,2.4303,-0.003\H,0,0.001,2.1545,-0.8666\H,0,-0.
 001,2.1545,0.8526\\Version=ES64L-G16RevC.01\State=1-A\HF=-539.7598944\
 RMSD=4.590e-09\PG=C01 [X(C14H11)]\\@
 The archive entry for this job was punched.


 EXPERIMENTALISTS THINK SILICON IS REALLY FUN TO USE
     ITS PLACE IN NOVEL COMPOUNDS IS CERTAIN TO AMUSE
 THEY SIT ALL DAY IN LABORATORIES MAKING ALL THIS SLUDGE
     "LOADED WITH THE SILICON THEY SAY", TO ME IT LOOKS LIKE FUDGE.
 FOR HAPPY THOUGH THEY BE WITH CRUD, I'D LIKE TO KNOW A LITTLE
      ABOUT THE PI BONDS ON THE EDGE AND SIGMAS IN THE MIDDLE.

 SO LETS DERIVE A WAVEFUNCTION.....6-31G*
     USE AN OPTIMAL GEOMETRY AND SEE WHERE ELECTRONS ARE.
 BUT WHAT OF CORRELATION?  ASKS THE WIRY LITTLE SKEPTIC.
     WE'LL THROW IN PERTURBATION AS AN ELECTRON ANTISEPTIC.
 AND WHEN THE PROGRAM GIVES US ANSWERS IN THEM WE CAN TRUST
     SINCE NOBODY CAN MAKE THE STUFF, WE HAVE NO CHOICE, WE MUST.

 SO THEORY GUYS HAVE GOT IT MADE, IN ROOMS FREE OF POLLUTION.
     INSTEAD OF PROBLEMS WITH THE REFLUX, THEY HAVE ONLY SOLUTIONS.
 AND WHEN THE FEDS ANNOUNCE THE LIST OF CARCINOGENIC TERRORS,
     THE THEORISTS SIT SAFELY AT THEIR TERMINALS FIXING ERRORS.
 IN OTHER WORDS, EXPERIMENTALISTS WILL LIKELY DIE OF CANCER
     FROM WORKING HARD YET FRUITLESSLY...TILL THEORY GIVES THE ANSWER.
          -- THOMAS A. HOLME, 1983
 Job cpu time:       0 days  1 hours  1 minutes 54.9 seconds.
 Elapsed time:       0 days  0 hours  3 minutes 58.7 seconds.
 File lengths (MBytes):  RWF=    460 Int=      0 D2E=      0 Chk=     15 Scr=      1
 Normal termination of Gaussian 16 at Mon Jul 25 20:25:46 2022.
