 Entering Gaussian System, Link 0=g16
 Initial command:
 /apps/gaussian/g16c01/g16/l1.exe "/jobfs/52804872.gadi-pbs/Gau-1688556.inp" -scrdir="/jobfs/52804872.gadi-pbs/"
 Entering Link 1 = /apps/gaussian/g16c01/g16/l1.exe PID=   1688569.
  
 Copyright (c) 1988-2019, Gaussian, Inc.  All Rights Reserved.
  
 This is part of the Gaussian(R) 16 program.  It is based on
 the Gaussian(R) 09 system (copyright 2009, Gaussian, Inc.),
 the Gaussian(R) 03 system (copyright 2003, Gaussian, Inc.),
 the Gaussian(R) 98 system (copyright 1998, Gaussian, Inc.),
 the Gaussian(R) 94 system (copyright 1995, Gaussian, Inc.),
 the Gaussian 92(TM) system (copyright 1992, Gaussian, Inc.),
 the Gaussian 90(TM) system (copyright 1990, Gaussian, Inc.),
 the Gaussian 88(TM) system (copyright 1988, Gaussian, Inc.),
 the Gaussian 86(TM) system (copyright 1986, Carnegie Mellon
 University), and the Gaussian 82(TM) system (copyright 1983,
 Carnegie Mellon University). Gaussian is a federally registered
 trademark of Gaussian, Inc.
  
 This software contains proprietary and confidential information,
 including trade secrets, belonging to Gaussian, Inc.
  
 This software is provided under written license and may be
 used, copied, transmitted, or stored only in accord with that
 written license.
  
 The following legend is applicable only to US Government
 contracts under FAR:
  
                    RESTRICTED RIGHTS LEGEND
  
 Use, reproduction and disclosure by the US Government is
 subject to restrictions as set forth in subparagraphs (a)
 and (c) of the Commercial Computer Software - Restricted
 Rights clause in FAR 52.227-19.
  
 Gaussian, Inc.
 340 Quinnipiac St., Bldg. 40, Wallingford CT 06492
  
  
 ---------------------------------------------------------------
 Warning -- This program may not be used in any manner that
 competes with the business of Gaussian, Inc. or will provide
 assistance to any competitor of Gaussian, Inc.  The licensee
 of this program is prohibited from giving any competitor of
 Gaussian, Inc. access to this program.  By using this program,
 the user acknowledges that Gaussian, Inc. is engaged in the
 business of creating and licensing software in the field of
 computational chemistry and represents and warrants to the
 licensee that it is not a competitor of Gaussian, Inc. and that
 it will not use this program in any manner prohibited above.
 ---------------------------------------------------------------
  

 Cite this work as:
 Gaussian 16, Revision C.01,
 M. J. Frisch, G. W. Trucks, H. B. Schlegel, G. E. Scuseria, 
 M. A. Robb, J. R. Cheeseman, G. Scalmani, V. Barone, 
 G. A. Petersson, H. Nakatsuji, X. Li, M. Caricato, A. V. Marenich, 
 J. Bloino, B. G. Janesko, R. Gomperts, B. Mennucci, H. P. Hratchian, 
 J. V. Ortiz, A. F. Izmaylov, J. L. Sonnenberg, D. Williams-Young, 
 F. Ding, F. Lipparini, F. Egidi, J. Goings, B. Peng, A. Petrone, 
 T. Henderson, D. Ranasinghe, V. G. Zakrzewski, J. Gao, N. Rega, 
 G. Zheng, W. Liang, M. Hada, M. Ehara, K. Toyota, R. Fukuda, 
 J. Hasegawa, M. Ishida, T. Nakajima, Y. Honda, O. Kitao, H. Nakai, 
 T. Vreven, K. Throssell, J. A. Montgomery, Jr., J. E. Peralta, 
 F. Ogliaro, M. J. Bearpark, J. J. Heyd, E. N. Brothers, K. N. Kudin, 
 V. N. Staroverov, T. A. Keith, R. Kobayashi, J. Normand, 
 K. Raghavachari, A. P. Rendell, J. C. Burant, S. S. Iyengar, 
 J. Tomasi, M. Cossi, J. M. Millam, M. Klene, C. Adamo, R. Cammi, 
 J. W. Ochterski, R. L. Martin, K. Morokuma, O. Farkas, 
 J. B. Foresman, and D. J. Fox, Gaussian, Inc., Wallingford CT, 2019.
 
 ******************************************
 Gaussian 16:  ES64L-G16RevC.01  3-Jul-2019
                27-Jul-2022 
 ******************************************
 %NProcShared=32
 Will use up to   32 processors via shared memory.
 %mem = 128GB
 ---------------------------------------------------------------
 #n M062X/6-311++G(d,p) TD(NStates=1) EmpiricalDispersion=GD3 SP
 ---------------------------------------------------------------
 1/38=1,172=1/1;
 2/12=2,17=6,18=5,40=1/2;
 3/5=4,6=6,7=1111,11=9,25=1,30=1,74=-55,124=31/1,2,3,8;
 4//1;
 5/5=2,38=5/2;
 8/6=1,10=2,108=1/1;
 9/41=1,42=1,70=2/14;
 6/7=2,8=2,9=2,10=2/1;
 99/5=1,9=1/99;
 -----
 SP_50
 -----
 Symbolic Z-matrix:
 Charge =  1 Multiplicity = 1
 C                     2.48575   1.3685    0. 
 C                     3.69083   0.6748    0. 
 C                     3.6815   -0.71615   0. 
 C                     2.47507  -1.40607   0. 
 C                    -2.45168  -1.39243   0. 
 C                    -3.6884   -0.69755   0. 
 C                    -3.7155    0.68538   0. 
 C                    -2.5063    1.3676    0. 
 C                    -0.00665   1.4698    0. 
 C                     0.0183   -1.42085   0. 
 C                     1.2651    0.69153   0. 
 C                     1.2443   -0.72248   0. 
 C                    -1.25963   0.68005   0. 
 C                    -1.2293   -0.72068   0. 
 H                     2.4888    2.4515    0. 
 H                     4.62633   1.21478   0. 
 H                     4.612    -1.26555   0. 
 H                     2.47245  -2.4883    0. 
 H                     0.01688  -2.50178   0. 
 H                    -2.4615   -2.47503   0. 
 H                    -4.60765  -1.26623   0. 
 H                    -4.6513    1.2234    0. 
 H                    -2.4951    2.45083   0. 
 H                    -0.024     2.15625  -0.86153 
 H                    -0.024     2.15625   0.86153 
 
                          Input orientation:                          
 ---------------------------------------------------------------------
 Center     Atomic      Atomic             Coordinates (Angstroms)
 Number     Number       Type             X           Y           Z
 ---------------------------------------------------------------------
      1          6           0        2.485750    1.368500    0.000000
      2          6           0        3.690825    0.674800    0.000000
      3          6           0        3.681500   -0.716150    0.000000
      4          6           0        2.475075   -1.406075    0.000000
      5          6           0       -2.451675   -1.392425    0.000000
      6          6           0       -3.688400   -0.697550    0.000000
      7          6           0       -3.715500    0.685375    0.000000
      8          6           0       -2.506300    1.367600    0.000000
      9          6           0       -0.006650    1.469800    0.000000
     10          6           0        0.018300   -1.420850    0.000000
     11          6           0        1.265100    0.691525    0.000000
     12          6           0        1.244300   -0.722475    0.000000
     13          6           0       -1.259625    0.680050    0.000000
     14          6           0       -1.229300   -0.720675    0.000000
     15          1           0        2.488800    2.451500    0.000000
     16          1           0        4.626325    1.214775    0.000000
     17          1           0        4.612000   -1.265550    0.000000
     18          1           0        2.472450   -2.488300    0.000000
     19          1           0        0.016875   -2.501775    0.000000
     20          1           0       -2.461500   -2.475025    0.000000
     21          1           0       -4.607650   -1.266225    0.000000
     22          1           0       -4.651300    1.223400    0.000000
     23          1           0       -2.495100    2.450825    0.000000
     24          1           0       -0.024000    2.156250   -0.861525
     25          1           0       -0.024000    2.156250    0.861525
 ---------------------------------------------------------------------
                    Distance matrix (angstroms):
                    1          2          3          4          5
     1  C    0.000000
     2  C    1.390477   0.000000
     3  C    2.403244   1.390981   0.000000
     4  C    2.774596   2.409998   1.389769   0.000000
     5  C    5.656931   6.481028   6.170347   4.926769   0.000000
     6  C    6.510660   7.505752   7.369923   6.204066   1.418570
     7  C    6.238763   7.406333   7.528604   6.534323   2.431976
     8  C    4.992050   6.235730   6.529233   5.701523   2.760566
     9  C    2.494458   3.781977   4.287287   3.798633   3.764370
    10  C    3.724081   4.228379   3.730367   2.456819   2.470139
    11  C    1.395809   2.425783   2.796522   2.421563   4.261134
    12  C    2.431743   2.817421   2.437208   1.407876   3.756203
    13  C    3.808123   4.950453   5.134597   4.277838   2.390844
    14  C    4.262188   5.114194   4.910802   3.767249   1.394793
    15  H    1.083004   2.145117   3.384751   3.857599   6.259717
    16  H    2.146088   1.080154   2.149690   3.390683   7.542916
    17  H    3.385138   2.147911   1.080588   2.141541   7.064814
    18  H    3.856823   3.389637   2.145301   1.082228   5.044596
    19  H    4.590683   4.856803   4.076510   2.691339   2.706362
    20  H    6.264820   6.911765   6.389843   5.050983   1.082645
    21  H    7.566908   8.522457   8.307382   7.084106   2.159665
    22  H    7.138525   8.360144   8.555548   7.596009   3.417732
    23  H    5.097087   6.435832   6.941190   6.291130   3.843495
    24  H    2.767963   4.091069   4.766932   4.435962   4.385080
    25  H    2.767963   4.091069   4.766932   4.435962   4.385080
                    6          7          8          9         10
     6  C    0.000000
     7  C    1.383191   0.000000
     8  C    2.379539   1.388379   0.000000
     9  C    4.272317   3.790896   2.501738   0.000000
    10  C    3.776611   4.286892   3.761523   2.890758   0.000000
    11  C    5.144579   4.980604   3.831519   1.490993   2.452884
    12  C    4.932763   5.155740   4.293648   2.524073   1.410958
    13  C    2.792262   2.455881   1.423701   1.481098   2.459039
    14  C    2.459209   2.856251   2.447779   2.508596   1.430647
    15  H    6.933564   6.450778   5.111347   2.681605   4.593307
    16  H    8.531802   8.358607   7.134262   4.639989   5.308523
    17  H    8.319812   8.552974   7.589708   5.367874   4.596324
    18  H    6.415829   6.954347   6.297294   4.670385   2.676248
    19  H    4.121200   4.908009   4.619359   3.971645   1.080926
    20  H    2.159792   3.400095   3.842886   4.646282   2.694567
    21  H    1.080931   2.145850   3.369378   5.353040   4.628533
    22  H    2.148773   1.079441   2.149842   4.651181   5.366304
    23  H    3.366932   2.146204   1.083283   2.674845   4.615956
    24  H    4.723794   4.066063   2.743357   1.101699   3.679628
    25  H    4.723794   4.066063   2.743357   1.101699   3.679628
                   11         12         13         14         15
    11  C    0.000000
    12  C    1.414153   0.000000
    13  C    2.524751   2.869968   0.000000
    14  C    2.866416   2.473601   1.401053   0.000000
    15  H    2.143584   3.409237   4.145929   4.887429   0.000000
    16  H    3.401709   3.897567   5.910189   6.167196   2.469514
    17  H    3.877097   3.411207   6.185575   5.866658   4.280705
    18  H    3.401320   2.150928   4.895592   4.102128   4.939827
    19  H    3.428590   2.161592   3.428332   2.173768   5.535824
    20  H    4.890254   4.099315   3.376241   2.143843   6.983990
    21  H    6.190475   5.877158   3.872629   3.422115   8.011310
    22  H    5.940259   6.208424   3.434922   3.935672   7.244947
    23  H    4.151414   4.904380   2.159176   3.414771   4.983900
    24  H    2.132938   3.261574   2.109066   3.235996   2.672744
    25  H    2.132938   3.261574   2.109066   3.235996   2.672744
                   16         17         18         19         20
    16  H    0.000000
    17  H    2.480366   0.000000
    18  H    4.283917   2.464304   0.000000
    19  H    5.921129   4.758511   2.455612   0.000000
    20  H    7.990738   7.176157   4.933968   2.478519   0.000000
    21  H    9.561467   9.219650   7.184795   4.786733   2.463160
    22  H    9.277629   9.591851   8.032716   5.972335   4.298089
    23  H    7.227898   8.020119   7.005106   5.553221   4.925965
    24  H    4.822253   5.826100   5.342877   4.737203   5.303993
    25  H    4.822253   5.826100   5.342877   4.737203   5.303993
                   21         22         23         24         25
    21  H    0.000000
    22  H    2.490008   0.000000
    23  H    4.275433   2.481083   0.000000
    24  H    5.784929   4.798368   2.633502   0.000000
    25  H    5.784929   4.798368   2.633502   1.723050   0.000000
 Stoichiometry    C14H11(1+)
 Framework group  CS[SG(C14H9),X(H2)]
 Deg. of freedom    46
 Full point group                 CS      NOp   2
 Largest Abelian subgroup         CS      NOp   2
 Largest concise Abelian subgroup CS      NOp   2
                         Standard orientation:                         
 ---------------------------------------------------------------------
 Center     Atomic      Atomic             Coordinates (Angstroms)
 Number     Number       Type             X           Y           Z
 ---------------------------------------------------------------------
      1          6           0       -2.369465   -1.554056    0.000000
      2          6           0       -2.324228   -2.943797    0.000000
      3          6           0       -1.092418   -3.589919    0.000000
      4          6           0        0.083940   -2.849891    0.000000
      5          6           0        2.389606    1.504067    0.000000
      6          6           0        2.358221    2.922290    0.000000
      7          6           0        1.150628    3.596779    0.000000
      8          6           0       -0.020240    2.850680    0.000000
      9          6           0       -1.286345    0.692980    0.000000
     10          6           0        1.252728   -0.688897    0.000000
     11          6           0       -1.197843   -0.795384    0.000000
     12          6           0        0.059706   -1.442223    0.000000
     13          6           0        0.000000    1.427124    0.000000
     14          6           0        1.221783    0.741415    0.000000
     15          1           0       -3.326577   -1.047268    0.000000
     16          1           0       -3.240812   -3.515293    0.000000
     17          1           0       -1.045347   -4.669481    0.000000
     18          1           0        1.040168   -3.356690    0.000000
     19          1           0        2.207245   -1.196144    0.000000
     20          1           0        3.349552    1.003445    0.000000
     21          1           0        3.292487    3.465944    0.000000
     22          1           0        1.116089    4.675667    0.000000
     23          1           0       -0.981384    3.350383    0.000000
     24          1           0       -1.883931    1.031220    0.861525
     25          1           0       -1.883931    1.031220   -0.861525
 ---------------------------------------------------------------------
 Rotational constants (GHZ):           2.1337478           0.4442310           0.3684843
 Standard basis: 6-311++G(d,p) (5D, 7F)
 There are   299 symmetry adapted cartesian basis functions of A'  symmetry.
 There are   100 symmetry adapted cartesian basis functions of A"  symmetry.
 There are   285 symmetry adapted basis functions of A'  symmetry.
 There are   100 symmetry adapted basis functions of A"  symmetry.
   385 basis functions,   603 primitive gaussians,   399 cartesian basis functions
    47 alpha electrons       47 beta electrons
       nuclear repulsion energy       780.8520470575 Hartrees.
 NAtoms=   25 NActive=   25 NUniq=   24 SFac= 1.09D+00 NAtFMM=   60 NAOKFM=F Big=F
 Integral buffers will be    131072 words long.
 Regular integral format.
 Two-electron integral symmetry is turned on.
 Nuclear repulsion after empirical dispersion term =      780.8510675125 Hartrees.
 One-electron integrals computed using PRISM.
 NBasis=   385 RedAO= T EigKep=  1.14D-06  NBF=   285   100
 NBsUse=   379 1.00D-06 EigRej=  8.43D-07 NBFU=   279   100
 ExpMin= 3.60D-02 ExpMax= 4.56D+03 ExpMxC= 6.82D+02 IAcc=3 IRadAn=         5 AccDes= 0.00D+00
 Harris functional with IExCor= 1009 and IRadAn=       5 diagonalized for initial guess.
 HarFok:  IExCor= 1009 AccDes= 0.00D+00 IRadAn=         5 IDoV= 1 UseB2=F ITyADJ=14
 ICtDFT=  3500011 ScaDFX=  1.000000  1.000000  1.000000  1.000000
 FoFCou: FMM=F IPFlag=           0 FMFlag=      100000 FMFlg1=           0
         NFxFlg=           0 DoJE=T BraDBF=F KetDBF=T FulRan=T
         wScrn=  0.000000 ICntrl=       500 IOpCl=  0 I1Cent=   200000004 NGrid=           0
         NMat0=    1 NMatS0=      1 NMatT0=    0 NMatD0=    1 NMtDS0=    0 NMtDT0=    0
 Petite list used in FoFCou.
 Initial guess orbital symmetries:
       Occupied  (A') (A') (A') (A') (A') (A') (A') (A') (A') (A')
                 (A') (A') (A') (A') (A') (A') (A') (A') (A') (A')
                 (A') (A') (A') (A') (A') (A') (A') (A') (A') (A')
                 (A') (A') (A") (A') (A') (A') (A') (A') (A") (A')
                 (A") (A') (A') (A") (A") (A") (A")
       Virtual   (A") (A") (A") (A") (A") (A') (A') (A') (A') (A")
                 (A") (A') (A') (A') (A") (A') (A') (A') (A') (A")
                 (A') (A") (A') (A') (A') (A") (A') (A") (A') (A')
                 (A') (A') (A') (A') (A") (A') (A") (A') (A') (A")
                 (A') (A') (A') (A") (A') (A') (A') (A') (A') (A")
                 (A') (A') (A") (A") (A') (A') (A') (A") (A") (A')
                 (A') (A') (A') (A') (A') (A') (A") (A') (A') (A")
                 (A') (A') (A') (A') (A') (A') (A') (A') (A') (A')
                 (A') (A') (A') (A') (A') (A') (A') (A') (A') (A')
                 (A') (A') (A') (A') (A') (A') (A') (A") (A') (A")
                 (A') (A') (A") (A") (A') (A") (A') (A") (A') (A")
                 (A") (A') (A') (A') (A") (A') (A') (A") (A") (A')
                 (A") (A") (A') (A') (A') (A") (A') (A') (A') (A")
                 (A') (A') (A') (A') (A') (A') (A") (A') (A') (A')
                 (A') (A') (A') (A') (A') (A') (A') (A') (A') (A")
                 (A") (A') (A") (A") (A') (A') (A') (A") (A") (A')
                 (A") (A') (A") (A") (A") (A') (A') (A') (A') (A')
                 (A') (A") (A") (A') (A') (A') (A') (A') (A') (A")
                 (A') (A') (A') (A') (A') (A") (A") (A') (A") (A")
                 (A') (A") (A') (A") (A') (A') (A') (A") (A') (A')
                 (A") (A") (A") (A') (A') (A") (A') (A") (A') (A')
                 (A") (A") (A') (A") (A') (A") (A') (A') (A') (A")
                 (A') (A') (A') (A') (A") (A') (A') (A') (A") (A")
                 (A') (A') (A') (A") (A') (A') (A") (A') (A") (A')
                 (A") (A') (A') (A') (A') (A") (A') (A') (A') (A")
                 (A') (A') (A") (A') (A") (A') (A') (A") (A') (A')
                 (A') (A") (A') (A") (A') (A') (A') (A") (A') (A")
                 (A') (A') (A') (A') (A") (A') (A") (A') (A") (A')
                 (A") (A') (A") (A") (A") (A') (A') (A') (A') (A')
                 (A') (A') (A') (A') (A') (A') (A') (A') (A') (A')
                 (A') (A') (A') (A') (A') (A") (A') (A') (A') (A')
                 (A') (A') (A') (A') (A') (A') (A') (A') (A') (A')
                 (A') (A') (A') (A') (A') (A') (A') (A') (A') (A')
                 (A') (A')
 The electronic state of the initial guess is 1-A'.
 Requested convergence on RMS density matrix=1.00D-08 within 128 cycles.
 Requested convergence on MAX density matrix=1.00D-06.
 Requested convergence on             energy=1.00D-06.
 No special actions if energy rises.
 SCF Done:  E(RM062X) =  -539.759277354     A.U. after   15 cycles
            NFock= 15  Conv=0.67D-08     -V/T= 2.0042
 DoSCS=F DFT=T ScalE2(SS,OS)=  1.000000  1.000000
 ExpMin= 3.60D-02 ExpMax= 4.56D+03 ExpMxC= 6.82D+02 IAcc=3 IRadAn=         5 AccDes= 0.00D+00
 HarFok:  IExCor=  205 AccDes= 0.00D+00 IRadAn=         5 IDoV=-2 UseB2=F ITyADJ=14
 ICtDFT= 12500011 ScaDFX=  1.000000  1.000000  1.000000  1.000000
 Range of M.O.s used for correlation:    15   379
 NBasis=   385 NAE=    47 NBE=    47 NFC=    14 NFV=     0
 NROrb=    365 NOA=    33 NOB=    33 NVA=   332 NVB=   332

 **** Warning!!: The largest alpha MO coefficient is  0.13326301D+03

 Orbital symmetries:
       Occupied  (A') (A') (A') (A') (A') (A') (A') (A') (A') (A')
                 (A') (A') (A') (A') (A') (A') (A') (A') (A') (A')
                 (A') (A') (A') (A') (A') (A') (A') (A') (A') (A')
                 (A') (A') (A") (A') (A') (A') (A') (A") (A") (A')
                 (A') (A') (A') (A") (A") (A") (A")
       Virtual   (A") (A") (A") (A") (A') (A') (A') (A') (A") (A')
                 (A') (A") (A') (A') (A") (A') (A") (A') (A') (A')
                 (A") (A") (A') (A') (A') (A") (A') (A") (A') (A')
                 (A") (A') (A") (A') (A') (A') (A') (A') (A") (A')
                 (A") (A') (A') (A") (A") (A') (A") (A') (A") (A')
                 (A') (A') (A') (A') (A') (A") (A') (A') (A') (A')
                 (A') (A") (A') (A') (A') (A') (A") (A') (A') (A')
                 (A') (A') (A') (A') (A') (A') (A') (A') (A') (A')
                 (A') (A') (A') (A') (A') (A') (A') (A') (A') (A')
                 (A') (A') (A') (A') (A") (A') (A") (A") (A') (A")
                 (A') (A') (A') (A') (A") (A") (A') (A") (A") (A')
                 (A') (A') (A") (A') (A') (A") (A') (A") (A') (A")
                 (A") (A') (A") (A') (A') (A') (A") (A') (A') (A')
                 (A') (A') (A') (A') (A') (A') (A') (A') (A') (A')
                 (A') (A') (A') (A") (A') (A') (A') (A') (A') (A')
                 (A') (A') (A") (A') (A") (A') (A") (A") (A') (A")
                 (A") (A') (A') (A") (A") (A") (A') (A") (A') (A')
                 (A') (A') (A') (A") (A") (A') (A') (A') (A') (A")
                 (A') (A') (A') (A") (A') (A") (A') (A') (A") (A")
                 (A") (A') (A') (A") (A") (A') (A') (A') (A') (A')
                 (A") (A") (A") (A') (A') (A") (A') (A") (A') (A')
                 (A') (A") (A') (A") (A") (A') (A") (A') (A') (A")
                 (A') (A') (A') (A') (A") (A') (A') (A') (A") (A")
                 (A') (A') (A') (A") (A') (A') (A') (A") (A") (A')
                 (A") (A') (A') (A") (A') (A') (A') (A') (A') (A')
                 (A") (A') (A') (A') (A') (A") (A") (A") (A') (A')
                 (A') (A') (A') (A') (A') (A') (A") (A') (A') (A')
                 (A') (A") (A') (A") (A") (A") (A') (A") (A') (A")
                 (A') (A") (A") (A') (A") (A") (A') (A') (A') (A')
                 (A') (A') (A') (A') (A') (A') (A') (A') (A') (A')
                 (A') (A') (A') (A') (A") (A') (A') (A') (A') (A')
                 (A') (A') (A') (A') (A') (A') (A') (A') (A') (A')
                 (A') (A') (A') (A') (A') (A') (A') (A') (A') (A')
                 (A') (A')
     4 initial guesses have been made.
 Convergence on wavefunction:    0.001000000000000
 Iteration     1 Dimension     4 NMult     0 NNew      4
 CISAX will form     4 AO SS matrices at one time.
 Iteration     2 Dimension     6 NMult     4 NNew      2
 Iteration     3 Dimension     8 NMult     6 NNew      2
 Iteration     4 Dimension    10 NMult     8 NNew      2
 Iteration     5 Dimension    12 NMult    10 NNew      2
 Iteration     6 Dimension    14 NMult    12 NNew      2
 ***********************************************************************
 Excited states from <AA,BB:AA,BB> singles matrix:
 ***********************************************************************
 
 Ground to excited state transition densities written to RWF  633
 Ground to excited state transition electric dipole moments (Au):
       state          X           Y           Z        Dip. S.      Osc.
         1        -0.5328      0.3040     -0.0000      0.3764      0.0257
 Ground to excited state transition velocity dipole moments (Au):
       state          X           Y           Z        Dip. S.      Osc.
         1         0.0622     -0.0329     -0.0000      0.0050      0.0322
 Ground to excited state transition magnetic dipole moments (Au):
       state          X           Y           Z
         1        -0.0000     -0.0000     -0.1253
 Ground to excited state transition velocity quadrupole moments (Au):
       state          XX          YY          ZZ          XY          XZ          YZ
         1         0.1317      0.1853     -0.0094      0.1332      0.0000      0.0000
 <0|del|b> * <b|rxdel|0> + <0|del|b> * <b|delr+rdel|0>
 Rotatory Strengths (R) in cgs (10**-40 erg-esu-cm/Gauss)
       state          XX          YY          ZZ    R(velocity)    E-M Angle
         1         0.0000      0.0000     -0.0000      0.0000       90.00
 1/2[<0|r|b>*<b|rxdel|0> + (<0|rxdel|b>*<b|r|0>)*]
 Rotatory Strengths (R) in cgs (10**-40 erg-esu-cm/Gauss)
       state          XX          YY          ZZ     R(length)
         1        -0.0000      0.0000     -0.0000     -0.0000
  1/2[<0|del|b>*<b|r|0> + (<0|r|b>*<b|del|0>)*] (Au)
       state          X           Y           Z        Dip. S.   Osc.(frdel)
         1        -0.0332     -0.0100      0.0000      0.0432      0.0288

 Excitation energies and oscillator strengths:
 
 Excited State   1:      Singlet-A'     2.7918 eV  444.10 nm  f=0.0257  <S**2>=0.000
      47 -> 48         0.70396
 This state for optimization and/or second-order correction.
 Total Energy, E(TD-HF/TD-DFT) =  -539.656681169    
 Copying the excited state density for this state as the 1-particle RhoCI density.
 SavETr:  write IOETrn=   770 NScale= 10 NData=  16 NLR=1 NState=    1 LETran=      28.

 **********************************************************************

            Population analysis using the SCF Density.

 **********************************************************************

 Orbital symmetries:
       Occupied  (A') (A') (A') (A') (A') (A') (A') (A') (A') (A')
                 (A') (A') (A') (A') (A') (A') (A') (A') (A') (A')
                 (A') (A') (A') (A') (A') (A') (A') (A') (A') (A')
                 (A') (A') (A") (A') (A') (A') (A') (A") (A") (A')
                 (A') (A') (A') (A") (A") (A") (A")
       Virtual   (A") (A") (A") (A") (A') (A') (A') (A') (A") (A')
                 (A') (A") (A') (A') (A") (A') (A") (A') (A') (A')
                 (A") (A") (A') (A') (A') (A") (A') (A") (A') (A')
                 (A") (A') (A") (A') (A') (A') (A') (A') (A") (A')
                 (A") (A') (A') (A") (A") (A') (A") (A') (A") (A')
                 (A') (A') (A') (A') (A') (A") (A') (A') (A') (A')
                 (A') (A") (A') (A') (A') (A') (A") (A') (A') (A')
                 (A') (A') (A') (A') (A') (A') (A') (A') (A') (A')
                 (A') (A') (A') (A') (A') (A') (A') (A') (A') (A')
                 (A') (A') (A') (A') (A") (A') (A") (A") (A') (A")
                 (A') (A') (A') (A') (A") (A") (A') (A") (A") (A')
                 (A') (A') (A") (A') (A') (A") (A') (A") (A') (A")
                 (A") (A') (A") (A') (A') (A') (A") (A') (A') (A')
                 (A') (A') (A') (A') (A') (A') (A') (A') (A') (A')
                 (A') (A') (A') (A") (A') (A') (A') (A') (A') (A')
                 (A') (A') (A") (A') (A") (A') (A") (A") (A') (A")
                 (A") (A') (A') (A") (A") (A") (A') (A") (A') (A')
                 (A') (A') (A') (A") (A") (A') (A') (A') (A') (A")
                 (A') (A') (A') (A") (A') (A") (A') (A') (A") (A")
                 (A") (A') (A') (A") (A") (A') (A') (A') (A') (A')
                 (A") (A") (A") (A') (A') (A") (A') (A") (A') (A')
                 (A') (A") (A') (A") (A") (A') (A") (A') (A') (A")
                 (A') (A') (A') (A') (A") (A') (A') (A') (A") (A")
                 (A') (A') (A') (A") (A') (A') (A') (A") (A") (A')
                 (A") (A') (A') (A") (A') (A') (A') (A') (A') (A')
                 (A") (A') (A') (A') (A') (A") (A") (A") (A') (A')
                 (A') (A') (A') (A') (A') (A') (A") (A') (A') (A')
                 (A') (A") (A') (A") (A") (A") (A') (A") (A') (A")
                 (A') (A") (A") (A') (A") (A") (A') (A') (A') (A')
                 (A') (A') (A') (A') (A') (A') (A') (A') (A') (A')
                 (A') (A') (A') (A') (A") (A') (A') (A') (A') (A')
                 (A') (A') (A') (A') (A') (A') (A') (A') (A') (A')
                 (A') (A') (A') (A') (A') (A') (A') (A') (A') (A')
                 (A') (A')
 The electronic state is 1-A'.
 Alpha  occ. eigenvalues --  -10.77670 -10.73503 -10.73066 -10.72620 -10.72270
 Alpha  occ. eigenvalues --  -10.71575 -10.71389 -10.71164 -10.71005 -10.70616
 Alpha  occ. eigenvalues --  -10.70072 -10.69875 -10.69764 -10.69519  -1.16413
 Alpha  occ. eigenvalues --   -1.12438  -1.06945  -1.05675  -1.01309  -1.00171
 Alpha  occ. eigenvalues --   -0.95752  -0.91034  -0.86417  -0.85883  -0.83797
 Alpha  occ. eigenvalues --   -0.78381  -0.76004  -0.74405  -0.69618  -0.69248
 Alpha  occ. eigenvalues --   -0.68455  -0.68154  -0.68113  -0.64830  -0.64250
 Alpha  occ. eigenvalues --   -0.62938  -0.61817  -0.60159  -0.59558  -0.59112
 Alpha  occ. eigenvalues --   -0.56883  -0.55240  -0.54753  -0.52444  -0.46721
 Alpha  occ. eigenvalues --   -0.46080  -0.44387
 Alpha virt. eigenvalues --   -0.26108  -0.14665  -0.14095  -0.12776  -0.11178
 Alpha virt. eigenvalues --   -0.10082  -0.09235  -0.07979  -0.07972  -0.07476
 Alpha virt. eigenvalues --   -0.07198  -0.07140  -0.05646  -0.05578  -0.05332
 Alpha virt. eigenvalues --   -0.03830  -0.03648  -0.03277  -0.03136  -0.02166
 Alpha virt. eigenvalues --   -0.01361  -0.00933   0.00199   0.00592   0.00634
 Alpha virt. eigenvalues --    0.01057   0.01514   0.01946   0.02201   0.02304
 Alpha virt. eigenvalues --    0.02449   0.02667   0.02748   0.03330   0.03418
 Alpha virt. eigenvalues --    0.04240   0.04496   0.04705   0.05036   0.05370
 Alpha virt. eigenvalues --    0.06035   0.06287   0.06591   0.07030   0.07264
 Alpha virt. eigenvalues --    0.07891   0.08140   0.08350   0.08539   0.08925
 Alpha virt. eigenvalues --    0.09525   0.09568   0.10013   0.10839   0.10976
 Alpha virt. eigenvalues --    0.11126   0.12142   0.12239   0.12847   0.12978
 Alpha virt. eigenvalues --    0.13415   0.13527   0.13998   0.14382   0.16079
 Alpha virt. eigenvalues --    0.16337   0.16418   0.17340   0.17588   0.17796
 Alpha virt. eigenvalues --    0.18109   0.19090   0.19276   0.19606   0.19751
 Alpha virt. eigenvalues --    0.21498   0.21589   0.22701   0.23103   0.23540
 Alpha virt. eigenvalues --    0.23887   0.24603   0.25452   0.26922   0.27592
 Alpha virt. eigenvalues --    0.28822   0.29270   0.29835   0.31337   0.35756
 Alpha virt. eigenvalues --    0.36398   0.38194   0.39270   0.41129   0.41388
 Alpha virt. eigenvalues --    0.41925   0.42218   0.42985   0.43646   0.44305
 Alpha virt. eigenvalues --    0.44906   0.45051   0.46025   0.46223   0.47986
 Alpha virt. eigenvalues --    0.48502   0.48818   0.49045   0.50428   0.51029
 Alpha virt. eigenvalues --    0.51394   0.51754   0.52122   0.52838   0.53995
 Alpha virt. eigenvalues --    0.54099   0.54592   0.55678   0.55784   0.57616
 Alpha virt. eigenvalues --    0.58234   0.58831   0.61435   0.62243   0.62343
 Alpha virt. eigenvalues --    0.63187   0.63483   0.64881   0.65141   0.67181
 Alpha virt. eigenvalues --    0.70435   0.70614   0.71030   0.72405   0.72857
 Alpha virt. eigenvalues --    0.75744   0.76018   0.76289   0.76867   0.77097
 Alpha virt. eigenvalues --    0.77828   0.77861   0.78204   0.79911   0.80382
 Alpha virt. eigenvalues --    0.81210   0.81647   0.82199   0.82996   0.85153
 Alpha virt. eigenvalues --    0.87109   0.88114   0.88477   0.89167   0.90433
 Alpha virt. eigenvalues --    0.91002   0.91295   0.93205   0.94602   0.96372
 Alpha virt. eigenvalues --    0.96708   1.00389   1.01245   1.01672   1.02725
 Alpha virt. eigenvalues --    1.03199   1.03584   1.04752   1.05683   1.08749
 Alpha virt. eigenvalues --    1.19529   1.23227   1.24043   1.25012   1.28058
 Alpha virt. eigenvalues --    1.29673   1.31801   1.34373   1.35733   1.35985
 Alpha virt. eigenvalues --    1.39297   1.40038   1.40914   1.43076   1.43449
 Alpha virt. eigenvalues --    1.43493   1.44637   1.45879   1.46336   1.46650
 Alpha virt. eigenvalues --    1.47648   1.47998   1.51655   1.53611   1.55518
 Alpha virt. eigenvalues --    1.55827   1.56318   1.56598   1.57737   1.61380
 Alpha virt. eigenvalues --    1.63250   1.63452   1.63917   1.66064   1.68228
 Alpha virt. eigenvalues --    1.68348   1.68738   1.69782   1.74329   1.75961
 Alpha virt. eigenvalues --    1.77105   1.78052   1.79832   1.80056   1.80696
 Alpha virt. eigenvalues --    1.83058   1.83217   1.83549   1.83825   1.84202
 Alpha virt. eigenvalues --    1.84312   1.85744   1.86165   1.88225   1.91364
 Alpha virt. eigenvalues --    1.92038   1.94082   1.95172   1.97684   1.98115
 Alpha virt. eigenvalues --    1.99695   2.02167   2.04350   2.07265   2.11767
 Alpha virt. eigenvalues --    2.12018   2.14121   2.15233   2.19004   2.21110
 Alpha virt. eigenvalues --    2.22774   2.28687   2.29944   2.34524   2.34871
 Alpha virt. eigenvalues --    2.36240   2.38663   2.39605   2.42323   2.44992
 Alpha virt. eigenvalues --    2.46121   2.46190   2.49288   2.52864   2.53768
 Alpha virt. eigenvalues --    2.54060   2.56928   2.57837   2.58322   2.59566
 Alpha virt. eigenvalues --    2.59832   2.61558   2.62098   2.63507   2.63722
 Alpha virt. eigenvalues --    2.64774   2.65066   2.65150   2.65379   2.67777
 Alpha virt. eigenvalues --    2.68390   2.70924   2.71418   2.73335   2.74799
 Alpha virt. eigenvalues --    2.76301   2.78470   2.79667   2.82701   2.83055
 Alpha virt. eigenvalues --    2.84832   2.86194   2.92070   2.97054   2.99462
 Alpha virt. eigenvalues --    3.00029   3.04715   3.10515   3.11233   3.13250
 Alpha virt. eigenvalues --    3.20731   3.22798   3.26501   3.28201   3.30639
 Alpha virt. eigenvalues --    3.32769   3.33821   3.43493   3.45935   3.46382
 Alpha virt. eigenvalues --    3.48268   3.49957   3.56301   3.66581   3.66661
 Alpha virt. eigenvalues --    3.67447   3.94139   3.94378   3.95300   3.96210
 Alpha virt. eigenvalues --    4.03969   4.06742   4.07416   4.12557   4.35204
 Alpha virt. eigenvalues --    4.60764   4.69596   4.71488  23.45331  23.60336
 Alpha virt. eigenvalues --   23.81722  23.84522  23.87088  23.88987  23.90891
 Alpha virt. eigenvalues --   23.93193  23.96823  23.98327  24.00627  24.01884
 Alpha virt. eigenvalues --   24.10607  24.10984
          Condensed to atoms (all electrons):
               1          2          3          4          5          6
     1  C    8.551975   0.326056  -0.574176   1.997596  -0.039303  -0.092524
     2  C    0.326056   7.206350   0.371699  -1.094066  -0.019695  -0.014360
     3  C   -0.574176   0.371699   6.596312   0.760546  -0.122066   0.016925
     4  C    1.997596  -1.094066   0.760546  11.396036  -0.424342  -0.134264
     5  C   -0.039303  -0.019695  -0.122066  -0.424342  11.039644   0.808667
     6  C   -0.092524  -0.014360   0.016925  -0.134264   0.808667   6.593773
     7  C   -0.018086  -0.000664  -0.013525   0.003348  -1.184057   0.296155
     8  C    0.400170  -0.004947  -0.100940  -0.076283   2.210199  -0.459279
     9  C   -1.080678  -0.847881   0.301242  -0.073946  -0.265210   0.300868
    10  C   -1.289412   0.224391  -0.310837  -2.685642  -2.512501  -0.383606
    11  C    0.342521  -0.833118   0.946422  -0.343736  -1.476199  -0.145394
    12  C   -2.152613   1.267008  -1.395752  -1.742227  -0.292487  -0.234488
    13  C    0.244776  -0.226887  -0.193539  -1.551736  -0.336257   1.039296
    14  C   -1.113744  -0.230155  -0.162367  -0.391479  -1.735863  -1.466855
    15  H    0.369687  -0.108782  -0.001685   0.027532   0.005822   0.001158
    16  H   -0.019794   0.382212  -0.019576   0.014839  -0.001601  -0.000342
    17  H   -0.024395  -0.018748   0.378218  -0.069967   0.000253   0.000411
    18  H    0.050564   0.003191  -0.084074   0.465511   0.005078  -0.005155
    19  H   -0.045610  -0.008079   0.051645  -0.074029  -0.065769   0.051873
    20  H    0.006885   0.002119  -0.005253   0.005105   0.460147  -0.084375
    21  H   -0.001270  -0.000410   0.000399   0.000385  -0.068349   0.372508
    22  H    0.000607   0.000352  -0.000315  -0.001441   0.011939  -0.015638
    23  H    0.005859  -0.002451   0.001051   0.005003   0.029493   0.000253
    24  H    0.036100   0.015335  -0.001527  -0.011733  -0.012544  -0.001733
    25  H    0.036100   0.015335  -0.001527  -0.011733  -0.012544  -0.001733
               7          8          9         10         11         12
     1  C   -0.018086   0.400170  -1.080678  -1.289412   0.342521  -2.152613
     2  C   -0.000664  -0.004947  -0.847881   0.224391  -0.833118   1.267008
     3  C   -0.013525  -0.100940   0.301242  -0.310837   0.946422  -1.395752
     4  C    0.003348  -0.076283  -0.073946  -2.685642  -0.343736  -1.742227
     5  C   -1.184057   2.210199  -0.265210  -2.512501  -1.476199  -0.292487
     6  C    0.296155  -0.459279   0.300868  -0.383606  -0.145394  -0.234488
     7  C    7.212993   0.098668  -0.812737   0.303566  -0.267392  -0.137832
     8  C    0.098668   8.824848  -1.075812  -1.365951   0.286237  -1.079004
     9  C   -0.812737  -1.075812   9.532242   0.268556   1.489550  -1.942722
    10  C    0.303566  -1.365951   0.268556   9.056353  -0.300608   2.398889
    11  C   -0.267392   0.286237   1.489550  -0.300608  14.384002  -3.857141
    12  C   -0.137832  -1.079004  -1.942722   2.398889  -3.857141  16.170765
    13  C   -0.915557   0.327428   1.431017  -0.368640   1.109035  -4.712161
    14  C    1.565251  -2.489405  -1.781600   2.431309  -4.759876   3.213160
    15  H   -0.002715   0.005102   0.089043  -0.008931  -0.030159  -0.019776
    16  H    0.000388   0.000876   0.001917  -0.009418   0.023937  -0.029854
    17  H   -0.000391  -0.001344  -0.005128   0.020069  -0.025792   0.090650
    18  H    0.002158   0.006901  -0.023386   0.007427  -0.005583  -0.054661
    19  H   -0.007720  -0.047431   0.074662   0.421664   0.077267  -0.074418
    20  H    0.002332   0.053443  -0.024865   0.010623  -0.012063  -0.012889
    21  H   -0.012336  -0.029862  -0.005798   0.020125  -0.006202   0.005328
    22  H    0.378186  -0.018292   0.002871  -0.008386   0.002737  -0.008425
    23  H   -0.109788   0.371213   0.092176  -0.010320   0.003745   0.005623
    24  H    0.014077   0.032066   0.354538   0.005110   0.018627  -0.060686
    25  H    0.014077   0.032066   0.354538   0.005110   0.018627  -0.060686
              13         14         15         16         17         18
     1  C    0.244776  -1.113744   0.369687  -0.019794  -0.024395   0.050564
     2  C   -0.226887  -0.230155  -0.108782   0.382212  -0.018748   0.003191
     3  C   -0.193539  -0.162367  -0.001685  -0.019576   0.378218  -0.084074
     4  C   -1.551736  -0.391479   0.027532   0.014839  -0.069967   0.465511
     5  C   -0.336257  -1.735863   0.005822  -0.001601   0.000253   0.005078
     6  C    1.039296  -1.466855   0.001158  -0.000342   0.000411  -0.005155
     7  C   -0.915557   1.565251  -0.002715   0.000388  -0.000391   0.002158
     8  C    0.327428  -2.489405   0.005102   0.000876  -0.001344   0.006901
     9  C    1.431017  -1.781600   0.089043   0.001917  -0.005128  -0.023386
    10  C   -0.368640   2.431309  -0.008931  -0.009418   0.020069   0.007427
    11  C    1.109035  -4.759876  -0.030159   0.023937  -0.025792  -0.005583
    12  C   -4.712161   3.213160  -0.019776  -0.029854   0.090650  -0.054661
    13  C   14.257000  -3.530148  -0.000769   0.003167  -0.006242  -0.012222
    14  C   -3.530148  15.977406   0.006926  -0.009610   0.005311  -0.018383
    15  H   -0.000769   0.006926   0.437468  -0.009083   0.001566   0.000180
    16  H    0.003167  -0.009610  -0.009083   0.418369  -0.006845   0.001955
    17  H   -0.006242   0.005311   0.001566  -0.006845   0.421399  -0.010316
    18  H   -0.012222  -0.018383   0.000180   0.001955  -0.010316   0.452149
    19  H    0.079180  -0.057662   0.000364  -0.000578   0.001561  -0.006107
    20  H   -0.002862  -0.062077  -0.000120   0.000018  -0.000155   0.001237
    21  H   -0.026393   0.095449   0.000016  -0.000007   0.000011  -0.000135
    22  H    0.024334  -0.031151  -0.000127   0.000008  -0.000007   0.000014
    23  H   -0.031937  -0.029652   0.000545  -0.000130   0.000013  -0.000110
    24  H    0.009290  -0.060794  -0.000947   0.000634  -0.000141   0.000173
    25  H    0.009290  -0.060794  -0.000947   0.000634  -0.000141   0.000173
              19         20         21         22         23         24
     1  C   -0.045610   0.006885  -0.001270   0.000607   0.005859   0.036100
     2  C   -0.008079   0.002119  -0.000410   0.000352  -0.002451   0.015335
     3  C    0.051645  -0.005253   0.000399  -0.000315   0.001051  -0.001527
     4  C   -0.074029   0.005105   0.000385  -0.001441   0.005003  -0.011733
     5  C   -0.065769   0.460147  -0.068349   0.011939   0.029493  -0.012544
     6  C    0.051873  -0.084375   0.372508  -0.015638   0.000253  -0.001733
     7  C   -0.007720   0.002332  -0.012336   0.378186  -0.109788   0.014077
     8  C   -0.047431   0.053443  -0.029862  -0.018292   0.371213   0.032066
     9  C    0.074662  -0.024865  -0.005798   0.002871   0.092176   0.354538
    10  C    0.421664   0.010623   0.020125  -0.008386  -0.010320   0.005110
    11  C    0.077267  -0.012063  -0.006202   0.002737   0.003745   0.018627
    12  C   -0.074418  -0.012889   0.005328  -0.008425   0.005623  -0.060686
    13  C    0.079180  -0.002862  -0.026393   0.024334  -0.031937   0.009290
    14  C   -0.057662  -0.062077   0.095449  -0.031151  -0.029652  -0.060794
    15  H    0.000364  -0.000120   0.000016  -0.000127   0.000545  -0.000947
    16  H   -0.000578   0.000018  -0.000007   0.000008  -0.000130   0.000634
    17  H    0.001561  -0.000155   0.000011  -0.000007   0.000013  -0.000141
    18  H   -0.006107   0.001237  -0.000135   0.000014  -0.000110   0.000173
    19  H    0.443068  -0.006570   0.001310  -0.000524   0.000286   0.000565
    20  H   -0.006570   0.456600  -0.010440   0.001920   0.000103   0.000208
    21  H    0.001310  -0.010440   0.423487  -0.006362   0.001378  -0.000147
    22  H   -0.000524   0.001920  -0.006362   0.421028  -0.009082   0.000637
    23  H    0.000286   0.000103   0.001378  -0.009082   0.441860  -0.000918
    24  H    0.000565   0.000208  -0.000147   0.000637  -0.000918   0.492722
    25  H    0.000565   0.000208  -0.000147   0.000637  -0.000918  -0.078167
              25
     1  C    0.036100
     2  C    0.015335
     3  C   -0.001527
     4  C   -0.011733
     5  C   -0.012544
     6  C   -0.001733
     7  C    0.014077
     8  C    0.032066
     9  C    0.354538
    10  C    0.005110
    11  C    0.018627
    12  C   -0.060686
    13  C    0.009290
    14  C   -0.060794
    15  H   -0.000947
    16  H    0.000634
    17  H   -0.000141
    18  H    0.000173
    19  H    0.000565
    20  H    0.000208
    21  H   -0.000147
    22  H    0.000637
    23  H   -0.000918
    24  H   -0.078167
    25  H    0.492722
 Mulliken charges:
               1
     1  C    0.082710
     2  C   -0.403805
     3  C   -0.437297
     4  C    0.010723
     5  C   -0.002455
     6  C   -0.442142
     7  C   -0.408399
     8  C    0.099331
     9  C   -0.353458
    10  C    0.081060
    11  C   -0.639444
    12  C    0.716399
    13  C   -0.618463
    14  C    0.696802
    15  H    0.238631
    16  H    0.257882
    17  H    0.250148
    18  H    0.223419
    19  H    0.190485
    20  H    0.220720
    21  H    0.247463
    22  H    0.254480
    23  H    0.236703
    24  H    0.249254
    25  H    0.249254
 Sum of Mulliken charges =   1.00000
 Mulliken charges with hydrogens summed into heavy atoms:
               1
     1  C    0.321341
     2  C   -0.145923
     3  C   -0.187150
     4  C    0.234142
     5  C    0.218265
     6  C   -0.194678
     7  C   -0.153919
     8  C    0.336034
     9  C    0.145049
    10  C    0.271545
    11  C   -0.639444
    12  C    0.716399
    13  C   -0.618463
    14  C    0.696802
 Electronic spatial extent (au):  <R**2>=           2858.3553
 Charge=              1.0000 electrons
 Dipole moment (field-independent basis, Debye):
    X=             -0.0286    Y=             -0.4610    Z=              0.0000  Tot=              0.4619
 Quadrupole moment (field-independent basis, Debye-Ang):
   XX=            -50.8642   YY=            -36.4727   ZZ=            -84.1420
   XY=             10.3545   XZ=             -0.0000   YZ=              0.0000
 Traceless Quadrupole moment (field-independent basis, Debye-Ang):
   XX=              6.2954   YY=             20.6869   ZZ=            -26.9823
   XY=             10.3545   XZ=             -0.0000   YZ=              0.0000
 Octapole moment (field-independent basis, Debye-Ang**2):
  XXX=             -1.0244  YYY=              1.5504  ZZZ=             -0.0000  XYY=             -1.4385
  XXY=             -6.3664  XXZ=              0.0000  XZZ=             -3.0399  YZZ=              0.9294
  YYZ=              0.0000  XYZ=             -0.0000
 Hexadecapole moment (field-independent basis, Debye-Ang**3):
 XXXX=           -995.2052 YYYY=          -1845.7748 ZZZZ=            -99.3460 XXXY=           -349.6154
 XXXZ=             -0.0000 YYYX=           -276.0441 YYYZ=              0.0000 ZZZX=             -0.0000
 ZZZY=              0.0000 XXYY=           -454.2961 XXZZ=           -243.2451 YYZZ=           -493.8153
 XXYZ=              0.0000 YYXZ=             -0.0000 ZZXY=           -184.1694
 N-N= 7.808510675125D+02 E-N=-2.798034103282D+03  KE= 5.374908186094D+02
 Symmetry A'   KE= 5.228426025550D+02
 Symmetry A"   KE= 1.464821605441D+01
 Unable to Open any file for archive entry.
 1\1\GINC-GADI-CPU-CLX-0648\SP\RM062X TD-FC\6-311++G(d,p)\C14H11(1+)\TS
 1578\27-Jul-2022\0\\#n M062X/6-311++G(d,p) TD(NStates=1) EmpiricalDisp
 ersion=GD3 SP\\SP_50\\1,1\C,0,2.48575,1.3685,0.\C,0,3.690825,0.6748,0.
 \C,0,3.6815,-0.71615,0.\C,0,2.475075,-1.406075,0.\C,0,-2.451675,-1.392
 425,0.\C,0,-3.6884,-0.69755,0.\C,0,-3.7155,0.685375,0.\C,0,-2.5063,1.3
 676,0.\C,0,-0.00665,1.4698,0.\C,0,0.0183,-1.42085,0.\C,0,1.2651,0.6915
 25,0.\C,0,1.2443,-0.722475,0.\C,0,-1.259625,0.68005,0.\C,0,-1.2293,-0.
 720675,0.\H,0,2.4888,2.4515,0.\H,0,4.626325,1.214775,0.\H,0,4.612,-1.2
 6555,0.\H,0,2.47245,-2.4883,0.\H,0,0.016875,-2.501775,0.\H,0,-2.4615,-
 2.475025,0.\H,0,-4.60765,-1.266225,0.\H,0,-4.6513,1.2234,0.\H,0,-2.495
 1,2.450825,0.\H,0,-0.024,2.15625,-0.861525\H,0,-0.024,2.15625,0.861525
 \\Version=ES64L-G16RevC.01\State=1-A'\HF=-539.7592774\RMSD=6.718e-09\P
 G=CS [SG(C14H9),X(H2)]\\@
 The archive entry for this job was punched.


 TRUST EVERYONE, BUT CUT THE CARDS.
 Job cpu time:       0 days  0 hours 46 minutes  6.8 seconds.
 Elapsed time:       0 days  0 hours  1 minutes 29.0 seconds.
 File lengths (MBytes):  RWF=    460 Int=      0 D2E=      0 Chk=     15 Scr=      1
 Normal termination of Gaussian 16 at Wed Jul 27 11:56:55 2022.
