 Entering Gaussian System, Link 0=g16
 Initial command:
 /apps/gaussian/g16c01/g16/l1.exe "/jobfs/52804872.gadi-pbs/Gau-1772662.inp" -scrdir="/jobfs/52804872.gadi-pbs/"
 Entering Link 1 = /apps/gaussian/g16c01/g16/l1.exe PID=   1772663.
  
 Copyright (c) 1988-2019, Gaussian, Inc.  All Rights Reserved.
  
 This is part of the Gaussian(R) 16 program.  It is based on
 the Gaussian(R) 09 system (copyright 2009, Gaussian, Inc.),
 the Gaussian(R) 03 system (copyright 2003, Gaussian, Inc.),
 the Gaussian(R) 98 system (copyright 1998, Gaussian, Inc.),
 the Gaussian(R) 94 system (copyright 1995, Gaussian, Inc.),
 the Gaussian 92(TM) system (copyright 1992, Gaussian, Inc.),
 the Gaussian 90(TM) system (copyright 1990, Gaussian, Inc.),
 the Gaussian 88(TM) system (copyright 1988, Gaussian, Inc.),
 the Gaussian 86(TM) system (copyright 1986, Carnegie Mellon
 University), and the Gaussian 82(TM) system (copyright 1983,
 Carnegie Mellon University). Gaussian is a federally registered
 trademark of Gaussian, Inc.
  
 This software contains proprietary and confidential information,
 including trade secrets, belonging to Gaussian, Inc.
  
 This software is provided under written license and may be
 used, copied, transmitted, or stored only in accord with that
 written license.
  
 The following legend is applicable only to US Government
 contracts under FAR:
  
                    RESTRICTED RIGHTS LEGEND
  
 Use, reproduction and disclosure by the US Government is
 subject to restrictions as set forth in subparagraphs (a)
 and (c) of the Commercial Computer Software - Restricted
 Rights clause in FAR 52.227-19.
  
 Gaussian, Inc.
 340 Quinnipiac St., Bldg. 40, Wallingford CT 06492
  
  
 ---------------------------------------------------------------
 Warning -- This program may not be used in any manner that
 competes with the business of Gaussian, Inc. or will provide
 assistance to any competitor of Gaussian, Inc.  The licensee
 of this program is prohibited from giving any competitor of
 Gaussian, Inc. access to this program.  By using this program,
 the user acknowledges that Gaussian, Inc. is engaged in the
 business of creating and licensing software in the field of
 computational chemistry and represents and warrants to the
 licensee that it is not a competitor of Gaussian, Inc. and that
 it will not use this program in any manner prohibited above.
 ---------------------------------------------------------------
  

 Cite this work as:
 Gaussian 16, Revision C.01,
 M. J. Frisch, G. W. Trucks, H. B. Schlegel, G. E. Scuseria, 
 M. A. Robb, J. R. Cheeseman, G. Scalmani, V. Barone, 
 G. A. Petersson, H. Nakatsuji, X. Li, M. Caricato, A. V. Marenich, 
 J. Bloino, B. G. Janesko, R. Gomperts, B. Mennucci, H. P. Hratchian, 
 J. V. Ortiz, A. F. Izmaylov, J. L. Sonnenberg, D. Williams-Young, 
 F. Ding, F. Lipparini, F. Egidi, J. Goings, B. Peng, A. Petrone, 
 T. Henderson, D. Ranasinghe, V. G. Zakrzewski, J. Gao, N. Rega, 
 G. Zheng, W. Liang, M. Hada, M. Ehara, K. Toyota, R. Fukuda, 
 J. Hasegawa, M. Ishida, T. Nakajima, Y. Honda, O. Kitao, H. Nakai, 
 T. Vreven, K. Throssell, J. A. Montgomery, Jr., J. E. Peralta, 
 F. Ogliaro, M. J. Bearpark, J. J. Heyd, E. N. Brothers, K. N. Kudin, 
 V. N. Staroverov, T. A. Keith, R. Kobayashi, J. Normand, 
 K. Raghavachari, A. P. Rendell, J. C. Burant, S. S. Iyengar, 
 J. Tomasi, M. Cossi, J. M. Millam, M. Klene, C. Adamo, R. Cammi, 
 J. W. Ochterski, R. L. Martin, K. Morokuma, O. Farkas, 
 J. B. Foresman, and D. J. Fox, Gaussian, Inc., Wallingford CT, 2019.
 
 ******************************************
 Gaussian 16:  ES64L-G16RevC.01  3-Jul-2019
                27-Jul-2022 
 ******************************************
 %NProcShared=32
 Will use up to   32 processors via shared memory.
 %mem = 128GB
 ---------------------------------------------------------------
 #n M062X/6-311++G(d,p) TD(NStates=1) EmpiricalDispersion=GD3 SP
 ---------------------------------------------------------------
 1/38=1,172=1/1;
 2/12=2,17=6,18=5,40=1/2;
 3/5=4,6=6,7=1111,11=9,25=1,30=1,74=-55,124=31/1,2,3,8;
 4//1;
 5/5=2,38=5/2;
 8/6=1,10=2,108=1/1;
 9/41=1,42=1,70=2/14;
 6/7=2,8=2,9=2,10=2/1;
 99/5=1,9=1/99;
 ------
 SP_125
 ------
 Symbolic Z-matrix:
 Charge =  1 Multiplicity = 1
 C                     2.5122    1.3676    0. 
 C                     3.72325   0.68908   0. 
 C                     3.6904   -0.69085   0. 
 C                     2.44383  -1.38778   0. 
 C                    -2.48283  -1.41053   0. 
 C                    -3.6789   -0.72185   0. 
 C                    -3.68213   0.67145   0. 
 C                    -2.47795   1.3691    0. 
 C                     0.01088   1.4676    0. 
 C                    -0.0305   -1.42075   0. 
 C                     1.25773   0.6762    0. 
 C                     1.2245   -0.72023   0. 
 C                    -1.26685   0.69533   0. 
 C                    -1.2495   -0.72323   0. 
 H                     2.4961    2.45093   0. 
 H                     4.65905   1.22665   0. 
 H                     4.60605  -1.26582   0. 
 H                     2.458    -2.47053   0. 
 H                    -0.02813  -2.50173   0. 
 H                    -2.47625  -2.49265   0. 
 H                    -4.6133   -1.2647    0. 
 H                    -4.61742   1.21227   0. 
 H                    -2.4856    2.45205   0. 
 H                     0.04      2.15575  -0.86098 
 H                     0.04      2.15575   0.86098 
 
                          Input orientation:                          
 ---------------------------------------------------------------------
 Center     Atomic      Atomic             Coordinates (Angstroms)
 Number     Number       Type             X           Y           Z
 ---------------------------------------------------------------------
      1          6           0        2.512200    1.367600    0.000000
      2          6           0        3.723250    0.689075    0.000000
      3          6           0        3.690400   -0.690850    0.000000
      4          6           0        2.443825   -1.387775    0.000000
      5          6           0       -2.482825   -1.410525    0.000000
      6          6           0       -3.678900   -0.721850    0.000000
      7          6           0       -3.682125    0.671450    0.000000
      8          6           0       -2.477950    1.369100    0.000000
      9          6           0        0.010875    1.467600    0.000000
     10          6           0       -0.030500   -1.420750    0.000000
     11          6           0        1.257725    0.676200    0.000000
     12          6           0        1.224500   -0.720225    0.000000
     13          6           0       -1.266850    0.695325    0.000000
     14          6           0       -1.249500   -0.723225    0.000000
     15          1           0        2.496100    2.450925    0.000000
     16          1           0        4.659050    1.226650    0.000000
     17          1           0        4.606050   -1.265825    0.000000
     18          1           0        2.458000   -2.470525    0.000000
     19          1           0       -0.028125   -2.501725    0.000000
     20          1           0       -2.476250   -2.492650    0.000000
     21          1           0       -4.613300   -1.264700    0.000000
     22          1           0       -4.617425    1.212275    0.000000
     23          1           0       -2.485600    2.452050    0.000000
     24          1           0        0.040000    2.155750   -0.860975
     25          1           0        0.040000    2.155750    0.860975
 ---------------------------------------------------------------------
                    Distance matrix (angstroms):
                    1          2          3          4          5
     1  C    0.000000
     2  C    1.388178   0.000000
     3  C    2.371787   1.380316   0.000000
     4  C    2.756223   2.439310   1.428164   0.000000
     5  C    5.715615   6.551617   6.215033   4.926703   0.000000
     6  C    6.534181   7.535419   7.369365   6.158832   1.380170
     7  C    6.233321   7.405396   7.497332   6.462791   2.402694
     8  C    4.990150   6.238374   6.503225   5.641297   2.779629
     9  C    2.503323   3.793129   4.265889   3.751321   3.808168
    10  C    3.773621   4.306042   3.791814   2.474545   2.452346
    11  C    1.432390   2.465559   2.790472   2.380510   4.283239
    12  C    2.452995   2.868776   2.466075   1.390099   3.771044
    13  C    3.838382   4.990104   5.147408   4.255398   2.431707
    14  C    4.303712   5.169413   4.940006   3.752636   1.411904
    15  H    1.083445   2.147094   3.361116   3.839056   6.300833
    16  H    2.151472   1.079217   2.148276   3.426724   7.613217
    17  H    3.364392   2.144987   1.081208   2.165661   7.090352
    18  H    3.838508   3.403517   2.164729   1.082843   5.053252
    19  H    4.628707   4.924837   4.136024   2.711350   2.686312
    20  H    6.307627   6.968298   6.424489   5.042607   1.082145
    21  H    7.596167   8.562436   8.323505   7.058198   2.135460
    22  H    7.131317   8.357069   8.523018   7.524727   3.381656
    23  H    5.114102   6.454293   6.929704   6.248479   3.862576
    24  H    2.733904   4.056938   4.708485   4.367633   4.452442
    25  H    2.733904   4.056938   4.708485   4.367633   4.452442
                    6          7          8          9         10
     6  C    0.000000
     7  C    1.393304   0.000000
     8  C    2.411297   1.391673   0.000000
     9  C    4.290470   3.777844   2.490773   0.000000
    10  C    3.714739   4.208523   3.711236   2.888646   0.000000
    11  C    5.130771   4.939852   3.799392   1.476804   2.461041
    12  C    4.903400   5.100169   4.251284   2.501892   1.437275
    13  C    2.797565   2.415393   1.385906   1.492980   2.450782
    14  C    2.429400   2.804065   2.426296   2.527501   1.404458
    15  H    6.942415   6.429385   5.090336   2.672690   4.623156
    16  H    8.562597   8.359632   7.138421   4.654416   5.385221
    17  H    8.302789   8.511573   7.558167   5.346704   4.639138
    18  H    6.381176   6.897329   6.253505   4.636513   2.700863
    19  H    4.061541   4.839500   4.580931   3.969517   1.080978
    20  H    2.140584   3.386099   3.861750   4.676470   2.670330
    21  H    1.080643   2.148433   3.390667   5.371076   4.585456
    22  H    2.149807   1.080406   2.145215   4.635337   5.288923
    23  H    3.390812   2.145276   1.082977   2.683567   4.585422
    24  H    4.780385   4.098614   2.774918   1.102577   3.679348
    25  H    4.780385   4.098614   2.774918   1.102577   3.679348
                   11         12         13         14         15
    11  C    0.000000
    12  C    1.396820   0.000000
    13  C    2.524647   2.865416   0.000000
    14  C    2.871335   2.474002   1.418656   0.000000
    15  H    2.164075   3.416600   4.152340   4.909659   0.000000
    16  H    3.445578   3.947969   5.949672   6.221975   2.485398
    17  H    3.870755   3.425282   6.191693   5.880636   4.273888
    18  H    3.367869   2.141278   4.888467   4.098611   4.921597
    19  H    3.428209   2.177800   3.428639   2.157503   5.558818
    20  H    4.897365   4.103296   3.409668   2.153086   7.011647
    21  H    6.183529   5.863136   3.878199   3.407102   8.021810
    22  H    5.899556   6.153263   3.390220   3.884466   7.220560
    23  H    4.143202   4.881411   2.138091   3.407391   4.981700
    24  H    2.100762   3.227313   2.140555   3.269952   2.619319
    25  H    2.100762   3.227313   2.140555   3.269952   2.619319
                   16         17         18         19         20
    16  H    0.000000
    17  H    2.493038   0.000000
    18  H    4.302758   2.462808   0.000000
    19  H    5.989189   4.796147   2.486321   0.000000
    20  H    8.046471   7.187772   4.934300   2.448142   0.000000
    21  H    9.601213   9.219350   7.173374   4.749112   2.464720
    22  H    9.276486   9.550574   7.976506   5.903852   4.279147
    23  H    7.248974   8.007128   6.976455   5.529835   4.944709
    24  H    4.789585   5.770378   5.290598   4.736876   5.355410
    25  H    4.789585   5.770378   5.290598   4.736876   5.355410
                   21         22         23         24         25
    21  H    0.000000
    22  H    2.476978   0.000000
    23  H    4.282679   2.466114   0.000000
    24  H    5.839003   4.829392   2.684721   0.000000
    25  H    5.839003   4.829392   2.684721   1.721950   0.000000
 Stoichiometry    C14H11(1+)
 Framework group  CS[SG(C14H9),X(H2)]
 Deg. of freedom    46
 Full point group                 CS      NOp   2
 Largest Abelian subgroup         CS      NOp   2
 Largest concise Abelian subgroup CS      NOp   2
                         Standard orientation:                         
 ---------------------------------------------------------------------
 Center     Atomic      Atomic             Coordinates (Angstroms)
 Number     Number       Type             X           Y           Z
 ---------------------------------------------------------------------
      1          6           0        0.022405    2.855699    0.000000
      2          6           0       -1.144792    3.607158    0.000000
      3          6           0       -2.348185    2.931052    0.000000
      4          6           0       -2.379174    1.503224    0.000000
      5          6           0       -0.089004   -2.858830    0.000000
      6          6           0        1.080136   -3.592303    0.000000
      7          6           0        2.312258   -2.941788    0.000000
      8          6           0        2.363771   -1.551069    0.000000
      9          6           0        1.283679    0.693336    0.000000
     10          6           0       -1.248008   -0.697648    0.000000
     11          6           0        0.000000    1.423484    0.000000
     12          6           0       -1.217790    0.739310    0.000000
     13          6           0        1.200746   -0.797339    0.000000
     14          6           0       -0.060302   -1.447218    0.000000
     15          1           0        0.986784    3.349484    0.000000
     16          1           0       -1.108814    4.685774    0.000000
     17          1           0       -3.285400    3.470162    0.000000
     18          1           0       -3.342143    1.008008    0.000000
     19          1           0       -2.203876   -1.202454    0.000000
     20          1           0       -1.047857   -3.360466    0.000000
     21          1           0        1.038842   -4.672157    0.000000
     22          1           0        3.228526   -3.514267    0.000000
     23          1           0        3.323856   -1.049996    0.000000
     24          1           0        1.877819    1.041756    0.860975
     25          1           0        1.877819    1.041756   -0.860975
 ---------------------------------------------------------------------
 Rotational constants (GHZ):           2.1345761           0.4443182           0.3685680
 Standard basis: 6-311++G(d,p) (5D, 7F)
 There are   299 symmetry adapted cartesian basis functions of A'  symmetry.
 There are   100 symmetry adapted cartesian basis functions of A"  symmetry.
 There are   285 symmetry adapted basis functions of A'  symmetry.
 There are   100 symmetry adapted basis functions of A"  symmetry.
   385 basis functions,   603 primitive gaussians,   399 cartesian basis functions
    47 alpha electrons       47 beta electrons
       nuclear repulsion energy       780.9650526340 Hartrees.
 NAtoms=   25 NActive=   25 NUniq=   24 SFac= 1.09D+00 NAtFMM=   60 NAOKFM=F Big=F
 Integral buffers will be    131072 words long.
 Regular integral format.
 Two-electron integral symmetry is turned on.
 Nuclear repulsion after empirical dispersion term =      780.9640732297 Hartrees.
 One-electron integrals computed using PRISM.
 NBasis=   385 RedAO= T EigKep=  1.13D-06  NBF=   285   100
 NBsUse=   379 1.00D-06 EigRej=  8.41D-07 NBFU=   279   100
 ExpMin= 3.60D-02 ExpMax= 4.56D+03 ExpMxC= 6.82D+02 IAcc=3 IRadAn=         5 AccDes= 0.00D+00
 Harris functional with IExCor= 1009 and IRadAn=       5 diagonalized for initial guess.
 HarFok:  IExCor= 1009 AccDes= 0.00D+00 IRadAn=         5 IDoV= 1 UseB2=F ITyADJ=14
 ICtDFT=  3500011 ScaDFX=  1.000000  1.000000  1.000000  1.000000
 FoFCou: FMM=F IPFlag=           0 FMFlag=      100000 FMFlg1=           0
         NFxFlg=           0 DoJE=T BraDBF=F KetDBF=T FulRan=T
         wScrn=  0.000000 ICntrl=       500 IOpCl=  0 I1Cent=   200000004 NGrid=           0
         NMat0=    1 NMatS0=      1 NMatT0=    0 NMatD0=    1 NMtDS0=    0 NMtDT0=    0
 Petite list used in FoFCou.
 Initial guess orbital symmetries:
       Occupied  (A') (A') (A') (A') (A') (A') (A') (A') (A') (A')
                 (A') (A') (A') (A') (A') (A') (A') (A') (A') (A')
                 (A') (A') (A') (A') (A') (A') (A') (A') (A') (A')
                 (A') (A') (A") (A') (A') (A') (A') (A') (A") (A')
                 (A") (A') (A') (A") (A") (A") (A")
       Virtual   (A") (A") (A") (A") (A") (A') (A') (A') (A') (A")
                 (A") (A') (A') (A') (A") (A') (A') (A') (A') (A")
                 (A') (A") (A') (A') (A') (A") (A') (A") (A') (A')
                 (A') (A') (A') (A') (A") (A') (A") (A') (A') (A')
                 (A") (A') (A') (A") (A') (A') (A') (A') (A") (A')
                 (A') (A') (A") (A") (A') (A') (A') (A") (A") (A')
                 (A') (A') (A') (A') (A') (A') (A") (A') (A') (A")
                 (A') (A') (A') (A') (A') (A') (A') (A') (A') (A')
                 (A') (A') (A') (A') (A') (A') (A') (A') (A') (A')
                 (A') (A') (A') (A') (A') (A') (A') (A") (A') (A")
                 (A') (A') (A") (A") (A') (A") (A') (A") (A') (A")
                 (A") (A') (A') (A') (A") (A') (A') (A") (A") (A')
                 (A") (A") (A') (A') (A') (A") (A') (A') (A') (A")
                 (A') (A') (A') (A') (A') (A') (A") (A') (A') (A')
                 (A') (A') (A') (A') (A') (A') (A') (A') (A') (A")
                 (A") (A') (A") (A") (A') (A') (A') (A") (A") (A')
                 (A") (A') (A") (A") (A") (A') (A') (A') (A') (A')
                 (A') (A") (A') (A") (A') (A') (A') (A') (A') (A")
                 (A') (A') (A') (A') (A") (A') (A") (A') (A") (A")
                 (A') (A") (A') (A") (A') (A') (A') (A") (A') (A')
                 (A") (A") (A") (A') (A') (A") (A') (A") (A') (A')
                 (A") (A") (A') (A") (A') (A") (A') (A') (A') (A")
                 (A') (A') (A') (A') (A") (A') (A') (A') (A") (A")
                 (A') (A') (A') (A") (A') (A') (A") (A') (A") (A')
                 (A") (A') (A') (A') (A') (A") (A') (A') (A') (A")
                 (A') (A') (A") (A') (A") (A') (A') (A") (A') (A')
                 (A') (A") (A') (A") (A') (A') (A') (A") (A') (A")
                 (A') (A') (A') (A') (A") (A') (A") (A') (A") (A')
                 (A") (A') (A") (A") (A") (A') (A') (A') (A') (A')
                 (A') (A') (A') (A') (A') (A') (A') (A') (A') (A')
                 (A') (A') (A') (A') (A') (A") (A') (A') (A') (A')
                 (A') (A') (A') (A') (A') (A') (A') (A') (A') (A')
                 (A') (A') (A') (A') (A') (A') (A') (A') (A') (A')
                 (A') (A')
 The electronic state of the initial guess is 1-A'.
 Requested convergence on RMS density matrix=1.00D-08 within 128 cycles.
 Requested convergence on MAX density matrix=1.00D-06.
 Requested convergence on             energy=1.00D-06.
 No special actions if energy rises.
 SCF Done:  E(RM062X) =  -539.757548242     A.U. after   15 cycles
            NFock= 15  Conv=0.84D-08     -V/T= 2.0042
 DoSCS=F DFT=T ScalE2(SS,OS)=  1.000000  1.000000
 ExpMin= 3.60D-02 ExpMax= 4.56D+03 ExpMxC= 6.82D+02 IAcc=3 IRadAn=         5 AccDes= 0.00D+00
 HarFok:  IExCor=  205 AccDes= 0.00D+00 IRadAn=         5 IDoV=-2 UseB2=F ITyADJ=14
 ICtDFT= 12500011 ScaDFX=  1.000000  1.000000  1.000000  1.000000
 Range of M.O.s used for correlation:    15   379
 NBasis=   385 NAE=    47 NBE=    47 NFC=    14 NFV=     0
 NROrb=    365 NOA=    33 NOB=    33 NVA=   332 NVB=   332

 **** Warning!!: The largest alpha MO coefficient is  0.13470347D+03

 Orbital symmetries:
       Occupied  (A') (A') (A') (A') (A') (A') (A') (A') (A') (A')
                 (A') (A') (A') (A') (A') (A') (A') (A') (A') (A')
                 (A') (A') (A') (A') (A') (A') (A') (A') (A') (A')
                 (A') (A') (A") (A') (A') (A') (A') (A") (A") (A')
                 (A') (A') (A') (A") (A") (A") (A")
       Virtual   (A") (A") (A") (A") (A') (A') (A') (A') (A") (A')
                 (A') (A") (A') (A') (A") (A') (A") (A') (A') (A')
                 (A") (A") (A') (A') (A') (A") (A') (A") (A') (A')
                 (A") (A') (A") (A') (A') (A') (A') (A') (A") (A')
                 (A") (A') (A') (A") (A") (A') (A") (A') (A") (A')
                 (A') (A') (A') (A') (A') (A") (A') (A') (A') (A')
                 (A') (A") (A') (A') (A') (A") (A') (A') (A') (A')
                 (A') (A') (A') (A') (A') (A') (A') (A') (A') (A')
                 (A') (A') (A') (A') (A') (A') (A') (A') (A') (A')
                 (A') (A') (A') (A') (A") (A') (A") (A") (A') (A")
                 (A') (A') (A') (A') (A") (A") (A') (A") (A") (A')
                 (A') (A') (A") (A') (A') (A") (A') (A") (A') (A")
                 (A") (A') (A") (A') (A') (A') (A") (A') (A') (A')
                 (A') (A') (A') (A') (A') (A') (A') (A') (A') (A')
                 (A') (A') (A') (A") (A') (A') (A') (A') (A') (A')
                 (A') (A') (A") (A') (A") (A') (A") (A") (A') (A")
                 (A") (A') (A') (A") (A") (A") (A') (A") (A') (A')
                 (A') (A') (A') (A") (A") (A') (A') (A') (A') (A")
                 (A') (A') (A') (A") (A") (A') (A') (A') (A") (A")
                 (A") (A') (A') (A") (A") (A') (A') (A') (A') (A')
                 (A") (A") (A") (A') (A') (A") (A') (A") (A') (A')
                 (A') (A") (A') (A") (A") (A') (A") (A') (A') (A")
                 (A') (A') (A') (A') (A") (A') (A') (A') (A") (A")
                 (A') (A') (A') (A") (A') (A') (A') (A") (A") (A')
                 (A") (A') (A') (A") (A') (A') (A') (A') (A') (A')
                 (A") (A') (A') (A') (A') (A") (A") (A") (A') (A')
                 (A') (A') (A') (A') (A') (A') (A") (A') (A') (A')
                 (A') (A") (A') (A") (A") (A") (A') (A") (A') (A")
                 (A') (A") (A") (A') (A") (A") (A') (A') (A') (A')
                 (A') (A') (A') (A') (A') (A') (A') (A') (A') (A')
                 (A') (A') (A') (A") (A') (A') (A') (A') (A') (A')
                 (A') (A') (A') (A') (A') (A') (A') (A') (A') (A')
                 (A') (A') (A') (A') (A') (A') (A') (A') (A') (A')
                 (A') (A')
     4 initial guesses have been made.
 Convergence on wavefunction:    0.001000000000000
 Iteration     1 Dimension     4 NMult     0 NNew      4
 CISAX will form     4 AO SS matrices at one time.
 Iteration     2 Dimension     6 NMult     4 NNew      2
 Iteration     3 Dimension     8 NMult     6 NNew      2
 Iteration     4 Dimension    10 NMult     8 NNew      2
 Iteration     5 Dimension    12 NMult    10 NNew      2
 Iteration     6 Dimension    14 NMult    12 NNew      2
 ***********************************************************************
 Excited states from <AA,BB:AA,BB> singles matrix:
 ***********************************************************************
 
 Ground to excited state transition densities written to RWF  633
 Ground to excited state transition electric dipole moments (Au):
       state          X           Y           Z        Dip. S.      Osc.
         1         0.5003      0.3008      0.0000      0.3408      0.0229
 Ground to excited state transition velocity dipole moments (Au):
       state          X           Y           Z        Dip. S.      Osc.
         1        -0.0582     -0.0310      0.0000      0.0044      0.0288
 Ground to excited state transition magnetic dipole moments (Au):
       state          X           Y           Z
         1        -0.0000      0.0000      0.1646
 Ground to excited state transition velocity quadrupole moments (Au):
       state          XX          YY          ZZ          XY          XZ          YZ
         1         0.1406      0.1536     -0.0089     -0.1376     -0.0000      0.0000
 <0|del|b> * <b|rxdel|0> + <0|del|b> * <b|delr+rdel|0>
 Rotatory Strengths (R) in cgs (10**-40 erg-esu-cm/Gauss)
       state          XX          YY          ZZ    R(velocity)    E-M Angle
         1        -0.0000      0.0000      0.0000      0.0000       90.00
 1/2[<0|r|b>*<b|rxdel|0> + (<0|rxdel|b>*<b|r|0>)*]
 Rotatory Strengths (R) in cgs (10**-40 erg-esu-cm/Gauss)
       state          XX          YY          ZZ     R(length)
         1         0.0000     -0.0000     -0.0000     -0.0000
  1/2[<0|del|b>*<b|r|0> + (<0|r|b>*<b|del|0>)*] (Au)
       state          X           Y           Z        Dip. S.   Osc.(frdel)
         1        -0.0291     -0.0093      0.0000      0.0385      0.0256

 Excitation energies and oscillator strengths:
 
 Excited State   1:      Singlet-A'     2.7445 eV  451.76 nm  f=0.0229  <S**2>=0.000
      47 -> 48         0.70371
 This state for optimization and/or second-order correction.
 Total Energy, E(TD-HF/TD-DFT) =  -539.656689861    
 Copying the excited state density for this state as the 1-particle RhoCI density.
 SavETr:  write IOETrn=   770 NScale= 10 NData=  16 NLR=1 NState=    1 LETran=      28.

 **********************************************************************

            Population analysis using the SCF Density.

 **********************************************************************

 Orbital symmetries:
       Occupied  (A') (A') (A') (A') (A') (A') (A') (A') (A') (A')
                 (A') (A') (A') (A') (A') (A') (A') (A') (A') (A')
                 (A') (A') (A') (A') (A') (A') (A') (A') (A') (A')
                 (A') (A') (A") (A') (A') (A') (A') (A") (A") (A')
                 (A') (A') (A') (A") (A") (A") (A")
       Virtual   (A") (A") (A") (A") (A') (A') (A') (A') (A") (A')
                 (A') (A") (A') (A') (A") (A') (A") (A') (A') (A')
                 (A") (A") (A') (A') (A') (A") (A') (A") (A') (A')
                 (A") (A') (A") (A') (A') (A') (A') (A') (A") (A')
                 (A") (A') (A') (A") (A") (A') (A") (A') (A") (A')
                 (A') (A') (A') (A') (A') (A") (A') (A') (A') (A')
                 (A') (A") (A') (A') (A') (A") (A') (A') (A') (A')
                 (A') (A') (A') (A') (A') (A') (A') (A') (A') (A')
                 (A') (A') (A') (A') (A') (A') (A') (A') (A') (A')
                 (A') (A') (A') (A') (A") (A') (A") (A") (A') (A")
                 (A') (A') (A') (A') (A") (A") (A') (A") (A") (A')
                 (A') (A') (A") (A') (A') (A") (A') (A") (A') (A")
                 (A") (A') (A") (A') (A') (A') (A") (A') (A') (A')
                 (A') (A') (A') (A') (A') (A') (A') (A') (A') (A')
                 (A') (A') (A') (A") (A') (A') (A') (A') (A') (A')
                 (A') (A') (A") (A') (A") (A') (A") (A") (A') (A")
                 (A") (A') (A') (A") (A") (A") (A') (A") (A') (A')
                 (A') (A') (A') (A") (A") (A') (A') (A') (A') (A")
                 (A') (A') (A') (A") (A") (A') (A') (A') (A") (A")
                 (A") (A') (A') (A") (A") (A') (A') (A') (A') (A')
                 (A") (A") (A") (A') (A') (A") (A') (A") (A') (A')
                 (A') (A") (A') (A") (A") (A') (A") (A') (A') (A")
                 (A') (A') (A') (A') (A") (A') (A') (A') (A") (A")
                 (A') (A') (A') (A") (A') (A') (A') (A") (A") (A')
                 (A") (A') (A') (A") (A') (A') (A') (A') (A') (A')
                 (A") (A') (A') (A') (A') (A") (A") (A") (A') (A')
                 (A') (A') (A') (A') (A') (A') (A") (A') (A') (A')
                 (A') (A") (A') (A") (A") (A") (A') (A") (A') (A")
                 (A') (A") (A") (A') (A") (A") (A') (A') (A') (A')
                 (A') (A') (A') (A') (A') (A') (A') (A') (A') (A')
                 (A') (A') (A') (A") (A') (A') (A') (A') (A') (A')
                 (A') (A') (A') (A') (A') (A') (A') (A') (A') (A')
                 (A') (A') (A') (A') (A') (A') (A') (A') (A') (A')
                 (A') (A')
 The electronic state is 1-A'.
 Alpha  occ. eigenvalues --  -10.77642 -10.73630 -10.72906 -10.72721 -10.72138
 Alpha  occ. eigenvalues --  -10.71702 -10.71658 -10.71019 -10.70999 -10.70373
 Alpha  occ. eigenvalues --  -10.70137 -10.69841 -10.69810 -10.69434  -1.16454
 Alpha  occ. eigenvalues --   -1.12448  -1.06942  -1.05731  -1.01301  -1.00251
 Alpha  occ. eigenvalues --   -0.95689  -0.91032  -0.86425  -0.85885  -0.83791
 Alpha  occ. eigenvalues --   -0.78365  -0.76048  -0.74391  -0.69675  -0.69273
 Alpha  occ. eigenvalues --   -0.68403  -0.68123  -0.68106  -0.64988  -0.64240
 Alpha  occ. eigenvalues --   -0.62866  -0.61739  -0.60277  -0.59438  -0.59129
 Alpha  occ. eigenvalues --   -0.56904  -0.55252  -0.54681  -0.52443  -0.46926
 Alpha  occ. eigenvalues --   -0.46102  -0.44170
 Alpha virt. eigenvalues --   -0.26107  -0.14665  -0.14089  -0.12771  -0.11182
 Alpha virt. eigenvalues --   -0.10086  -0.09243  -0.07973  -0.07957  -0.07478
 Alpha virt. eigenvalues --   -0.07203  -0.07139  -0.05646  -0.05576  -0.05339
 Alpha virt. eigenvalues --   -0.03837  -0.03653  -0.03276  -0.03135  -0.02163
 Alpha virt. eigenvalues --   -0.01357  -0.00940   0.00195   0.00593   0.00636
 Alpha virt. eigenvalues --    0.01060   0.01511   0.01941   0.02182   0.02305
 Alpha virt. eigenvalues --    0.02449   0.02669   0.02764   0.03296   0.03435
 Alpha virt. eigenvalues --    0.04234   0.04496   0.04711   0.05037   0.05377
 Alpha virt. eigenvalues --    0.06031   0.06288   0.06587   0.07038   0.07266
 Alpha virt. eigenvalues --    0.07896   0.08117   0.08351   0.08576   0.08920
 Alpha virt. eigenvalues --    0.09509   0.09578   0.09998   0.10831   0.10972
 Alpha virt. eigenvalues --    0.11126   0.12127   0.12244   0.12785   0.13004
 Alpha virt. eigenvalues --    0.13436   0.13526   0.13991   0.14361   0.15991
 Alpha virt. eigenvalues --    0.16401   0.16402   0.17335   0.17544   0.17794
 Alpha virt. eigenvalues --    0.18115   0.19078   0.19319   0.19614   0.19810
 Alpha virt. eigenvalues --    0.21491   0.21611   0.22685   0.23135   0.23549
 Alpha virt. eigenvalues --    0.23905   0.24579   0.25445   0.26930   0.27602
 Alpha virt. eigenvalues --    0.28833   0.29264   0.29867   0.31342   0.35761
 Alpha virt. eigenvalues --    0.36422   0.38201   0.39274   0.41102   0.41354
 Alpha virt. eigenvalues --    0.41941   0.42181   0.42984   0.43670   0.44336
 Alpha virt. eigenvalues --    0.44845   0.45089   0.45966   0.46299   0.47953
 Alpha virt. eigenvalues --    0.48465   0.48806   0.49043   0.50463   0.51050
 Alpha virt. eigenvalues --    0.51318   0.51884   0.52129   0.52810   0.54050
 Alpha virt. eigenvalues --    0.54107   0.54594   0.55664   0.55843   0.57599
 Alpha virt. eigenvalues --    0.58230   0.58876   0.61459   0.62250   0.62372
 Alpha virt. eigenvalues --    0.63177   0.63480   0.64895   0.65148   0.67278
 Alpha virt. eigenvalues --    0.70403   0.70553   0.71103   0.72444   0.72876
 Alpha virt. eigenvalues --    0.75673   0.76035   0.76347   0.76815   0.77110
 Alpha virt. eigenvalues --    0.77845   0.77915   0.78233   0.79914   0.80386
 Alpha virt. eigenvalues --    0.81224   0.81593   0.82286   0.82993   0.85184
 Alpha virt. eigenvalues --    0.87084   0.88132   0.88349   0.89222   0.90516
 Alpha virt. eigenvalues --    0.91018   0.91341   0.93239   0.94599   0.96323
 Alpha virt. eigenvalues --    0.96795   1.00316   1.01256   1.01613   1.02770
 Alpha virt. eigenvalues --    1.03226   1.03307   1.04797   1.06003   1.08795
 Alpha virt. eigenvalues --    1.19549   1.23118   1.24099   1.24711   1.28407
 Alpha virt. eigenvalues --    1.29517   1.31981   1.34341   1.35739   1.35978
 Alpha virt. eigenvalues --    1.39307   1.39882   1.40899   1.43027   1.43469
 Alpha virt. eigenvalues --    1.43509   1.44363   1.46339   1.46345   1.46629
 Alpha virt. eigenvalues --    1.47669   1.48067   1.51699   1.53636   1.55597
 Alpha virt. eigenvalues --    1.55804   1.56310   1.56590   1.57769   1.61414
 Alpha virt. eigenvalues --    1.63148   1.63401   1.64047   1.66070   1.68278
 Alpha virt. eigenvalues --    1.68327   1.68731   1.69805   1.74360   1.75984
 Alpha virt. eigenvalues --    1.77129   1.78064   1.79829   1.80032   1.80763
 Alpha virt. eigenvalues --    1.82971   1.83208   1.83572   1.83815   1.84195
 Alpha virt. eigenvalues --    1.84425   1.85607   1.86288   1.88279   1.91386
 Alpha virt. eigenvalues --    1.92080   1.94070   1.95234   1.97722   1.98130
 Alpha virt. eigenvalues --    1.99736   2.02246   2.04418   2.07283   2.11745
 Alpha virt. eigenvalues --    2.12077   2.14173   2.15247   2.19026   2.21143
 Alpha virt. eigenvalues --    2.22760   2.28603   2.30074   2.34503   2.34840
 Alpha virt. eigenvalues --    2.36285   2.38634   2.39636   2.42326   2.44843
 Alpha virt. eigenvalues --    2.46118   2.46291   2.49252   2.52897   2.53772
 Alpha virt. eigenvalues --    2.54134   2.56904   2.57866   2.58359   2.59505
 Alpha virt. eigenvalues --    2.59872   2.61550   2.62113   2.63530   2.63723
 Alpha virt. eigenvalues --    2.64795   2.65068   2.65100   2.65478   2.67833
 Alpha virt. eigenvalues --    2.68391   2.70925   2.71436   2.73349   2.74803
 Alpha virt. eigenvalues --    2.76294   2.78438   2.79657   2.82851   2.83114
 Alpha virt. eigenvalues --    2.84839   2.86220   2.92087   2.97077   2.99443
 Alpha virt. eigenvalues --    3.00075   3.04804   3.10081   3.11225   3.13641
 Alpha virt. eigenvalues --    3.20677   3.22556   3.26426   3.28394   3.30590
 Alpha virt. eigenvalues --    3.32773   3.34224   3.43644   3.46041   3.46536
 Alpha virt. eigenvalues --    3.48269   3.49984   3.56346   3.66375   3.66708
 Alpha virt. eigenvalues --    3.67615   3.93997   3.94178   3.95366   3.96319
 Alpha virt. eigenvalues --    4.03952   4.06632   4.07522   4.12547   4.35228
 Alpha virt. eigenvalues --    4.60810   4.69435   4.71378  23.45293  23.60239
 Alpha virt. eigenvalues --   23.81096  23.83690  23.86285  23.89001  23.91341
 Alpha virt. eigenvalues --   23.94351  23.96178  23.97782  24.01759  24.03584
 Alpha virt. eigenvalues --   24.10877  24.11687
          Condensed to atoms (all electrons):
               1          2          3          4          5          6
     1  C    8.909543   0.035763  -0.420608   2.255147  -0.084611  -0.103475
     2  C    0.035763   7.209982   0.269977  -1.200869   0.009497  -0.013309
     3  C   -0.420608   0.269977   6.595686   0.821189  -0.137691   0.016911
     4  C    2.255147  -1.200869   0.821189  10.891446  -0.411193  -0.117704
     5  C   -0.084611   0.009497  -0.137691  -0.411193  11.478011   0.741368
     6  C   -0.103475  -0.013309   0.016911  -0.117704   0.741368   6.600763
     7  C   -0.002320  -0.000431  -0.014721  -0.028589  -1.052029   0.395749
     8  C    0.403108  -0.024357  -0.089254  -0.023638   1.897240  -0.610721
     9  C   -1.090474  -0.799166   0.298601  -0.333807  -0.016746   0.299124
    10  C   -1.382985   0.327082  -0.408730  -2.452057  -2.737810  -0.287372
    11  C    0.316387  -0.947644   1.071962  -0.331971  -1.573308  -0.209126
    12  C   -2.567135   1.658344  -1.489233  -1.706083  -0.424999  -0.139681
    13  C    0.292419  -0.284363  -0.128891  -1.449745  -0.340544   0.917223
    14  C   -1.067280  -0.107754  -0.259199  -0.259320  -1.712622  -1.371760
    15  H    0.371198  -0.109508   0.000831   0.029851   0.004755   0.001016
    16  H   -0.017543   0.376224  -0.014039   0.011015  -0.001384  -0.000306
    17  H   -0.031369  -0.010072   0.370385  -0.067486   0.000426   0.000392
    18  H    0.053999   0.002079  -0.084345   0.457745   0.005398  -0.005270
    19  H   -0.047926  -0.007586   0.051822  -0.063649  -0.077308   0.051471
    20  H    0.006940   0.002150  -0.005102   0.005383   0.466603  -0.083859
    21  H   -0.001372  -0.000383   0.000413   0.000199  -0.070145   0.379814
    22  H    0.000958   0.000397  -0.000350  -0.001647   0.015859  -0.020630
    23  H    0.004955  -0.002804   0.001195   0.006107   0.026547  -0.002383
    24  H    0.030261   0.013566  -0.001779  -0.012853  -0.011486  -0.001430
    25  H    0.030261   0.013566  -0.001779  -0.012853  -0.011486  -0.001430
               7          8          9         10         11         12
     1  C   -0.002320   0.403108  -1.090474  -1.382985   0.316387  -2.567135
     2  C   -0.000431  -0.024357  -0.799166   0.327082  -0.947644   1.658344
     3  C   -0.014721  -0.089254   0.298601  -0.408730   1.071962  -1.489233
     4  C   -0.028589  -0.023638  -0.333807  -2.452057  -0.331971  -1.706083
     5  C   -1.052029   1.897240  -0.016746  -2.737810  -1.573308  -0.424999
     6  C    0.395749  -0.610721   0.299124  -0.287372  -0.209126  -0.139681
     7  C    7.200438   0.412506  -0.857215   0.194912  -0.218127  -0.261297
     8  C    0.412506   8.461849  -1.101945  -1.253174   0.225373  -1.128335
     9  C   -0.857215  -1.101945   9.564342   0.262605   1.437103  -1.747725
    10  C    0.194912  -1.253174   0.262605   9.076020  -0.412994   2.446157
    11  C   -0.218127   0.225373   1.437103  -0.412994  14.255283  -3.427383
    12  C   -0.261297  -1.128335  -1.747725   2.446157  -3.427383  15.928679
    13  C   -0.810640   0.342706   1.537198  -0.298356   1.093994  -4.784288
    14  C    1.163844  -2.006620  -2.014247   2.390269  -4.705445   3.181414
    15  H   -0.002371   0.006219   0.093622  -0.010765  -0.032835  -0.032994
    16  H    0.000336   0.000511   0.003337  -0.008131   0.024847  -0.031905
    17  H   -0.000415  -0.001250  -0.006074   0.020185  -0.026680   0.096592
    18  H    0.002086   0.006901  -0.025383   0.012193  -0.002404  -0.064082
    19  H   -0.008182  -0.044794   0.074718   0.421945   0.080338  -0.052127
    20  H    0.003430   0.049189  -0.022944   0.006954  -0.012306  -0.019955
    21  H   -0.020631  -0.022335  -0.004936   0.020047  -0.006269   0.005283
    22  H    0.382867  -0.020044   0.001758  -0.009837   0.003288  -0.009997
    23  H   -0.107795   0.368675   0.088208  -0.008422  -0.002098   0.007291
    24  H    0.015658   0.037070   0.355179   0.005228   0.005921  -0.060619
    25  H    0.015658   0.037070   0.355179   0.005228   0.005921  -0.060619
              13         14         15         16         17         18
     1  C    0.292419  -1.067280   0.371198  -0.017543  -0.031369   0.053999
     2  C   -0.284363  -0.107754  -0.109508   0.376224  -0.010072   0.002079
     3  C   -0.128891  -0.259199   0.000831  -0.014039   0.370385  -0.084345
     4  C   -1.449745  -0.259320   0.029851   0.011015  -0.067486   0.457745
     5  C   -0.340544  -1.712622   0.004755  -0.001384   0.000426   0.005398
     6  C    0.917223  -1.371760   0.001016  -0.000306   0.000392  -0.005270
     7  C   -0.810640   1.163844  -0.002371   0.000336  -0.000415   0.002086
     8  C    0.342706  -2.006620   0.006219   0.000511  -0.001250   0.006901
     9  C    1.537198  -2.014247   0.093622   0.003337  -0.006074  -0.025383
    10  C   -0.298356   2.390269  -0.010765  -0.008131   0.020185   0.012193
    11  C    1.093994  -4.705445  -0.032835   0.024847  -0.026680  -0.002404
    12  C   -4.784288   3.181414  -0.032994  -0.031905   0.096592  -0.064082
    13  C   14.457074  -3.969021   0.005415   0.002587  -0.006210  -0.012073
    14  C   -3.969021  16.238488   0.005155  -0.008032   0.005325  -0.010829
    15  H    0.005415   0.005155   0.443244  -0.009022   0.001307   0.000078
    16  H    0.002587  -0.008032  -0.009022   0.421726  -0.006172   0.001905
    17  H   -0.006210   0.005325   0.001307  -0.006172   0.424132  -0.010439
    18  H   -0.012073  -0.010829   0.000078   0.001905  -0.010439   0.457910
    19  H    0.077068  -0.080204   0.000259  -0.000504   0.001224  -0.006713
    20  H   -0.006972  -0.051683  -0.000106   0.000013  -0.000128   0.001243
    21  H   -0.025585   0.088542   0.000012  -0.000007   0.000010  -0.000161
    22  H    0.024165  -0.029685  -0.000130   0.000008  -0.000007   0.000019
    23  H   -0.029819  -0.016432   0.000551  -0.000126   0.000017  -0.000123
    24  H    0.021605  -0.060376  -0.000900   0.000636  -0.000149   0.000217
    25  H    0.021605  -0.060376  -0.000900   0.000636  -0.000149   0.000217
              19         20         21         22         23         24
     1  C   -0.047926   0.006940  -0.001372   0.000958   0.004955   0.030261
     2  C   -0.007586   0.002150  -0.000383   0.000397  -0.002804   0.013566
     3  C    0.051822  -0.005102   0.000413  -0.000350   0.001195  -0.001779
     4  C   -0.063649   0.005383   0.000199  -0.001647   0.006107  -0.012853
     5  C   -0.077308   0.466603  -0.070145   0.015859   0.026547  -0.011486
     6  C    0.051471  -0.083859   0.379814  -0.020630  -0.002383  -0.001430
     7  C   -0.008182   0.003430  -0.020631   0.382867  -0.107795   0.015658
     8  C   -0.044794   0.049189  -0.022335  -0.020044   0.368675   0.037070
     9  C    0.074718  -0.022944  -0.004936   0.001758   0.088208   0.355179
    10  C    0.421945   0.006954   0.020047  -0.009837  -0.008422   0.005228
    11  C    0.080338  -0.012306  -0.006269   0.003288  -0.002098   0.005921
    12  C   -0.052127  -0.019955   0.005283  -0.009997   0.007291  -0.060619
    13  C    0.077068  -0.006972  -0.025585   0.024165  -0.029819   0.021605
    14  C   -0.080204  -0.051683   0.088542  -0.029685  -0.016432  -0.060376
    15  H    0.000259  -0.000106   0.000012  -0.000130   0.000551  -0.000900
    16  H   -0.000504   0.000013  -0.000007   0.000008  -0.000126   0.000636
    17  H    0.001224  -0.000128   0.000010  -0.000007   0.000017  -0.000149
    18  H   -0.006713   0.001243  -0.000161   0.000019  -0.000123   0.000217
    19  H    0.443328  -0.005950   0.001643  -0.000593   0.000388   0.000574
    20  H   -0.005950   0.450493  -0.010227   0.001964   0.000206   0.000160
    21  H    0.001643  -0.010227   0.420642  -0.006968   0.001619  -0.000138
    22  H   -0.000593   0.001964  -0.006968   0.417314  -0.009017   0.000632
    23  H    0.000388   0.000206   0.001619  -0.009017   0.435938  -0.000948
    24  H    0.000574   0.000160  -0.000138   0.000632  -0.000948   0.492919
    25  H    0.000574   0.000160  -0.000138   0.000632  -0.000948  -0.078504
              25
     1  C    0.030261
     2  C    0.013566
     3  C   -0.001779
     4  C   -0.012853
     5  C   -0.011486
     6  C   -0.001430
     7  C    0.015658
     8  C    0.037070
     9  C    0.355179
    10  C    0.005228
    11  C    0.005921
    12  C   -0.060619
    13  C    0.021605
    14  C   -0.060376
    15  H   -0.000900
    16  H    0.000636
    17  H   -0.000149
    18  H    0.000217
    19  H    0.000574
    20  H    0.000160
    21  H   -0.000138
    22  H    0.000632
    23  H   -0.000948
    24  H   -0.078504
    25  H    0.492919
 Mulliken charges:
               1
     1  C    0.106159
     2  C   -0.410382
     3  C   -0.443252
     4  C   -0.004618
     5  C    0.017661
     6  C   -0.435375
     7  C   -0.402721
     8  C    0.078051
     9  C   -0.350311
    10  C    0.081810
    11  C   -0.611831
    12  C    0.684697
    13  C   -0.646554
    14  C    0.717848
    15  H    0.236020
    16  H    0.253389
    17  H    0.246604
    18  H    0.219831
    19  H    0.190184
    20  H    0.224345
    21  H    0.251070
    22  H    0.259045
    23  H    0.239219
    24  H    0.249556
    25  H    0.249556
 Sum of Mulliken charges =   1.00000
 Mulliken charges with hydrogens summed into heavy atoms:
               1
     1  C    0.342179
     2  C   -0.156993
     3  C   -0.196649
     4  C    0.215214
     5  C    0.242006
     6  C   -0.184305
     7  C   -0.143676
     8  C    0.317270
     9  C    0.148800
    10  C    0.271993
    11  C   -0.611831
    12  C    0.684697
    13  C   -0.646554
    14  C    0.717848
 Electronic spatial extent (au):  <R**2>=           2857.7369
 Charge=              1.0000 electrons
 Dipole moment (field-independent basis, Debye):
    X=              0.1642    Y=             -0.7046    Z=             -0.0000  Tot=              0.7235
 Quadrupole moment (field-independent basis, Debye-Ang):
   XX=            -51.0088   YY=            -36.3111   ZZ=            -84.1387
   XY=            -10.2625   XZ=              0.0000   YZ=             -0.0000
 Traceless Quadrupole moment (field-independent basis, Debye-Ang):
   XX=              6.1440   YY=             20.8418   ZZ=            -26.9858
   XY=            -10.2625   XZ=              0.0000   YZ=             -0.0000
 Octapole moment (field-independent basis, Debye-Ang**2):
  XXX=              2.0856  YYY=             -0.8234  ZZZ=             -0.0000  XYY=              2.0883
  XXY=             -7.1447  XXZ=              0.0000  XZZ=              3.2241  YZZ=              0.5618
  YYZ=              0.0000  XYZ=              0.0000
 Hexadecapole moment (field-independent basis, Debye-Ang**3):
 XXXX=           -989.7547 YYYY=          -1849.1563 ZZZZ=            -99.3363 XXXY=            348.2136
 XXXZ=              0.0000 YYYX=            274.2185 YYYZ=             -0.0000 ZZZX=             -0.0000
 ZZZY=             -0.0000 XXYY=           -454.8054 XXZZ=           -241.8152 YYZZ=           -495.0560
 XXYZ=             -0.0000 YYXZ=             -0.0000 ZZXY=            183.1671
 N-N= 7.809640732297D+02 E-N=-2.798267836266D+03  KE= 5.375031789745D+02
 Symmetry A'   KE= 5.228531861621D+02
 Symmetry A"   KE= 1.464999281244D+01
 Unable to Open any file for archive entry.
 1\1\GINC-GADI-CPU-CLX-0648\SP\RM062X TD-FC\6-311++G(d,p)\C14H11(1+)\TS
 1578\27-Jul-2022\0\\#n M062X/6-311++G(d,p) TD(NStates=1) EmpiricalDisp
 ersion=GD3 SP\\SP_125\\1,1\C,0,2.5122,1.3676,0.\C,0,3.72325,0.689075,0
 .\C,0,3.6904,-0.69085,0.\C,0,2.443825,-1.387775,0.\C,0,-2.482825,-1.41
 0525,0.\C,0,-3.6789,-0.72185,0.\C,0,-3.682125,0.67145,0.\C,0,-2.47795,
 1.3691,0.\C,0,0.010875,1.4676,0.\C,0,-0.0305,-1.42075,0.\C,0,1.257725,
 0.6762,0.\C,0,1.2245,-0.720225,0.\C,0,-1.26685,0.695325,0.\C,0,-1.2495
 ,-0.723225,0.\H,0,2.4961,2.450925,0.\H,0,4.65905,1.22665,0.\H,0,4.6060
 5,-1.265825,0.\H,0,2.458,-2.470525,0.\H,0,-0.028125,-2.501725,0.\H,0,-
 2.47625,-2.49265,0.\H,0,-4.6133,-1.2647,0.\H,0,-4.617425,1.212275,0.\H
 ,0,-2.4856,2.45205,0.\H,0,0.04,2.15575,-0.860975\H,0,0.04,2.15575,0.86
 0975\\Version=ES64L-G16RevC.01\State=1-A'\HF=-539.7575482\RMSD=8.390e-
 09\PG=CS [SG(C14H9),X(H2)]\\@
 The archive entry for this job was punched.


 A MAN IS EXACTLY AS GREAT AS THE TIDE SURGING
 BENEATH HIM.      - BISMARCK
 Job cpu time:       0 days  0 hours 45 minutes 47.4 seconds.
 Elapsed time:       0 days  0 hours  1 minutes 26.5 seconds.
 File lengths (MBytes):  RWF=    460 Int=      0 D2E=      0 Chk=     15 Scr=      1
 Normal termination of Gaussian 16 at Wed Jul 27 12:38:51 2022.
