 Entering Gaussian System, Link 0=g16
 Initial command:
 /apps/gaussian/g16c01/g16/l1.exe "/jobfs/52804872.gadi-pbs/Gau-1582157.inp" -scrdir="/jobfs/52804872.gadi-pbs/"
 Entering Link 1 = /apps/gaussian/g16c01/g16/l1.exe PID=   1582158.
  
 Copyright (c) 1988-2019, Gaussian, Inc.  All Rights Reserved.
  
 This is part of the Gaussian(R) 16 program.  It is based on
 the Gaussian(R) 09 system (copyright 2009, Gaussian, Inc.),
 the Gaussian(R) 03 system (copyright 2003, Gaussian, Inc.),
 the Gaussian(R) 98 system (copyright 1998, Gaussian, Inc.),
 the Gaussian(R) 94 system (copyright 1995, Gaussian, Inc.),
 the Gaussian 92(TM) system (copyright 1992, Gaussian, Inc.),
 the Gaussian 90(TM) system (copyright 1990, Gaussian, Inc.),
 the Gaussian 88(TM) system (copyright 1988, Gaussian, Inc.),
 the Gaussian 86(TM) system (copyright 1986, Carnegie Mellon
 University), and the Gaussian 82(TM) system (copyright 1983,
 Carnegie Mellon University). Gaussian is a federally registered
 trademark of Gaussian, Inc.
  
 This software contains proprietary and confidential information,
 including trade secrets, belonging to Gaussian, Inc.
  
 This software is provided under written license and may be
 used, copied, transmitted, or stored only in accord with that
 written license.
  
 The following legend is applicable only to US Government
 contracts under FAR:
  
                    RESTRICTED RIGHTS LEGEND
  
 Use, reproduction and disclosure by the US Government is
 subject to restrictions as set forth in subparagraphs (a)
 and (c) of the Commercial Computer Software - Restricted
 Rights clause in FAR 52.227-19.
  
 Gaussian, Inc.
 340 Quinnipiac St., Bldg. 40, Wallingford CT 06492
  
  
 ---------------------------------------------------------------
 Warning -- This program may not be used in any manner that
 competes with the business of Gaussian, Inc. or will provide
 assistance to any competitor of Gaussian, Inc.  The licensee
 of this program is prohibited from giving any competitor of
 Gaussian, Inc. access to this program.  By using this program,
 the user acknowledges that Gaussian, Inc. is engaged in the
 business of creating and licensing software in the field of
 computational chemistry and represents and warrants to the
 licensee that it is not a competitor of Gaussian, Inc. and that
 it will not use this program in any manner prohibited above.
 ---------------------------------------------------------------
  

 Cite this work as:
 Gaussian 16, Revision C.01,
 M. J. Frisch, G. W. Trucks, H. B. Schlegel, G. E. Scuseria, 
 M. A. Robb, J. R. Cheeseman, G. Scalmani, V. Barone, 
 G. A. Petersson, H. Nakatsuji, X. Li, M. Caricato, A. V. Marenich, 
 J. Bloino, B. G. Janesko, R. Gomperts, B. Mennucci, H. P. Hratchian, 
 J. V. Ortiz, A. F. Izmaylov, J. L. Sonnenberg, D. Williams-Young, 
 F. Ding, F. Lipparini, F. Egidi, J. Goings, B. Peng, A. Petrone, 
 T. Henderson, D. Ranasinghe, V. G. Zakrzewski, J. Gao, N. Rega, 
 G. Zheng, W. Liang, M. Hada, M. Ehara, K. Toyota, R. Fukuda, 
 J. Hasegawa, M. Ishida, T. Nakajima, Y. Honda, O. Kitao, H. Nakai, 
 T. Vreven, K. Throssell, J. A. Montgomery, Jr., J. E. Peralta, 
 F. Ogliaro, M. J. Bearpark, J. J. Heyd, E. N. Brothers, K. N. Kudin, 
 V. N. Staroverov, T. A. Keith, R. Kobayashi, J. Normand, 
 K. Raghavachari, A. P. Rendell, J. C. Burant, S. S. Iyengar, 
 J. Tomasi, M. Cossi, J. M. Millam, M. Klene, C. Adamo, R. Cammi, 
 J. W. Ochterski, R. L. Martin, K. Morokuma, O. Farkas, 
 J. B. Foresman, and D. J. Fox, Gaussian, Inc., Wallingford CT, 2019.
 
 ******************************************
 Gaussian 16:  ES64L-G16RevC.01  3-Jul-2019
                27-Jul-2022 
 ******************************************
 %NProcShared=32
 Will use up to   32 processors via shared memory.
 %mem = 128GB
 ---------------------------------------------------------------
 #n M062X/6-311++G(d,p) TD(NStates=1) EmpiricalDispersion=GD3 SP
 ---------------------------------------------------------------
 1/38=1,172=1/1;
 2/12=2,17=6,18=5,40=1/2;
 3/5=4,6=6,7=1111,11=9,25=1,30=1,74=-55,124=31/1,2,3,8;
 4//1;
 5/5=2,38=5/2;
 8/6=1,10=2,108=1/1;
 9/41=1,42=1,70=2/14;
 6/7=2,8=2,9=2,10=2/1;
 99/5=1,9=1/99;
 ----
 SP_0
 ----
 Symbolic Z-matrix:
 Charge =  1 Multiplicity = 1
 C                     2.4986    1.3691    0. 
 C                     3.70925   0.6844    0. 
 C                     3.6859   -0.6984    0. 
 C                     2.45535  -1.39425   0. 
 C                    -2.47095  -1.40335   0. 
 C                    -3.6813   -0.7108    0. 
 C                    -3.6928    0.67735   0. 
 C                    -2.4849    1.3697    0. 
 C                     0.0044    1.4599    0. 
 C                    -0.0122   -1.4204    0. 
 C                     1.2602    0.68185   0. 
 C                     1.2327   -0.72165   0. 
 C                    -1.26385   0.6895    0. 
 C                    -1.2427   -0.72285   0. 
 H                     2.4891    2.4524    0. 
 H                     4.64455   1.22365   0. 
 H                     4.6077   -1.2633    0. 
 H                     2.464    -2.4769    0. 
 H                    -0.01125  -2.50155   0. 
 H                    -2.4713   -2.48575   0. 
 H                    -4.6106   -1.26285   0. 
 H                    -4.6279    1.2179    0. 
 H                    -2.4849    2.45285   0. 
 H                     0.016     2.154    -0.85905 
 H                     0.016     2.154     0.85905 
 
                          Input orientation:                          
 ---------------------------------------------------------------------
 Center     Atomic      Atomic             Coordinates (Angstroms)
 Number     Number       Type             X           Y           Z
 ---------------------------------------------------------------------
      1          6           0        2.498600    1.369100    0.000000
      2          6           0        3.709250    0.684400    0.000000
      3          6           0        3.685900   -0.698400    0.000000
      4          6           0        2.455350   -1.394250    0.000000
      5          6           0       -2.470950   -1.403350    0.000000
      6          6           0       -3.681300   -0.710800    0.000000
      7          6           0       -3.692800    0.677350    0.000000
      8          6           0       -2.484900    1.369700    0.000000
      9          6           0        0.004400    1.459900    0.000000
     10          6           0       -0.012200   -1.420400    0.000000
     11          6           0        1.260200    0.681850    0.000000
     12          6           0        1.232700   -0.721650    0.000000
     13          6           0       -1.263850    0.689500    0.000000
     14          6           0       -1.242700   -0.722850    0.000000
     15          1           0        2.489100    2.452400    0.000000
     16          1           0        4.644550    1.223650    0.000000
     17          1           0        4.607700   -1.263300    0.000000
     18          1           0        2.464000   -2.476900    0.000000
     19          1           0       -0.011250   -2.501550    0.000000
     20          1           0       -2.471300   -2.485750    0.000000
     21          1           0       -4.610600   -1.262850    0.000000
     22          1           0       -4.627900    1.217900    0.000000
     23          1           0       -2.484900    2.452850    0.000000
     24          1           0        0.016000    2.154000   -0.859050
     25          1           0        0.016000    2.154000    0.859050
 ---------------------------------------------------------------------
                    Distance matrix (angstroms):
                    1          2          3          4          5
     1  C    0.000000
     2  C    1.390859   0.000000
     3  C    2.384164   1.382997   0.000000
     4  C    2.763688   2.427561   1.413669   0.000000
     5  C    5.690598   6.523310   6.197076   4.926308   0.000000
     6  C    6.520517   7.521091   7.367210   6.174591   1.394479
     7  C    6.229924   7.402053   7.505858   6.487779   2.412930
     8  C    4.983500   6.231944   6.508134   5.660874   2.773085
     9  C    2.495852   3.785144   4.267517   3.762091   3.784912
    10  C    3.753056   4.275438   3.767921   2.467689   2.458809
    11  C    1.416315   2.449051   2.790898   2.395532   4.274288
    12  C    2.444123   2.847855   2.453310   1.395444   3.765865
    13  C    3.823334   4.973103   5.140651   4.263152   2.416011
    14  C    4.286441   5.148025   4.928661   3.758504   1.404165
    15  H    1.083342   2.148160   3.370441   3.846798   6.282428
    16  H    2.150874   1.079619   2.147856   3.412623   7.584950
    17  H    3.373104   2.144935   1.081123   2.156330   7.080035
    18  H    3.846156   3.397715   2.157800   1.082685   5.050370
    19  H    4.613164   4.898204   4.113425   2.703743   2.693727
    20  H    6.289656   6.946154   6.411375   5.046113   1.082400
    21  H    7.580758   8.544688   8.315679   7.067172   2.144258
    22  H    7.128104   8.354202   8.531792   7.549554   3.394611
    23  H    5.099979   6.441654   6.928863   6.261489   3.856225
    24  H    2.741776   4.066668   4.726766   4.390726   4.424661
    25  H    2.741776   4.066668   4.726766   4.390726   4.424661
                    6          7          8          9         10
     6  C    0.000000
     7  C    1.388198   0.000000
     8  C    2.399969   1.392254   0.000000
     9  C    4.277420   3.779110   2.490934   0.000000
    10  C    3.737088   4.236434   3.728123   2.880348   0.000000
    11  C    5.133994   4.953002   3.807744   1.477293   2.457327
    12  C    4.914012   5.120327   4.265477   2.503574   1.427595
    13  C    2.793726   2.428980   1.397725   1.483905   2.453224
    14  C    2.438630   2.821976   2.433480   2.513893   1.414463
    15  H    6.933951   6.431694   5.090473   2.675592   4.610323
    16  H    8.547624   8.355229   7.130946   4.646160   5.355028
    17  H    8.307393   8.524343   7.565558   5.348475   4.622570
    18  H    6.394046   6.917765   6.268009   4.641985   2.692166
    19  H    4.083632   4.864074   4.594075   3.961481   1.081150
    20  H    2.148150   3.390762   3.855474   4.658030   2.679952
    21  H    1.080906   2.146330   3.383625   5.358320   4.601098
    22  H    2.148473   1.080096   2.148370   4.638617   5.316513
    23  H    3.382315   2.147422   1.083150   2.680031   4.595249
    24  H    4.755531   4.083339   2.758187   1.104480   3.676289
    25  H    4.755531   4.083339   2.758187   1.104480   3.676289
                   11         12         13         14         15
    11  C    0.000000
    12  C    1.403769   0.000000
    13  C    2.524062   2.867770   0.000000
    14  C    2.870138   2.475400   1.412508   0.000000
    15  H    2.155236   3.413669   4.146378   4.899851   0.000000
    16  H    3.427444   3.927456   5.932496   6.200691   2.481087
    17  H    3.871610   3.418188   6.187772   5.875310   4.277253
    18  H    3.380360   2.144062   4.891110   4.100770   4.929364
    19  H    3.427918   2.171510   3.428091   2.163387   5.549177
    20  H    4.894669   4.102641   3.397079   2.148784   6.999350
    21  H    6.184509   5.868309   3.874585   3.410916   8.013041
    22  H    5.912451   6.173207   3.405296   3.902062   7.223273
    23  H    4.142730   4.888558   2.144846   3.410005   4.974000
    24  H    2.110267   3.238470   2.126204   3.255543   2.635002
    25  H    2.110267   3.238470   2.126204   3.255543   2.635002
                   16         17         18         19         20
    16  H    0.000000
    17  H    2.487223   0.000000
    18  H    4.295215   2.463387   0.000000
    19  H    5.962683   4.782046   2.475373   0.000000
    20  H    8.024648   7.183775   4.935308   2.460101   0.000000
    21  H    9.583344   9.218300   7.178014   4.763234   2.464161
    22  H    9.272452   9.563088   7.996661   5.928555   4.285784
    23  H    7.234638   8.007168   6.985274   5.537601   4.938619
    24  H    4.798645   5.787885   5.308098   4.734222   5.334033
    25  H    4.798645   5.787885   5.308098   4.734222   5.334033
                   21         22         23         24         25
    21  H    0.000000
    22  H    2.480810   0.000000
    23  H    4.280774   2.473368   0.000000
    24  H    5.815347   4.814567   2.661161   0.000000
    25  H    5.815347   4.814567   2.661161   1.718100   0.000000
 Stoichiometry    C14H11(1+)
 Framework group  CS[SG(C14H9),X(H2)]
 Deg. of freedom    46
 Full point group                 CS      NOp   2
 Largest Abelian subgroup         CS      NOp   2
 Largest concise Abelian subgroup CS      NOp   2
                         Standard orientation:                         
 ---------------------------------------------------------------------
 Center     Atomic      Atomic             Coordinates (Angstroms)
 Number     Number       Type             X           Y           Z
 ---------------------------------------------------------------------
      1          6           0        0.022608    2.844696    0.000000
      2          6           0       -1.151789    3.589865    0.000000
      3          6           0       -2.360439    2.917669    0.000000
      4          6           0       -2.394331    1.504406    0.000000
      5          6           0       -0.080992   -2.844959    0.000000
      6          6           0        1.100188   -3.586165    0.000000
      7          6           0        2.329978   -2.942186    0.000000
      8          6           0        2.371457   -1.550550    0.000000
      9          6           0        1.278009    0.687558    0.000000
     10          6           0       -1.254640   -0.684336    0.000000
     11          6           0        0.000000    1.428562    0.000000
     12          6           0       -1.224951    0.742951    0.000000
     13          6           0        1.196127   -0.794087    0.000000
     14          6           0       -0.059555   -1.440958    0.000000
     15          1           0        0.982573    3.346788    0.000000
     16          1           0       -1.116893    4.668920    0.000000
     17          1           0       -3.293059    3.464520    0.000000
     18          1           0       -3.353322    1.001870    0.000000
     19          1           0       -2.208679   -1.192956    0.000000
     20          1           0       -1.035522   -3.355315    0.000000
     21          1           0        1.051175   -4.665959    0.000000
     22          1           0        3.247389   -3.512242    0.000000
     23          1           0        3.326813   -1.040149    0.000000
     24          1           0        1.884751    1.024862    0.859050
     25          1           0        1.884751    1.024862   -0.859050
 ---------------------------------------------------------------------
 Rotational constants (GHZ):           2.1369624           0.4447206           0.3689125
 Standard basis: 6-311++G(d,p) (5D, 7F)
 There are   299 symmetry adapted cartesian basis functions of A'  symmetry.
 There are   100 symmetry adapted cartesian basis functions of A"  symmetry.
 There are   285 symmetry adapted basis functions of A'  symmetry.
 There are   100 symmetry adapted basis functions of A"  symmetry.
   385 basis functions,   603 primitive gaussians,   399 cartesian basis functions
    47 alpha electrons       47 beta electrons
       nuclear repulsion energy       781.2954050586 Hartrees.
 NAtoms=   25 NActive=   25 NUniq=   24 SFac= 1.09D+00 NAtFMM=   60 NAOKFM=F Big=F
 Integral buffers will be    131072 words long.
 Regular integral format.
 Two-electron integral symmetry is turned on.
 Nuclear repulsion after empirical dispersion term =      781.2944256244 Hartrees.
 One-electron integrals computed using PRISM.
 NBasis=   385 RedAO= T EigKep=  1.12D-06  NBF=   285   100
 NBsUse=   379 1.00D-06 EigRej=  8.37D-07 NBFU=   279   100
 ExpMin= 3.60D-02 ExpMax= 4.56D+03 ExpMxC= 6.82D+02 IAcc=3 IRadAn=         5 AccDes= 0.00D+00
 Harris functional with IExCor= 1009 and IRadAn=       5 diagonalized for initial guess.
 HarFok:  IExCor= 1009 AccDes= 0.00D+00 IRadAn=         5 IDoV= 1 UseB2=F ITyADJ=14
 ICtDFT=  3500011 ScaDFX=  1.000000  1.000000  1.000000  1.000000
 FoFCou: FMM=F IPFlag=           0 FMFlag=      100000 FMFlg1=           0
         NFxFlg=           0 DoJE=T BraDBF=F KetDBF=T FulRan=T
         wScrn=  0.000000 ICntrl=       500 IOpCl=  0 I1Cent=   200000004 NGrid=           0
         NMat0=    1 NMatS0=      1 NMatT0=    0 NMatD0=    1 NMtDS0=    0 NMtDT0=    0
 Petite list used in FoFCou.
 Initial guess orbital symmetries:
       Occupied  (A') (A') (A') (A') (A') (A') (A') (A') (A') (A')
                 (A') (A') (A') (A') (A') (A') (A') (A') (A') (A')
                 (A') (A') (A') (A') (A') (A') (A') (A') (A') (A')
                 (A') (A') (A") (A') (A') (A') (A') (A') (A') (A")
                 (A") (A') (A') (A") (A") (A") (A")
       Virtual   (A") (A") (A") (A") (A") (A') (A') (A') (A') (A")
                 (A") (A') (A') (A') (A") (A') (A') (A') (A') (A")
                 (A') (A") (A') (A') (A') (A") (A') (A") (A') (A')
                 (A') (A') (A') (A") (A') (A') (A") (A') (A') (A")
                 (A') (A') (A') (A") (A') (A') (A') (A') (A') (A")
                 (A') (A') (A") (A") (A') (A') (A') (A") (A") (A')
                 (A') (A') (A') (A') (A') (A') (A") (A') (A') (A")
                 (A') (A') (A') (A') (A') (A') (A') (A') (A') (A')
                 (A') (A') (A') (A') (A') (A') (A') (A') (A') (A')
                 (A') (A') (A') (A') (A') (A') (A') (A") (A') (A")
                 (A') (A') (A") (A") (A') (A") (A') (A") (A') (A")
                 (A") (A') (A') (A') (A") (A') (A') (A") (A") (A')
                 (A") (A") (A') (A') (A') (A") (A') (A') (A') (A")
                 (A') (A') (A') (A') (A') (A') (A") (A') (A') (A')
                 (A') (A') (A') (A') (A') (A') (A') (A') (A') (A")
                 (A") (A') (A") (A") (A') (A') (A') (A") (A") (A')
                 (A") (A') (A") (A") (A") (A') (A') (A') (A') (A')
                 (A') (A") (A") (A') (A') (A') (A') (A') (A') (A")
                 (A') (A') (A') (A') (A') (A") (A") (A') (A") (A")
                 (A') (A") (A') (A") (A') (A') (A') (A") (A') (A')
                 (A") (A") (A") (A') (A') (A") (A') (A") (A') (A')
                 (A") (A") (A') (A") (A') (A") (A') (A') (A') (A")
                 (A') (A') (A') (A') (A") (A') (A') (A') (A") (A")
                 (A') (A') (A') (A") (A') (A') (A") (A') (A") (A')
                 (A") (A') (A') (A') (A') (A") (A') (A') (A') (A")
                 (A') (A') (A") (A') (A") (A') (A') (A") (A') (A')
                 (A') (A') (A") (A") (A') (A') (A') (A") (A') (A")
                 (A') (A') (A') (A') (A") (A') (A") (A') (A") (A')
                 (A") (A') (A") (A") (A") (A') (A') (A') (A') (A')
                 (A') (A') (A') (A') (A') (A') (A') (A') (A') (A')
                 (A') (A') (A') (A') (A") (A') (A') (A') (A') (A')
                 (A') (A') (A') (A') (A') (A') (A') (A') (A') (A')
                 (A') (A') (A') (A') (A') (A') (A') (A') (A') (A')
                 (A') (A')
 The electronic state of the initial guess is 1-A'.
 Requested convergence on RMS density matrix=1.00D-08 within 128 cycles.
 Requested convergence on MAX density matrix=1.00D-06.
 Requested convergence on             energy=1.00D-06.
 No special actions if energy rises.
 SCF Done:  E(RM062X) =  -539.759743372     A.U. after   15 cycles
            NFock= 15  Conv=0.57D-08     -V/T= 2.0042
 DoSCS=F DFT=T ScalE2(SS,OS)=  1.000000  1.000000
 ExpMin= 3.60D-02 ExpMax= 4.56D+03 ExpMxC= 6.82D+02 IAcc=3 IRadAn=         5 AccDes= 0.00D+00
 HarFok:  IExCor=  205 AccDes= 0.00D+00 IRadAn=         5 IDoV=-2 UseB2=F ITyADJ=14
 ICtDFT= 12500011 ScaDFX=  1.000000  1.000000  1.000000  1.000000
 Range of M.O.s used for correlation:    15   379
 NBasis=   385 NAE=    47 NBE=    47 NFC=    14 NFV=     0
 NROrb=    365 NOA=    33 NOB=    33 NVA=   332 NVB=   332

 **** Warning!!: The largest alpha MO coefficient is  0.14872152D+03

 Orbital symmetries:
       Occupied  (A') (A') (A') (A') (A') (A') (A') (A') (A') (A')
                 (A') (A') (A') (A') (A') (A') (A') (A') (A') (A')
                 (A') (A') (A') (A') (A') (A') (A') (A') (A') (A')
                 (A') (A') (A") (A') (A') (A') (A') (A") (A") (A')
                 (A') (A') (A') (A") (A") (A") (A")
       Virtual   (A") (A") (A") (A") (A') (A') (A') (A') (A") (A')
                 (A') (A") (A') (A') (A") (A') (A") (A') (A') (A')
                 (A") (A") (A') (A') (A') (A") (A') (A") (A') (A')
                 (A") (A') (A") (A') (A') (A') (A') (A') (A") (A')
                 (A") (A') (A') (A") (A") (A') (A") (A') (A") (A')
                 (A') (A') (A') (A') (A') (A") (A') (A') (A') (A')
                 (A') (A") (A') (A') (A') (A") (A') (A') (A') (A')
                 (A') (A') (A') (A') (A') (A') (A') (A') (A') (A')
                 (A') (A') (A') (A') (A') (A') (A') (A') (A') (A')
                 (A') (A') (A') (A') (A") (A') (A") (A") (A') (A")
                 (A') (A') (A') (A') (A") (A") (A') (A") (A") (A')
                 (A') (A') (A") (A') (A') (A") (A') (A") (A') (A")
                 (A") (A') (A") (A') (A') (A') (A") (A') (A') (A')
                 (A') (A') (A') (A') (A') (A') (A') (A') (A') (A')
                 (A') (A') (A') (A") (A') (A') (A') (A') (A') (A')
                 (A') (A') (A") (A') (A") (A') (A") (A") (A') (A")
                 (A") (A') (A') (A") (A") (A") (A') (A") (A') (A')
                 (A') (A') (A') (A") (A") (A') (A') (A') (A') (A")
                 (A') (A') (A') (A") (A') (A") (A') (A') (A") (A")
                 (A") (A') (A') (A") (A') (A") (A') (A') (A') (A')
                 (A") (A") (A") (A') (A') (A") (A') (A") (A') (A')
                 (A') (A") (A') (A") (A") (A') (A") (A') (A') (A")
                 (A') (A') (A') (A') (A") (A') (A') (A') (A") (A")
                 (A') (A') (A') (A") (A') (A') (A') (A") (A") (A')
                 (A") (A') (A') (A") (A') (A') (A') (A') (A') (A')
                 (A") (A') (A') (A') (A') (A") (A") (A") (A') (A')
                 (A') (A') (A') (A') (A') (A') (A") (A') (A') (A')
                 (A') (A") (A') (A") (A") (A") (A') (A") (A') (A")
                 (A') (A") (A") (A') (A") (A") (A') (A') (A') (A')
                 (A') (A') (A') (A') (A') (A') (A') (A') (A') (A')
                 (A') (A') (A') (A") (A') (A') (A') (A') (A') (A')
                 (A') (A') (A') (A') (A') (A') (A') (A') (A') (A')
                 (A') (A') (A') (A') (A') (A') (A') (A') (A') (A')
                 (A') (A')
     4 initial guesses have been made.
 Convergence on wavefunction:    0.001000000000000
 Iteration     1 Dimension     4 NMult     0 NNew      4
 CISAX will form     4 AO SS matrices at one time.
 Iteration     2 Dimension     6 NMult     4 NNew      2
 Iteration     3 Dimension     8 NMult     6 NNew      2
 Iteration     4 Dimension    10 NMult     8 NNew      2
 Iteration     5 Dimension    12 NMult    10 NNew      2
 Iteration     6 Dimension    14 NMult    12 NNew      2
 ***********************************************************************
 Excited states from <AA,BB:AA,BB> singles matrix:
 ***********************************************************************
 
 Ground to excited state transition densities written to RWF  633
 Ground to excited state transition electric dipole moments (Au):
       state          X           Y           Z        Dip. S.      Osc.
         1         0.5526      0.3092     -0.0000      0.4009      0.0276
 Ground to excited state transition velocity dipole moments (Au):
       state          X           Y           Z        Dip. S.      Osc.
         1        -0.0644     -0.0342     -0.0000      0.0053      0.0344
 Ground to excited state transition magnetic dipole moments (Au):
       state          X           Y           Z
         1         0.0000      0.0000      0.0834
 Ground to excited state transition velocity quadrupole moments (Au):
       state          XX          YY          ZZ          XY          XZ          YZ
         1         0.1202      0.2034     -0.0096     -0.1262      0.0000      0.0000
 <0|del|b> * <b|rxdel|0> + <0|del|b> * <b|delr+rdel|0>
 Rotatory Strengths (R) in cgs (10**-40 erg-esu-cm/Gauss)
       state          XX          YY          ZZ    R(velocity)    E-M Angle
         1        -0.0000     -0.0000     -0.0000     -0.0000       90.00
 1/2[<0|r|b>*<b|rxdel|0> + (<0|rxdel|b>*<b|r|0>)*]
 Rotatory Strengths (R) in cgs (10**-40 erg-esu-cm/Gauss)
       state          XX          YY          ZZ     R(length)
         1        -0.0000     -0.0000      0.0000      0.0000
  1/2[<0|del|b>*<b|r|0> + (<0|r|b>*<b|del|0>)*] (Au)
       state          X           Y           Z        Dip. S.   Osc.(frdel)
         1        -0.0356     -0.0106      0.0000      0.0462      0.0308

 Excitation energies and oscillator strengths:
 
 Excited State   1:      Singlet-A'     2.8084 eV  441.47 nm  f=0.0276  <S**2>=0.000
      47 -> 48         0.70410
 This state for optimization and/or second-order correction.
 Total Energy, E(TD-HF/TD-DFT) =  -539.656535303    
 Copying the excited state density for this state as the 1-particle RhoCI density.
 SavETr:  write IOETrn=   770 NScale= 10 NData=  16 NLR=1 NState=    1 LETran=      28.

 **********************************************************************

            Population analysis using the SCF Density.

 **********************************************************************

 Orbital symmetries:
       Occupied  (A') (A') (A') (A') (A') (A') (A') (A') (A') (A')
                 (A') (A') (A') (A') (A') (A') (A') (A') (A') (A')
                 (A') (A') (A') (A') (A') (A') (A') (A') (A') (A')
                 (A') (A') (A") (A') (A') (A') (A') (A") (A") (A')
                 (A') (A') (A') (A") (A") (A") (A")
       Virtual   (A") (A") (A") (A") (A') (A') (A') (A') (A") (A')
                 (A') (A") (A') (A') (A") (A') (A") (A') (A') (A')
                 (A") (A") (A') (A') (A') (A") (A') (A") (A') (A')
                 (A") (A') (A") (A') (A') (A') (A') (A') (A") (A')
                 (A") (A') (A') (A") (A") (A') (A") (A') (A") (A')
                 (A') (A') (A') (A') (A') (A") (A') (A') (A') (A')
                 (A') (A") (A') (A') (A') (A") (A') (A') (A') (A')
                 (A') (A') (A') (A') (A') (A') (A') (A') (A') (A')
                 (A') (A') (A') (A') (A') (A') (A') (A') (A') (A')
                 (A') (A') (A') (A') (A") (A') (A") (A") (A') (A")
                 (A') (A') (A') (A') (A") (A") (A') (A") (A") (A')
                 (A') (A') (A") (A') (A') (A") (A') (A") (A') (A")
                 (A") (A') (A") (A') (A') (A') (A") (A') (A') (A')
                 (A') (A') (A') (A') (A') (A') (A') (A') (A') (A')
                 (A') (A') (A') (A") (A') (A') (A') (A') (A') (A')
                 (A') (A') (A") (A') (A") (A') (A") (A") (A') (A")
                 (A") (A') (A') (A") (A") (A") (A') (A") (A') (A')
                 (A') (A') (A') (A") (A") (A') (A') (A') (A') (A")
                 (A') (A') (A') (A") (A') (A") (A') (A') (A") (A")
                 (A") (A') (A') (A") (A') (A") (A') (A') (A') (A')
                 (A") (A") (A") (A') (A') (A") (A') (A") (A') (A')
                 (A') (A") (A') (A") (A") (A') (A") (A') (A') (A")
                 (A') (A') (A') (A') (A") (A') (A') (A') (A") (A")
                 (A') (A') (A') (A") (A') (A') (A') (A") (A") (A')
                 (A") (A') (A') (A") (A') (A') (A') (A') (A') (A')
                 (A") (A') (A') (A') (A') (A") (A") (A") (A') (A')
                 (A') (A') (A') (A') (A') (A') (A") (A') (A') (A')
                 (A') (A") (A') (A") (A") (A") (A') (A") (A') (A")
                 (A') (A") (A") (A') (A") (A") (A') (A') (A') (A')
                 (A') (A') (A') (A') (A') (A') (A') (A') (A') (A')
                 (A') (A') (A') (A") (A') (A') (A') (A') (A') (A')
                 (A') (A') (A') (A') (A') (A') (A') (A') (A') (A')
                 (A') (A') (A') (A') (A') (A') (A') (A') (A') (A')
                 (A') (A')
 The electronic state is 1-A'.
 Alpha  occ. eigenvalues --  -10.77657 -10.73371 -10.73082 -10.72545 -10.72312
 Alpha  occ. eigenvalues --  -10.71504 -10.71266 -10.71229 -10.70973 -10.70751
 Alpha  occ. eigenvalues --  -10.70037 -10.69906 -10.69709 -10.69544  -1.16462
 Alpha  occ. eigenvalues --   -1.12475  -1.06945  -1.05758  -1.01312  -1.00216
 Alpha  occ. eigenvalues --   -0.95764  -0.91059  -0.86422  -0.85905  -0.83819
 Alpha  occ. eigenvalues --   -0.78396  -0.76047  -0.74416  -0.69573  -0.69253
 Alpha  occ. eigenvalues --   -0.68493  -0.68189  -0.68096  -0.64791  -0.64282
 Alpha  occ. eigenvalues --   -0.63052  -0.61850  -0.60051  -0.59624  -0.59093
 Alpha  occ. eigenvalues --   -0.56908  -0.55221  -0.54822  -0.52437  -0.46687
 Alpha  occ. eigenvalues --   -0.46067  -0.44432
 Alpha virt. eigenvalues --   -0.26085  -0.14670  -0.14095  -0.12772  -0.11180
 Alpha virt. eigenvalues --   -0.10088  -0.09232  -0.07981  -0.07964  -0.07477
 Alpha virt. eigenvalues --   -0.07205  -0.07145  -0.05642  -0.05582  -0.05335
 Alpha virt. eigenvalues --   -0.03829  -0.03648  -0.03280  -0.03132  -0.02164
 Alpha virt. eigenvalues --   -0.01367  -0.00932   0.00189   0.00593   0.00668
 Alpha virt. eigenvalues --    0.01059   0.01512   0.01938   0.02214   0.02285
 Alpha virt. eigenvalues --    0.02450   0.02671   0.02751   0.03292   0.03380
 Alpha virt. eigenvalues --    0.04238   0.04506   0.04696   0.05030   0.05366
 Alpha virt. eigenvalues --    0.06031   0.06297   0.06596   0.07049   0.07253
 Alpha virt. eigenvalues --    0.07894   0.08159   0.08365   0.08551   0.08927
 Alpha virt. eigenvalues --    0.09539   0.09567   0.10038   0.10873   0.11037
 Alpha virt. eigenvalues --    0.11115   0.12173   0.12247   0.12893   0.12994
 Alpha virt. eigenvalues --    0.13415   0.13523   0.14019   0.14375   0.16180
 Alpha virt. eigenvalues --    0.16339   0.16351   0.17346   0.17616   0.17797
 Alpha virt. eigenvalues --    0.18126   0.19062   0.19251   0.19638   0.19755
 Alpha virt. eigenvalues --    0.21559   0.21606   0.22724   0.23118   0.23566
 Alpha virt. eigenvalues --    0.23796   0.24561   0.25309   0.26922   0.27609
 Alpha virt. eigenvalues --    0.28855   0.29298   0.29875   0.31364   0.35831
 Alpha virt. eigenvalues --    0.36442   0.38183   0.39279   0.41153   0.41395
 Alpha virt. eigenvalues --    0.41979   0.42186   0.42983   0.43692   0.44302
 Alpha virt. eigenvalues --    0.44925   0.45048   0.46063   0.46206   0.47929
 Alpha virt. eigenvalues --    0.48521   0.48871   0.49021   0.50435   0.51186
 Alpha virt. eigenvalues --    0.51535   0.51769   0.52116   0.52907   0.53986
 Alpha virt. eigenvalues --    0.54091   0.54657   0.55679   0.55773   0.57438
 Alpha virt. eigenvalues --    0.58240   0.58825   0.61451   0.62187   0.62353
 Alpha virt. eigenvalues --    0.63214   0.63492   0.64987   0.65157   0.67304
 Alpha virt. eigenvalues --    0.70402   0.70578   0.71046   0.72424   0.72878
 Alpha virt. eigenvalues --    0.75753   0.76026   0.76307   0.76888   0.77099
 Alpha virt. eigenvalues --    0.77848   0.77900   0.78251   0.79878   0.80398
 Alpha virt. eigenvalues --    0.81255   0.81634   0.82159   0.83015   0.85200
 Alpha virt. eigenvalues --    0.87162   0.88193   0.88578   0.89133   0.90436
 Alpha virt. eigenvalues --    0.91103   0.91264   0.93200   0.94633   0.96436
 Alpha virt. eigenvalues --    0.96672   1.00374   1.01295   1.01675   1.02723
 Alpha virt. eigenvalues --    1.03204   1.03753   1.04747   1.05510   1.08787
 Alpha virt. eigenvalues --    1.19565   1.23241   1.24076   1.25194   1.28130
 Alpha virt. eigenvalues --    1.29649   1.31815   1.34286   1.35775   1.36003
 Alpha virt. eigenvalues --    1.39364   1.40128   1.40953   1.42993   1.43487
 Alpha virt. eigenvalues --    1.43526   1.44874   1.45705   1.46372   1.46674
 Alpha virt. eigenvalues --    1.47644   1.48037   1.51754   1.53630   1.55814
 Alpha virt. eigenvalues --    1.55848   1.56349   1.56568   1.57793   1.61464
 Alpha virt. eigenvalues --    1.63216   1.63460   1.63818   1.66121   1.68331
 Alpha virt. eigenvalues --    1.68353   1.68680   1.69731   1.74410   1.75997
 Alpha virt. eigenvalues --    1.77190   1.78052   1.80048   1.80140   1.80731
 Alpha virt. eigenvalues --    1.83144   1.83205   1.83631   1.83823   1.84156
 Alpha virt. eigenvalues --    1.84304   1.85803   1.86130   1.88239   1.91395
 Alpha virt. eigenvalues --    1.92089   1.94133   1.95219   1.97702   1.98163
 Alpha virt. eigenvalues --    1.99759   2.02499   2.04438   2.07262   2.11813
 Alpha virt. eigenvalues --    2.12080   2.14121   2.15222   2.19128   2.21283
 Alpha virt. eigenvalues --    2.22791   2.28581   2.30238   2.34660   2.34951
 Alpha virt. eigenvalues --    2.36233   2.38678   2.39598   2.42376   2.44561
 Alpha virt. eigenvalues --    2.46171   2.46602   2.49366   2.52924   2.53810
 Alpha virt. eigenvalues --    2.54294   2.56753   2.57850   2.58308   2.59624
 Alpha virt. eigenvalues --    2.59837   2.61605   2.62149   2.63550   2.63808
 Alpha virt. eigenvalues --    2.64787   2.65122   2.65198   2.65375   2.68002
 Alpha virt. eigenvalues --    2.68565   2.70962   2.71418   2.73350   2.74823
 Alpha virt. eigenvalues --    2.76301   2.78825   2.79729   2.82935   2.83077
 Alpha virt. eigenvalues --    2.84892   2.86315   2.92123   2.97001   2.99512
 Alpha virt. eigenvalues --    3.00079   3.05207   3.10972   3.11466   3.13218
 Alpha virt. eigenvalues --    3.21031   3.23732   3.26752   3.28305   3.30731
 Alpha virt. eigenvalues --    3.32803   3.33720   3.43448   3.45937   3.46672
 Alpha virt. eigenvalues --    3.48575   3.50177   3.56527   3.65632   3.66922
 Alpha virt. eigenvalues --    3.67483   3.94166   3.94494   3.95208   3.96248
 Alpha virt. eigenvalues --    4.04012   4.06886   4.07548   4.12539   4.35585
 Alpha virt. eigenvalues --    4.61482   4.69815   4.71620  23.45328  23.60525
 Alpha virt. eigenvalues --   23.82107  23.85365  23.87719  23.89198  23.90634
 Alpha virt. eigenvalues --   23.92806  23.97414  23.98869  24.00303  24.01304
 Alpha virt. eigenvalues --   24.10596  24.10866
          Condensed to atoms (all electrons):
               1          2          3          4          5          6
     1  C    8.652332   0.271148  -0.514504   2.020734  -0.033287  -0.098204
     2  C    0.271148   7.118417   0.335479  -1.089342  -0.013854  -0.014361
     3  C   -0.514504   0.335479   6.584500   0.772753  -0.126572   0.016925
     4  C    2.020734  -1.089342   0.772753  10.849681  -0.346201  -0.119225
     5  C   -0.033287  -0.013854  -0.126572  -0.346201  11.071709   0.742952
     6  C   -0.098204  -0.014361   0.016925  -0.119225   0.742952   6.589795
     7  C   -0.016275   0.002160  -0.014969  -0.028199  -1.031466   0.383114
     8  C    0.405237  -0.024969  -0.092167  -0.011596   1.873496  -0.585312
     9  C   -1.190121  -0.782978   0.290848  -0.296355  -0.170738   0.291565
    10  C   -1.296396   0.271075  -0.379176  -2.516605  -2.627508  -0.330824
    11  C    0.282489  -0.949740   1.046149  -0.260899  -1.527823  -0.191485
    12  C   -2.124800   1.430000  -1.411555  -1.560833  -0.365477  -0.177049
    13  C    0.202462  -0.254919  -0.159222  -1.478752  -0.255797   0.981139
    14  C   -1.059545  -0.169276  -0.223284  -0.295000  -1.557374  -1.366385
    15  H    0.367000  -0.105408  -0.000979   0.027788   0.005578   0.001064
    16  H   -0.018886   0.377209  -0.015018   0.012635  -0.001502  -0.000320
    17  H   -0.026014  -0.014499   0.372861  -0.067006   0.000370   0.000393
    18  H    0.050624   0.002776  -0.084812   0.454984   0.006703  -0.005079
    19  H   -0.047485  -0.007478   0.051043  -0.067667  -0.073013   0.050904
    20  H    0.007325   0.002017  -0.005005   0.006749   0.458213  -0.084716
    21  H   -0.001342  -0.000392   0.000401   0.000262  -0.067910   0.376488
    22  H    0.000794   0.000374  -0.000337  -0.001593   0.014650  -0.017762
    23  H    0.005565  -0.002760   0.001138   0.006063   0.026403  -0.002185
    24  H    0.031015   0.013983  -0.001587  -0.012550  -0.012033  -0.001449
    25  H    0.031015   0.013983  -0.001587  -0.012550  -0.012033  -0.001449
               7          8          9         10         11         12
     1  C   -0.016275   0.405237  -1.190121  -1.296396   0.282489  -2.124800
     2  C    0.002160  -0.024969  -0.782978   0.271075  -0.949740   1.430000
     3  C   -0.014969  -0.092167   0.290848  -0.379176   1.046149  -1.411555
     4  C   -0.028199  -0.011596  -0.296355  -2.516605  -0.260899  -1.560833
     5  C   -1.031466   1.873496  -0.170738  -2.627508  -1.527823  -0.365477
     6  C    0.383114  -0.585312   0.291565  -0.330824  -0.191485  -0.177049
     7  C    7.120146   0.412467  -0.806709   0.217600  -0.230591  -0.228733
     8  C    0.412467   8.498832  -1.199227  -1.241195   0.184783  -1.092810
     9  C   -0.806709  -1.199227   9.617884   0.256822   1.636630  -1.905625
    10  C    0.217600  -1.241195   0.256822   9.192733  -0.509220   2.443933
    11  C   -0.230591   0.184783   1.636630  -0.509220  14.517412  -3.692810
    12  C   -0.228733  -1.092810  -1.905625   2.443933  -3.692810  16.019316
    13  C   -0.893053   0.287706   1.680368  -0.458187   1.091564  -4.837498
    14  C    1.239082  -1.909493  -2.011568   2.417993  -4.810317   3.047386
    15  H   -0.002603   0.006072   0.092746  -0.010117  -0.030899  -0.027741
    16  H    0.000351   0.000613   0.004080  -0.009233   0.027787  -0.034486
    17  H   -0.000406  -0.001295  -0.006057   0.020679  -0.028136   0.093354
    18  H    0.002004   0.007272  -0.025531   0.014814  -0.006928  -0.056055
    19  H   -0.007744  -0.045982   0.075906   0.422099   0.078896  -0.059607
    20  H    0.003136   0.048756  -0.024573   0.012902  -0.011944  -0.015329
    21  H   -0.018510  -0.022474  -0.005568   0.020453  -0.006323   0.005264
    22  H    0.379693  -0.019742   0.003498  -0.009882   0.003201  -0.009485
    23  H   -0.104777   0.366159   0.090496  -0.009120   0.000065   0.006950
    24  H    0.014829   0.033884   0.356886   0.005458   0.010254  -0.060144
    25  H    0.014829   0.033884   0.356886   0.005458   0.010254  -0.060144
              13         14         15         16         17         18
     1  C    0.202462  -1.059545   0.367000  -0.018886  -0.026014   0.050624
     2  C   -0.254919  -0.169276  -0.105408   0.377209  -0.014499   0.002776
     3  C   -0.159222  -0.223284  -0.000979  -0.015018   0.372861  -0.084812
     4  C   -1.478752  -0.295000   0.027788   0.012635  -0.067006   0.454984
     5  C   -0.255797  -1.557374   0.005578  -0.001502   0.000370   0.006703
     6  C    0.981139  -1.366385   0.001064  -0.000320   0.000393  -0.005079
     7  C   -0.893053   1.239082  -0.002603   0.000351  -0.000406   0.002004
     8  C    0.287706  -1.909493   0.006072   0.000613  -0.001295   0.007272
     9  C    1.680368  -2.011568   0.092746   0.004080  -0.006057  -0.025531
    10  C   -0.458187   2.417993  -0.010117  -0.009233   0.020679   0.014814
    11  C    1.091564  -4.810317  -0.030899   0.027787  -0.028136  -0.006928
    12  C   -4.837498   3.047386  -0.027741  -0.034486   0.093354  -0.056055
    13  C   14.569265  -3.891021   0.002972   0.002964  -0.006325  -0.011874
    14  C   -3.891021  16.115281   0.006253  -0.008733   0.005334  -0.011715
    15  H    0.002972   0.006253   0.440295  -0.008982   0.001404   0.000160
    16  H    0.002964  -0.008733  -0.008982   0.420234  -0.006476   0.001905
    17  H   -0.006325   0.005334   0.001404  -0.006476   0.423139  -0.010277
    18  H   -0.011874  -0.011715   0.000160   0.001905  -0.010277   0.454884
    19  H    0.077061  -0.071168   0.000274  -0.000518   0.001325  -0.006315
    20  H   -0.008701  -0.050984  -0.000108   0.000013  -0.000136   0.001273
    21  H   -0.027383   0.089845   0.000012  -0.000007   0.000010  -0.000149
    22  H    0.027435  -0.033539  -0.000128   0.000007  -0.000007   0.000016
    23  H   -0.029671  -0.021185   0.000588  -0.000126   0.000014  -0.000115
    24  H    0.016706  -0.059836  -0.000894   0.000631  -0.000144   0.000190
    25  H    0.016706  -0.059836  -0.000894   0.000631  -0.000144   0.000190
              19         20         21         22         23         24
     1  C   -0.047485   0.007325  -0.001342   0.000794   0.005565   0.031015
     2  C   -0.007478   0.002017  -0.000392   0.000374  -0.002760   0.013983
     3  C    0.051043  -0.005005   0.000401  -0.000337   0.001138  -0.001587
     4  C   -0.067667   0.006749   0.000262  -0.001593   0.006063  -0.012550
     5  C   -0.073013   0.458213  -0.067910   0.014650   0.026403  -0.012033
     6  C    0.050904  -0.084716   0.376488  -0.017762  -0.002185  -0.001449
     7  C   -0.007744   0.003136  -0.018510   0.379693  -0.104777   0.014829
     8  C   -0.045982   0.048756  -0.022474  -0.019742   0.366159   0.033884
     9  C    0.075906  -0.024573  -0.005568   0.003498   0.090496   0.356886
    10  C    0.422099   0.012902   0.020453  -0.009882  -0.009120   0.005458
    11  C    0.078896  -0.011944  -0.006323   0.003201   0.000065   0.010254
    12  C   -0.059607  -0.015329   0.005264  -0.009485   0.006950  -0.060144
    13  C    0.077061  -0.008701  -0.027383   0.027435  -0.029671   0.016706
    14  C   -0.071168  -0.050984   0.089845  -0.033539  -0.021185  -0.059836
    15  H    0.000274  -0.000108   0.000012  -0.000128   0.000588  -0.000894
    16  H   -0.000518   0.000013  -0.000007   0.000007  -0.000126   0.000631
    17  H    0.001325  -0.000136   0.000010  -0.000007   0.000014  -0.000144
    18  H   -0.006315   0.001273  -0.000149   0.000016  -0.000115   0.000190
    19  H    0.442723  -0.006014   0.001492  -0.000554   0.000329   0.000605
    20  H   -0.006014   0.451887  -0.010168   0.001929   0.000210   0.000167
    21  H    0.001492  -0.010168   0.421701  -0.006783   0.001524  -0.000140
    22  H   -0.000554   0.001929  -0.006783   0.418447  -0.008974   0.000629
    23  H    0.000329   0.000210   0.001524  -0.008974   0.437386  -0.000909
    24  H    0.000605   0.000167  -0.000140   0.000629  -0.000909   0.494191
    25  H    0.000605   0.000167  -0.000140   0.000629  -0.000909  -0.080020
              25
     1  C    0.031015
     2  C    0.013983
     3  C   -0.001587
     4  C   -0.012550
     5  C   -0.012033
     6  C   -0.001449
     7  C    0.014829
     8  C    0.033884
     9  C    0.356886
    10  C    0.005458
    11  C    0.010254
    12  C   -0.060144
    13  C    0.016706
    14  C   -0.059836
    15  H   -0.000894
    16  H    0.000631
    17  H   -0.000144
    18  H    0.000190
    19  H    0.000605
    20  H    0.000167
    21  H   -0.000140
    22  H    0.000629
    23  H   -0.000909
    24  H   -0.080020
    25  H    0.494191
 Mulliken charges:
               1
     1  C    0.099117
     2  C   -0.408643
     3  C   -0.441326
     4  C    0.012727
     5  C    0.022511
     6  C   -0.438535
     7  C   -0.405377
     8  C    0.087101
     9  C   -0.329565
    10  C    0.095444
    11  C   -0.632370
    12  C    0.673977
    13  C   -0.643944
    14  C    0.689084
    15  H    0.236548
    16  H    0.255226
    17  H    0.248038
    18  H    0.221055
    19  H    0.190283
    20  H    0.222934
    21  H    0.249836
    22  H    0.257483
    23  H    0.237841
    24  H    0.250277
    25  H    0.250277
 Sum of Mulliken charges =   1.00000
 Mulliken charges with hydrogens summed into heavy atoms:
               1
     1  C    0.335666
     2  C   -0.153417
     3  C   -0.193288
     4  C    0.233782
     5  C    0.245445
     6  C   -0.188700
     7  C   -0.147893
     8  C    0.324942
     9  C    0.170989
    10  C    0.285727
    11  C   -0.632370
    12  C    0.673977
    13  C   -0.643944
    14  C    0.689084
 Electronic spatial extent (au):  <R**2>=           2855.3032
 Charge=              1.0000 electrons
 Dipole moment (field-independent basis, Debye):
    X=             -0.0313    Y=             -0.3343    Z=              0.0000  Tot=              0.3357
 Quadrupole moment (field-independent basis, Debye-Ang):
   XX=            -50.7908   YY=            -36.5907   ZZ=            -84.1408
   XY=            -10.3729   XZ=             -0.0000   YZ=              0.0000
 Traceless Quadrupole moment (field-independent basis, Debye-Ang):
   XX=              6.3833   YY=             20.5834   ZZ=            -26.9667
   XY=            -10.3729   XZ=             -0.0000   YZ=              0.0000
 Octapole moment (field-independent basis, Debye-Ang**2):
  XXX=              0.5585  YYY=              2.7497  ZZZ=             -0.0000  XYY=              1.1289
  XXY=             -5.9361  XXZ=              0.0000  XZZ=              2.9082  YZZ=              1.0931
  YYZ=              0.0000  XYZ=              0.0000
 Hexadecapole moment (field-independent basis, Debye-Ang**3):
 XXXX=           -996.5178 YYYY=          -1842.5423 ZZZZ=            -99.3231 XXXY=            350.0996
 XXXZ=              0.0000 YYYX=            277.2028 YYYZ=             -0.0000 ZZZX=              0.0000
 ZZZY=             -0.0000 XXYY=           -453.6715 XXZZ=           -243.7202 YYZZ=           -492.5739
 XXYZ=              0.0000 YYXZ=              0.0000 ZZXY=            184.4155
 N-N= 7.812944256244D+02 E-N=-2.798934716425D+03  KE= 5.375122879172D+02
 Symmetry A'   KE= 5.228646617642D+02
 Symmetry A"   KE= 1.464762615297D+01
 Unable to Open any file for archive entry.
 1\1\GINC-GADI-CPU-CLX-0648\SP\RM062X TD-FC\6-311++G(d,p)\C14H11(1+)\TS
 1578\27-Jul-2022\0\\#n M062X/6-311++G(d,p) TD(NStates=1) EmpiricalDisp
 ersion=GD3 SP\\SP_0\\1,1\C,0,2.4986,1.3691,0.\C,0,3.70925,0.6844,0.\C,
 0,3.6859,-0.6984,0.\C,0,2.45535,-1.39425,0.\C,0,-2.47095,-1.40335,0.\C
 ,0,-3.6813,-0.7108,0.\C,0,-3.6928,0.67735,0.\C,0,-2.4849,1.3697,0.\C,0
 ,0.0044,1.4599,0.\C,0,-0.0122,-1.4204,0.\C,0,1.2602,0.68185,0.\C,0,1.2
 327,-0.72165,0.\C,0,-1.26385,0.6895,0.\C,0,-1.2427,-0.72285,0.\H,0,2.4
 891,2.4524,0.\H,0,4.64455,1.22365,0.\H,0,4.6077,-1.2633,0.\H,0,2.464,-
 2.4769,0.\H,0,-0.01125,-2.50155,0.\H,0,-2.4713,-2.48575,0.\H,0,-4.6106
 ,-1.26285,0.\H,0,-4.6279,1.2179,0.\H,0,-2.4849,2.45285,0.\H,0,0.016,2.
 154,-0.85905\H,0,0.016,2.154,0.85905\\Version=ES64L-G16RevC.01\State=1
 -A'\HF=-539.7597434\RMSD=5.750e-09\PG=CS [SG(C14H9),X(H2)]\\@
 The archive entry for this job was punched.


 IF YOU GET CONFUSED, LOGIC OUT YOUR DILEMMA

           --  PICKER X-RAY CORP.    DIGITAL PRINTER MANUAL CA. 1964
 Job cpu time:       0 days  0 hours 45 minutes  8.7 seconds.
 Elapsed time:       0 days  0 hours  1 minutes 25.5 seconds.
 File lengths (MBytes):  RWF=    460 Int=      0 D2E=      0 Chk=     15 Scr=      1
 Normal termination of Gaussian 16 at Wed Jul 27 11:16:14 2022.
