 Entering Gaussian System, Link 0=g16
 Initial command:
 /apps/gaussian/g16c01/g16/l1.exe "/jobfs/52804872.gadi-pbs/Gau-1424041.inp" -scrdir="/jobfs/52804872.gadi-pbs/"
 Entering Link 1 = /apps/gaussian/g16c01/g16/l1.exe PID=   1424042.
  
 Copyright (c) 1988-2019, Gaussian, Inc.  All Rights Reserved.
  
 This is part of the Gaussian(R) 16 program.  It is based on
 the Gaussian(R) 09 system (copyright 2009, Gaussian, Inc.),
 the Gaussian(R) 03 system (copyright 2003, Gaussian, Inc.),
 the Gaussian(R) 98 system (copyright 1998, Gaussian, Inc.),
 the Gaussian(R) 94 system (copyright 1995, Gaussian, Inc.),
 the Gaussian 92(TM) system (copyright 1992, Gaussian, Inc.),
 the Gaussian 90(TM) system (copyright 1990, Gaussian, Inc.),
 the Gaussian 88(TM) system (copyright 1988, Gaussian, Inc.),
 the Gaussian 86(TM) system (copyright 1986, Carnegie Mellon
 University), and the Gaussian 82(TM) system (copyright 1983,
 Carnegie Mellon University). Gaussian is a federally registered
 trademark of Gaussian, Inc.
  
 This software contains proprietary and confidential information,
 including trade secrets, belonging to Gaussian, Inc.
  
 This software is provided under written license and may be
 used, copied, transmitted, or stored only in accord with that
 written license.
  
 The following legend is applicable only to US Government
 contracts under FAR:
  
                    RESTRICTED RIGHTS LEGEND
  
 Use, reproduction and disclosure by the US Government is
 subject to restrictions as set forth in subparagraphs (a)
 and (c) of the Commercial Computer Software - Restricted
 Rights clause in FAR 52.227-19.
  
 Gaussian, Inc.
 340 Quinnipiac St., Bldg. 40, Wallingford CT 06492
  
  
 ---------------------------------------------------------------
 Warning -- This program may not be used in any manner that
 competes with the business of Gaussian, Inc. or will provide
 assistance to any competitor of Gaussian, Inc.  The licensee
 of this program is prohibited from giving any competitor of
 Gaussian, Inc. access to this program.  By using this program,
 the user acknowledges that Gaussian, Inc. is engaged in the
 business of creating and licensing software in the field of
 computational chemistry and represents and warrants to the
 licensee that it is not a competitor of Gaussian, Inc. and that
 it will not use this program in any manner prohibited above.
 ---------------------------------------------------------------
  

 Cite this work as:
 Gaussian 16, Revision C.01,
 M. J. Frisch, G. W. Trucks, H. B. Schlegel, G. E. Scuseria, 
 M. A. Robb, J. R. Cheeseman, G. Scalmani, V. Barone, 
 G. A. Petersson, H. Nakatsuji, X. Li, M. Caricato, A. V. Marenich, 
 J. Bloino, B. G. Janesko, R. Gomperts, B. Mennucci, H. P. Hratchian, 
 J. V. Ortiz, A. F. Izmaylov, J. L. Sonnenberg, D. Williams-Young, 
 F. Ding, F. Lipparini, F. Egidi, J. Goings, B. Peng, A. Petrone, 
 T. Henderson, D. Ranasinghe, V. G. Zakrzewski, J. Gao, N. Rega, 
 G. Zheng, W. Liang, M. Hada, M. Ehara, K. Toyota, R. Fukuda, 
 J. Hasegawa, M. Ishida, T. Nakajima, Y. Honda, O. Kitao, H. Nakai, 
 T. Vreven, K. Throssell, J. A. Montgomery, Jr., J. E. Peralta, 
 F. Ogliaro, M. J. Bearpark, J. J. Heyd, E. N. Brothers, K. N. Kudin, 
 V. N. Staroverov, T. A. Keith, R. Kobayashi, J. Normand, 
 K. Raghavachari, A. P. Rendell, J. C. Burant, S. S. Iyengar, 
 J. Tomasi, M. Cossi, J. M. Millam, M. Klene, C. Adamo, R. Cammi, 
 J. W. Ochterski, R. L. Martin, K. Morokuma, O. Farkas, 
 J. B. Foresman, and D. J. Fox, Gaussian, Inc., Wallingford CT, 2019.
 
 ******************************************
 Gaussian 16:  ES64L-G16RevC.01  3-Jul-2019
                27-Jul-2022 
 ******************************************
 %NProcShared=32
 Will use up to   32 processors via shared memory.
 %mem = 128GB
 ---------------------------------------------------------------
 #n M062X/6-311++G(d,p) TD(NStates=1) EmpiricalDispersion=GD3 SP
 ---------------------------------------------------------------
 1/38=1,172=1/1;
 2/12=2,17=6,18=5,40=1/2;
 3/5=4,6=6,7=1111,11=9,25=1,30=1,74=-55,124=31/1,2,3,8;
 4//1;
 5/5=2,38=5/2;
 8/6=1,10=2,108=1/1;
 9/41=1,42=1,70=2/14;
 6/7=2,8=2,9=2,10=2/1;
 99/5=1,9=1/99;
 ------
 SP_-25
 ------
 Symbolic Z-matrix:
 Charge =  1 Multiplicity = 1
 C                     2.4947    1.3694    0. 
 C                     3.7049    0.68273   0. 
 C                     3.6846   -0.70125   0. 
 C                     2.45922  -1.39648   0. 
 C                    -2.46703  -1.40103   0. 
 C                    -3.6823   -0.70745   0. 
 C                    -3.69667   0.6792    0. 
 C                    -2.48785   1.3697    0. 
 C                     0.00223   1.4588    0. 
 C                    -0.0061   -1.42035   0. 
 C                     1.26108   0.68375   0. 
 C                     1.2353   -0.72203   0. 
 C                    -1.2629    0.68758   0. 
 C                    -1.2403   -0.72263   0. 
 H                     2.4875    2.45268   0. 
 H                     4.6401    1.2224    0. 
 H                     4.60835  -1.26288   0. 
 H                     2.4659   -2.47907   0. 
 H                    -0.00563  -2.50152   0. 
 H                    -2.46955  -2.4835    0. 
 H                    -4.6098   -1.26265   0. 
 H                    -4.63177   1.21952   0. 
 H                    -2.4854    2.4529    0. 
 H                     0.008     2.15375  -0.85878 
 H                     0.008     2.15375   0.85878 
 
                          Input orientation:                          
 ---------------------------------------------------------------------
 Center     Atomic      Atomic             Coordinates (Angstroms)
 Number     Number       Type             X           Y           Z
 ---------------------------------------------------------------------
      1          6           0        2.494700    1.369400    0.000000
      2          6           0        3.704900    0.682725    0.000000
      3          6           0        3.684600   -0.701250    0.000000
      4          6           0        2.459225   -1.396475    0.000000
      5          6           0       -2.467025   -1.401025    0.000000
      6          6           0       -3.682300   -0.707450    0.000000
      7          6           0       -3.696675    0.679200    0.000000
      8          6           0       -2.487850    1.369700    0.000000
      9          6           0        0.002225    1.458800    0.000000
     10          6           0       -0.006100   -1.420350    0.000000
     11          6           0        1.261075    0.683750    0.000000
     12          6           0        1.235300   -0.722025    0.000000
     13          6           0       -1.262900    0.687575    0.000000
     14          6           0       -1.240300   -0.722625    0.000000
     15          1           0        2.487500    2.452675    0.000000
     16          1           0        4.640100    1.222400    0.000000
     17          1           0        4.608350   -1.262875    0.000000
     18          1           0        2.465900   -2.479075    0.000000
     19          1           0       -0.005625   -2.501525    0.000000
     20          1           0       -2.469550   -2.483500    0.000000
     21          1           0       -4.609800   -1.262650    0.000000
     22          1           0       -4.631775    1.219525    0.000000
     23          1           0       -2.485400    2.452900    0.000000
     24          1           0        0.008000    2.153750   -0.858775
     25          1           0        0.008000    2.153750    0.858775
 ---------------------------------------------------------------------
                    Distance matrix (angstroms):
                    1          2          3          4          5
     1  C    0.000000
     2  C    1.391440   0.000000
     3  C    2.388190   1.384124   0.000000
     4  C    2.766102   2.423794   1.408858   0.000000
     5  C    5.682778   6.514190   6.191298   4.926252   0.000000
     6  C    6.516796   7.516868   7.366903   6.180055   1.399264
     7  C    6.229727   7.401576   7.509252   6.496425   2.416480
     8  C    4.982550   6.230737   6.510605   5.667916   2.770803
     9  C    2.494078   3.783133   4.269157   3.766888   3.778332
    10  C    3.746559   4.265495   3.760103   2.465441   2.461001
    11  C    1.411363   2.443825   2.791361   2.400604   4.271419
    12  C    2.441341   2.841170   2.449388   1.397453   3.764074
    13  C    3.818958   4.967802   5.138734   4.265850   2.410844
    14  C    4.280980   5.141013   4.924946   3.760393   1.401813
    15  H    1.083299   2.148205   3.373469   3.849254   6.276808
    16  H    2.150430   1.079744   2.147885   3.408038   7.575855
    17  H    3.375854   2.145130   1.081081   2.153274   7.076724
    18  H    3.848583   3.395895   2.155433   1.082621   5.049351
    19  H    4.608219   4.889524   4.105941   2.701226   2.696218
    20  H    6.283997   6.938935   6.407026   5.047222   1.082478
    21  H    7.576385   8.539246   8.313377   7.070292   2.147238
    22  H    7.128051   8.353939   8.535307   7.558157   3.399033
    23  H    5.096604   6.438426   6.929471   6.266339   3.853969
    24  H    2.745246   4.070440   4.733488   4.398874   4.415843
    25  H    2.745246   4.070440   4.733488   4.398874   4.415843
                    6          7          8          9         10
     6  C    0.000000
     7  C    1.386725   0.000000
     8  C    2.396093   1.392138   0.000000
     9  C    4.274151   3.780164   2.491669   0.000000
    10  C    3.744686   4.245993   3.734095   2.879162   0.000000
    11  C    5.135406   4.957752   3.811163   1.478312   2.456210
    12  C    4.917622   5.127164   4.270499   2.505289   1.424336
    13  C    2.792775   2.433789   1.402069   1.481664   2.454159
    14  C    2.442047   2.828231   2.436022   2.510475   1.417769
    15  H    6.932014   6.433447   5.091851   2.676636   4.606340
    16  H    8.543223   8.354453   7.129472   4.643896   5.345213
    17  H    8.309234   8.529074   7.568785   5.350131   4.617136
    18  H    6.398361   6.924741   6.273174   4.645057   2.689179
    19  H    4.091044   4.872460   4.598676   3.960333   1.081175
    20  H    2.150608   3.392419   3.853243   4.653107   2.683072
    21  H    1.080973   2.145828   3.381115   5.355097   4.606400
    22  H    2.148194   1.079983   2.149178   4.640173   5.325956
    23  H    3.379406   2.147836   1.083203   2.678901   4.598804
    24  H    4.747870   4.078775   2.753452   1.104755   3.675851
    25  H    4.747870   4.078775   2.753452   1.104755   3.675851
                   11         12         13         14         15
    11  C    0.000000
    12  C    1.406011   0.000000
    13  C    2.523978   2.868445   0.000000
    14  C    2.869628   2.475600   1.410381   0.000000
    15  H    2.152490   3.412730   4.145006   4.896838   0.000000
    16  H    3.421689   3.920899   5.927179   6.193725   2.479368
    17  H    3.872157   3.416136   6.186746   5.873549   4.278238
    18  H    3.384533   2.145134   4.891996   4.101346   4.931797
    19  H    3.427901   2.169450   3.427988   2.165389   5.546149
    20  H    4.893775   4.102281   3.392893   2.147495   6.995582
    21  H    6.185115   5.870049   3.873644   3.412500   8.010949
    22  H    5.917156   6.179983   3.410614   3.908203   7.225284
    23  H    4.143183   4.891192   2.147296   3.410899   4.972900
    24  H    2.113904   3.242505   2.121874   3.251043   2.640979
    25  H    2.113904   3.242505   2.121874   3.251043   2.640979
                   16         17         18         19         20
    16  H    0.000000
    17  H    2.485478   0.000000
    18  H    4.292792   2.463582   0.000000
    19  H    5.954022   4.777344   2.471627   0.000000
    20  H    8.017532   7.182381   4.935452   2.463991   0.000000
    21  H    9.577898   9.218150   7.179500   4.767939   2.463969
    22  H    9.271875   9.567770   8.003539   5.936959   4.288078
    23  H    7.230967   8.008013   6.988544   5.540362   4.936425
    24  H    4.802214   5.794311   5.314305   4.733843   5.327273
    25  H    4.802214   5.794311   5.314305   4.733843   5.327273
                   21         22         23         24         25
    21  H    0.000000
    22  H    2.482272   0.000000
    23  H    4.279999   2.475508   0.000000
    24  H    5.808043   4.810175   2.654059   0.000000
    25  H    5.808043   4.810175   2.654059   1.717550   0.000000
 Stoichiometry    C14H11(1+)
 Framework group  CS[SG(C14H9),X(H2)]
 Deg. of freedom    46
 Full point group                 CS      NOp   2
 Largest Abelian subgroup         CS      NOp   2
 Largest concise Abelian subgroup CS      NOp   2
                         Standard orientation:                         
 ---------------------------------------------------------------------
 Center     Atomic      Atomic             Coordinates (Angstroms)
 Number     Number       Type             X           Y           Z
 ---------------------------------------------------------------------
      1          6           0        2.488684   -1.371515    0.000000
      2          6           0        3.701849   -0.690092    0.000000
      3          6           0        3.687548    0.693958    0.000000
      4          6           0        2.465198    1.394488    0.000000
      5          6           0       -2.460986    1.420390    0.000000
      6          6           0       -3.679256    0.732090    0.000000
      7          6           0       -3.699641   -0.654485    0.000000
      8          6           0       -2.493820   -1.350218    0.000000
      9          6           0       -0.004155   -1.450111    0.000000
     10          6           0        0.000000    1.429048    0.000000
     11          6           0        1.258043   -0.680524    0.000000
     12          6           0        1.238361    0.725349    0.000000
     13          6           0       -1.265925   -0.673409    0.000000
     14          6           0       -1.237213    0.736680    0.000000
     15          1           0        2.476789   -2.454749    0.000000
     16          1           0        4.634701   -1.233816    0.000000
     17          1           0        4.613724    1.251574    0.000000
     18          1           0        2.476566    2.477049    0.000000
     19          1           0        0.005161    2.510211    0.000000
     20          1           0       -2.458819    2.502866    0.000000
     21          1           0       -4.604340    1.291305    0.000000
     22          1           0       -4.637074   -1.190752    0.000000
     23          1           0       -2.496065   -2.433419    0.000000
     24          1           0       -0.001392   -2.145079    0.858775
     25          1           0       -0.001392   -2.145079   -0.858775
 ---------------------------------------------------------------------
 Rotational constants (GHZ):           2.1373024           0.4447781           0.3689617
 Standard basis: 6-311++G(d,p) (5D, 7F)
 There are   299 symmetry adapted cartesian basis functions of A'  symmetry.
 There are   100 symmetry adapted cartesian basis functions of A"  symmetry.
 There are   285 symmetry adapted basis functions of A'  symmetry.
 There are   100 symmetry adapted basis functions of A"  symmetry.
   385 basis functions,   603 primitive gaussians,   399 cartesian basis functions
    47 alpha electrons       47 beta electrons
       nuclear repulsion energy       781.3425942807 Hartrees.
 NAtoms=   25 NActive=   25 NUniq=   24 SFac= 1.09D+00 NAtFMM=   60 NAOKFM=F Big=F
 Integral buffers will be    131072 words long.
 Regular integral format.
 Two-electron integral symmetry is turned on.
 Nuclear repulsion after empirical dispersion term =      781.3416148421 Hartrees.
 One-electron integrals computed using PRISM.
 NBasis=   385 RedAO= T EigKep=  1.12D-06  NBF=   285   100
 NBsUse=   379 1.00D-06 EigRej=  8.37D-07 NBFU=   279   100
 ExpMin= 3.60D-02 ExpMax= 4.56D+03 ExpMxC= 6.82D+02 IAcc=3 IRadAn=         5 AccDes= 0.00D+00
 Harris functional with IExCor= 1009 and IRadAn=       5 diagonalized for initial guess.
 HarFok:  IExCor= 1009 AccDes= 0.00D+00 IRadAn=         5 IDoV= 1 UseB2=F ITyADJ=14
 ICtDFT=  3500011 ScaDFX=  1.000000  1.000000  1.000000  1.000000
 FoFCou: FMM=F IPFlag=           0 FMFlag=      100000 FMFlg1=           0
         NFxFlg=           0 DoJE=T BraDBF=F KetDBF=T FulRan=T
         wScrn=  0.000000 ICntrl=       500 IOpCl=  0 I1Cent=   200000004 NGrid=           0
         NMat0=    1 NMatS0=      1 NMatT0=    0 NMatD0=    1 NMtDS0=    0 NMtDT0=    0
 Petite list used in FoFCou.
 Initial guess orbital symmetries:
       Occupied  (A') (A') (A') (A') (A') (A') (A') (A') (A') (A')
                 (A') (A') (A') (A') (A') (A') (A') (A') (A') (A')
                 (A') (A') (A') (A') (A') (A') (A') (A') (A') (A')
                 (A') (A') (A") (A') (A') (A') (A') (A') (A') (A")
                 (A") (A') (A') (A") (A") (A") (A")
       Virtual   (A") (A") (A") (A") (A") (A') (A') (A') (A') (A")
                 (A") (A') (A') (A') (A") (A') (A') (A') (A') (A")
                 (A') (A") (A') (A') (A') (A") (A') (A") (A') (A')
                 (A') (A') (A') (A") (A') (A') (A") (A') (A') (A")
                 (A') (A') (A') (A") (A') (A') (A') (A') (A') (A")
                 (A') (A') (A") (A") (A') (A') (A') (A") (A") (A')
                 (A') (A') (A') (A') (A') (A') (A") (A') (A') (A")
                 (A') (A') (A') (A') (A') (A') (A') (A') (A') (A')
                 (A') (A') (A') (A') (A') (A') (A') (A') (A') (A')
                 (A') (A') (A') (A') (A') (A') (A') (A") (A') (A")
                 (A') (A') (A") (A") (A') (A") (A") (A') (A') (A")
                 (A") (A') (A') (A') (A") (A') (A') (A") (A") (A')
                 (A") (A") (A') (A') (A') (A") (A') (A') (A') (A")
                 (A') (A') (A') (A') (A') (A') (A") (A') (A') (A')
                 (A') (A') (A') (A') (A') (A') (A') (A') (A') (A")
                 (A") (A') (A") (A") (A') (A') (A') (A") (A") (A')
                 (A") (A') (A") (A") (A") (A') (A') (A') (A') (A')
                 (A') (A") (A") (A') (A') (A') (A') (A') (A') (A")
                 (A') (A') (A') (A') (A') (A") (A") (A') (A") (A")
                 (A') (A") (A') (A") (A') (A') (A') (A") (A') (A')
                 (A") (A") (A") (A') (A') (A") (A') (A") (A') (A')
                 (A") (A") (A') (A") (A') (A") (A') (A') (A') (A")
                 (A') (A') (A') (A') (A") (A') (A') (A') (A") (A")
                 (A') (A') (A') (A") (A') (A') (A") (A') (A") (A')
                 (A") (A') (A') (A') (A') (A") (A') (A') (A') (A")
                 (A') (A') (A") (A') (A") (A') (A') (A") (A') (A')
                 (A') (A') (A") (A") (A') (A') (A') (A") (A") (A')
                 (A') (A') (A') (A') (A") (A') (A") (A') (A") (A')
                 (A") (A') (A") (A") (A") (A') (A') (A') (A') (A')
                 (A') (A') (A') (A') (A') (A') (A') (A') (A') (A')
                 (A') (A') (A') (A') (A") (A') (A') (A') (A') (A')
                 (A') (A') (A') (A') (A') (A') (A') (A') (A') (A')
                 (A') (A') (A') (A') (A') (A') (A') (A') (A') (A')
                 (A') (A')
 The electronic state of the initial guess is 1-A'.
 Requested convergence on RMS density matrix=1.00D-08 within 128 cycles.
 Requested convergence on MAX density matrix=1.00D-06.
 Requested convergence on             energy=1.00D-06.
 No special actions if energy rises.
 SCF Done:  E(RM062X) =  -539.760072744     A.U. after   15 cycles
            NFock= 15  Conv=0.47D-08     -V/T= 2.0042
 DoSCS=F DFT=T ScalE2(SS,OS)=  1.000000  1.000000
 ExpMin= 3.60D-02 ExpMax= 4.56D+03 ExpMxC= 6.82D+02 IAcc=3 IRadAn=         5 AccDes= 0.00D+00
 HarFok:  IExCor=  205 AccDes= 0.00D+00 IRadAn=         5 IDoV=-2 UseB2=F ITyADJ=14
 ICtDFT= 12500011 ScaDFX=  1.000000  1.000000  1.000000  1.000000
 Range of M.O.s used for correlation:    15   379
 NBasis=   385 NAE=    47 NBE=    47 NFC=    14 NFV=     0
 NROrb=    365 NOA=    33 NOB=    33 NVA=   332 NVB=   332

 **** Warning!!: The largest alpha MO coefficient is  0.15317519D+03

 Orbital symmetries:
       Occupied  (A') (A') (A') (A') (A') (A') (A') (A') (A') (A')
                 (A') (A') (A') (A') (A') (A') (A') (A') (A') (A')
                 (A') (A') (A') (A') (A') (A') (A') (A') (A') (A')
                 (A') (A') (A") (A') (A') (A') (A') (A") (A") (A')
                 (A') (A') (A') (A") (A") (A") (A")
       Virtual   (A") (A") (A") (A") (A') (A') (A') (A') (A") (A')
                 (A') (A") (A') (A') (A") (A') (A") (A') (A') (A')
                 (A") (A") (A') (A') (A') (A") (A') (A") (A') (A')
                 (A") (A') (A") (A') (A') (A') (A') (A') (A") (A')
                 (A") (A') (A') (A") (A") (A') (A") (A') (A") (A')
                 (A') (A') (A') (A') (A') (A") (A') (A') (A') (A')
                 (A') (A") (A') (A') (A') (A') (A") (A') (A') (A')
                 (A') (A') (A') (A') (A') (A') (A') (A') (A') (A')
                 (A') (A') (A') (A') (A') (A') (A') (A') (A') (A')
                 (A') (A') (A') (A') (A") (A') (A") (A") (A') (A")
                 (A') (A') (A') (A') (A") (A") (A') (A") (A") (A')
                 (A') (A') (A") (A') (A') (A") (A') (A") (A') (A")
                 (A") (A') (A") (A') (A') (A') (A") (A') (A') (A')
                 (A') (A') (A') (A') (A') (A') (A') (A') (A') (A')
                 (A') (A') (A') (A") (A') (A') (A') (A') (A') (A')
                 (A') (A') (A") (A') (A") (A') (A") (A") (A') (A")
                 (A") (A') (A') (A") (A") (A") (A') (A") (A') (A')
                 (A') (A') (A') (A") (A") (A') (A') (A') (A') (A")
                 (A') (A') (A') (A") (A') (A") (A') (A') (A") (A")
                 (A") (A') (A') (A") (A') (A") (A') (A') (A') (A')
                 (A") (A") (A") (A') (A') (A") (A') (A") (A') (A')
                 (A') (A") (A') (A") (A") (A') (A") (A') (A') (A")
                 (A') (A') (A') (A') (A") (A') (A') (A') (A") (A")
                 (A') (A') (A') (A") (A') (A') (A') (A") (A") (A')
                 (A") (A') (A') (A") (A') (A') (A') (A') (A') (A')
                 (A") (A') (A') (A') (A') (A") (A") (A") (A') (A')
                 (A') (A') (A') (A') (A') (A') (A") (A') (A') (A')
                 (A') (A") (A') (A") (A") (A") (A') (A") (A') (A")
                 (A') (A") (A") (A') (A") (A") (A') (A') (A') (A')
                 (A') (A') (A') (A') (A') (A') (A') (A') (A') (A')
                 (A') (A') (A') (A") (A') (A') (A') (A') (A') (A')
                 (A') (A') (A') (A') (A') (A') (A') (A') (A') (A')
                 (A') (A') (A') (A') (A') (A') (A') (A') (A') (A')
                 (A') (A')
     4 initial guesses have been made.
 Convergence on wavefunction:    0.001000000000000
 Iteration     1 Dimension     4 NMult     0 NNew      4
 CISAX will form     4 AO SS matrices at one time.
 Iteration     2 Dimension     6 NMult     4 NNew      2
 Iteration     3 Dimension     8 NMult     6 NNew      2
 Iteration     4 Dimension    10 NMult     8 NNew      2
 Iteration     5 Dimension    12 NMult    10 NNew      2
 Iteration     6 Dimension    14 NMult    12 NNew      2
 ***********************************************************************
 Excited states from <AA,BB:AA,BB> singles matrix:
 ***********************************************************************
 
 Ground to excited state transition densities written to RWF  633
 Ground to excited state transition electric dipole moments (Au):
       state          X           Y           Z        Dip. S.      Osc.
         1         0.0034     -0.6428     -0.0000      0.4132      0.0285
 Ground to excited state transition velocity dipole moments (Au):
       state          X           Y           Z        Dip. S.      Osc.
         1         0.0004      0.0743     -0.0000      0.0055      0.0355
 Ground to excited state transition magnetic dipole moments (Au):
       state          X           Y           Z
         1        -0.0000      0.0000      0.0436
 Ground to excited state transition velocity quadrupole moments (Au):
       state          XX          YY          ZZ          XY          XZ          YZ
         1         0.2950      0.0344     -0.0098      0.0174      0.0000     -0.0000
 <0|del|b> * <b|rxdel|0> + <0|del|b> * <b|delr+rdel|0>
 Rotatory Strengths (R) in cgs (10**-40 erg-esu-cm/Gauss)
       state          XX          YY          ZZ    R(velocity)    E-M Angle
         1        -0.0000     -0.0000      0.0000     -0.0000       90.00
 1/2[<0|r|b>*<b|rxdel|0> + (<0|rxdel|b>*<b|r|0>)*]
 Rotatory Strengths (R) in cgs (10**-40 erg-esu-cm/Gauss)
       state          XX          YY          ZZ     R(length)
         1         0.0000      0.0000      0.0000      0.0000
  1/2[<0|del|b>*<b|r|0> + (<0|r|b>*<b|del|0>)*] (Au)
       state          X           Y           Z        Dip. S.   Osc.(frdel)
         1         0.0000     -0.0478      0.0000      0.0477      0.0318

 Excitation energies and oscillator strengths:
 
 Excited State   1:      Singlet-A'     2.8188 eV  439.85 nm  f=0.0285  <S**2>=0.000
      47 -> 48         0.70422
 This state for optimization and/or second-order correction.
 Total Energy, E(TD-HF/TD-DFT) =  -539.656483930    
 Copying the excited state density for this state as the 1-particle RhoCI density.
 SavETr:  write IOETrn=   770 NScale= 10 NData=  16 NLR=1 NState=    1 LETran=      28.

 **********************************************************************

            Population analysis using the SCF Density.

 **********************************************************************

 Orbital symmetries:
       Occupied  (A') (A') (A') (A') (A') (A') (A') (A') (A') (A')
                 (A') (A') (A') (A') (A') (A') (A') (A') (A') (A')
                 (A') (A') (A') (A') (A') (A') (A') (A') (A') (A')
                 (A') (A') (A") (A') (A') (A') (A') (A") (A") (A')
                 (A') (A') (A') (A") (A") (A") (A")
       Virtual   (A") (A") (A") (A") (A') (A') (A') (A') (A") (A')
                 (A') (A") (A') (A') (A") (A') (A") (A') (A') (A')
                 (A") (A") (A') (A') (A') (A") (A') (A") (A') (A')
                 (A") (A') (A") (A') (A') (A') (A') (A') (A") (A')
                 (A") (A') (A') (A") (A") (A') (A") (A') (A") (A')
                 (A') (A') (A') (A') (A') (A") (A') (A') (A') (A')
                 (A') (A") (A') (A') (A') (A') (A") (A') (A') (A')
                 (A') (A') (A') (A') (A') (A') (A') (A') (A') (A')
                 (A') (A') (A') (A') (A') (A') (A') (A') (A') (A')
                 (A') (A') (A') (A') (A") (A') (A") (A") (A') (A")
                 (A') (A') (A') (A') (A") (A") (A') (A") (A") (A')
                 (A') (A') (A") (A') (A') (A") (A') (A") (A') (A")
                 (A") (A') (A") (A') (A') (A') (A") (A') (A') (A')
                 (A') (A') (A') (A') (A') (A') (A') (A') (A') (A')
                 (A') (A') (A') (A") (A') (A') (A') (A') (A') (A')
                 (A') (A') (A") (A') (A") (A') (A") (A") (A') (A")
                 (A") (A') (A') (A") (A") (A") (A') (A") (A') (A')
                 (A') (A') (A') (A") (A") (A') (A') (A') (A') (A")
                 (A') (A') (A') (A") (A') (A") (A') (A') (A") (A")
                 (A") (A') (A') (A") (A') (A") (A') (A') (A') (A')
                 (A") (A") (A") (A') (A') (A") (A') (A") (A') (A')
                 (A') (A") (A') (A") (A") (A') (A") (A') (A') (A")
                 (A') (A') (A') (A') (A") (A') (A') (A') (A") (A")
                 (A') (A') (A') (A") (A') (A') (A') (A") (A") (A')
                 (A") (A') (A') (A") (A') (A') (A') (A') (A') (A')
                 (A") (A') (A') (A') (A') (A") (A") (A") (A') (A')
                 (A') (A') (A') (A') (A') (A') (A") (A') (A') (A')
                 (A') (A") (A') (A") (A") (A") (A') (A") (A') (A")
                 (A') (A") (A") (A') (A") (A") (A') (A') (A') (A')
                 (A') (A') (A') (A') (A') (A') (A') (A') (A') (A')
                 (A') (A') (A') (A") (A') (A') (A') (A') (A') (A')
                 (A') (A') (A') (A') (A') (A') (A') (A') (A') (A')
                 (A') (A') (A') (A') (A') (A') (A') (A') (A') (A')
                 (A') (A')
 The electronic state is 1-A'.
 Alpha  occ. eigenvalues --  -10.77659 -10.73293 -10.73148 -10.72487 -10.72370
 Alpha  occ. eigenvalues --  -10.71436 -10.71298 -10.71137 -10.70970 -10.70879
 Alpha  occ. eigenvalues --  -10.70004 -10.69938 -10.69666 -10.69584  -1.16463
 Alpha  occ. eigenvalues --   -1.12479  -1.06945  -1.05762  -1.01314  -1.00211
 Alpha  occ. eigenvalues --   -0.95775  -0.91063  -0.86422  -0.85908  -0.83823
 Alpha  occ. eigenvalues --   -0.78401  -0.76047  -0.74419  -0.69556  -0.69251
 Alpha  occ. eigenvalues --   -0.68506  -0.68199  -0.68095  -0.64756  -0.64291
 Alpha  occ. eigenvalues --   -0.63084  -0.61864  -0.59999  -0.59670  -0.59088
 Alpha  occ. eigenvalues --   -0.56908  -0.55213  -0.54845  -0.52436  -0.46650
 Alpha  occ. eigenvalues --   -0.46060  -0.44474
 Alpha virt. eigenvalues --   -0.26081  -0.14671  -0.14095  -0.12772  -0.11180
 Alpha virt. eigenvalues --   -0.10089  -0.09230  -0.07983  -0.07965  -0.07476
 Alpha virt. eigenvalues --   -0.07206  -0.07147  -0.05642  -0.05583  -0.05334
 Alpha virt. eigenvalues --   -0.03827  -0.03647  -0.03280  -0.03132  -0.02164
 Alpha virt. eigenvalues --   -0.01369  -0.00931   0.00189   0.00592   0.00673
 Alpha virt. eigenvalues --    0.01056   0.01512   0.01938   0.02220   0.02280
 Alpha virt. eigenvalues --    0.02450   0.02671   0.02750   0.03291   0.03372
 Alpha virt. eigenvalues --    0.04239   0.04508   0.04694   0.05029   0.05365
 Alpha virt. eigenvalues --    0.06032   0.06299   0.06597   0.07050   0.07252
 Alpha virt. eigenvalues --    0.07894   0.08166   0.08367   0.08546   0.08928
 Alpha virt. eigenvalues --    0.09547   0.09562   0.10044   0.10879   0.11046
 Alpha virt. eigenvalues --    0.11113   0.12181   0.12245   0.12912   0.12990
 Alpha virt. eigenvalues --    0.13412   0.13522   0.14022   0.14377   0.16231
 Alpha virt. eigenvalues --    0.16321   0.16330   0.17347   0.17625   0.17796
 Alpha virt. eigenvalues --    0.18128   0.19062   0.19237   0.19644   0.19746
 Alpha virt. eigenvalues --    0.21575   0.21598   0.22728   0.23119   0.23569
 Alpha virt. eigenvalues --    0.23775   0.24558   0.25291   0.26921   0.27610
 Alpha virt. eigenvalues --    0.28858   0.29302   0.29876   0.31368   0.35841
 Alpha virt. eigenvalues --    0.36445   0.38181   0.39280   0.41160   0.41402
 Alpha virt. eigenvalues --    0.41985   0.42184   0.42983   0.43695   0.44297
 Alpha virt. eigenvalues --    0.44947   0.45031   0.46092   0.46179   0.47925
 Alpha virt. eigenvalues --    0.48530   0.48880   0.49018   0.50431   0.51205
 Alpha virt. eigenvalues --    0.51595   0.51723   0.52114   0.52922   0.53975
 Alpha virt. eigenvalues --    0.54088   0.54671   0.55682   0.55765   0.57415
 Alpha virt. eigenvalues --    0.58242   0.58816   0.61449   0.62178   0.62350
 Alpha virt. eigenvalues --    0.63220   0.63493   0.65000   0.65158   0.67309
 Alpha virt. eigenvalues --    0.70401   0.70582   0.71036   0.72421   0.72879
 Alpha virt. eigenvalues --    0.75768   0.76020   0.76302   0.76901   0.77095
 Alpha virt. eigenvalues --    0.77848   0.77898   0.78255   0.79873   0.80399
 Alpha virt. eigenvalues --    0.81260   0.81643   0.82137   0.83018   0.85202
 Alpha virt. eigenvalues --    0.87174   0.88202   0.88613   0.89119   0.90423
 Alpha virt. eigenvalues --    0.91114   0.91253   0.93194   0.94638   0.96463
 Alpha virt. eigenvalues --    0.96644   1.00379   1.01303   1.01684   1.02715
 Alpha virt. eigenvalues --    1.03201   1.03844   1.04740   1.05412   1.08785
 Alpha virt. eigenvalues --    1.19567   1.23258   1.24072   1.25271   1.28082
 Alpha virt. eigenvalues --    1.29671   1.31788   1.34277   1.35779   1.36007
 Alpha virt. eigenvalues --    1.39372   1.40165   1.40962   1.42987   1.43481
 Alpha virt. eigenvalues --    1.43536   1.45067   1.45495   1.46376   1.46681
 Alpha virt. eigenvalues --    1.47640   1.48033   1.51762   1.53628   1.55815
 Alpha virt. eigenvalues --    1.55885   1.56354   1.56565   1.57797   1.61471
 Alpha virt. eigenvalues --    1.63212   1.63510   1.63757   1.66128   1.68338
 Alpha virt. eigenvalues --    1.68357   1.68674   1.69720   1.74416   1.75999
 Alpha virt. eigenvalues --    1.77198   1.78050   1.80080   1.80157   1.80724
 Alpha virt. eigenvalues --    1.83176   1.83205   1.83638   1.83814   1.84151
 Alpha virt. eigenvalues --    1.84289   1.85854   1.86084   1.88233   1.91396
 Alpha virt. eigenvalues --    1.92091   1.94142   1.95216   1.97699   1.98168
 Alpha virt. eigenvalues --    1.99762   2.02536   2.04441   2.07259   2.11822
 Alpha virt. eigenvalues --    2.12080   2.14114   2.15219   2.19142   2.21303
 Alpha virt. eigenvalues --    2.22795   2.28576   2.30263   2.34682   2.34967
 Alpha virt. eigenvalues --    2.36224   2.38685   2.39591   2.42384   2.44522
 Alpha virt. eigenvalues --    2.46179   2.46647   2.49382   2.52928   2.53816
 Alpha virt. eigenvalues --    2.54318   2.56732   2.57847   2.58300   2.59647
 Alpha virt. eigenvalues --    2.59826   2.61613   2.62154   2.63553   2.63820
 Alpha virt. eigenvalues --    2.64786   2.65130   2.65226   2.65346   2.68026
 Alpha virt. eigenvalues --    2.68590   2.70968   2.71416   2.73350   2.74826
 Alpha virt. eigenvalues --    2.76302   2.78882   2.79739   2.82946   2.83072
 Alpha virt. eigenvalues --    2.84900   2.86329   2.92128   2.96990   2.99522
 Alpha virt. eigenvalues --    3.00079   3.05265   3.11128   3.11506   3.13121
 Alpha virt. eigenvalues --    3.21081   3.23931   3.26782   3.28271   3.30776
 Alpha virt. eigenvalues --    3.32805   3.33631   3.43420   3.45919   3.46693
 Alpha virt. eigenvalues --    3.48621   3.50204   3.56553   3.65524   3.66956
 Alpha virt. eigenvalues --    3.67462   3.94184   3.94574   3.95153   3.96241
 Alpha virt. eigenvalues --    4.04021   4.06925   4.07548   4.12538   4.35634
 Alpha virt. eigenvalues --    4.61577   4.69868   4.71656  23.45333  23.60566
 Alpha virt. eigenvalues --   23.82253  23.85680  23.87931  23.89297  23.90514
 Alpha virt. eigenvalues --   23.92435  23.97771  23.99344  23.99947  24.00645
 Alpha virt. eigenvalues --   24.10576  24.10730
          Condensed to atoms (all electrons):
               1          2          3          4          5          6
     1  C    8.598754   0.323847  -0.537746   1.963767  -0.023233  -0.096639
     2  C    0.323847   7.107274   0.350714  -1.065045  -0.018977  -0.014622
     3  C   -0.537746   0.350714   6.584790   0.760742  -0.124061   0.016954
     4  C    1.963767  -1.065045   0.760742  10.867971  -0.337616  -0.120438
     5  C   -0.023233  -0.018977  -0.124061  -0.337616  10.977888   0.745974
     6  C   -0.096639  -0.014622   0.016954  -0.120438   0.745974   6.587715
     7  C   -0.019254   0.002539  -0.014926  -0.026091  -1.036369   0.374375
     8  C    0.406187  -0.023590  -0.093583  -0.012628   1.889706  -0.572726
     9  C   -1.207250  -0.784796   0.290236  -0.272039  -0.209110   0.290587
    10  C   -1.274636   0.255077  -0.367610  -2.538158  -2.593281  -0.343423
    11  C    0.276503  -0.943050   1.033305  -0.246349  -1.511560  -0.184342
    12  C   -2.031548   1.371517  -1.394038  -1.538971  -0.346557  -0.188758
    13  C    0.189469  -0.247380  -0.168138  -1.487166  -0.242897   1.000465
    14  C   -1.065282  -0.185943  -0.211764  -0.311060  -1.537170  -1.371462
    15  H    0.366207  -0.104794  -0.001384   0.027215   0.005744   0.001082
    16  H   -0.019196   0.377720  -0.015578   0.013178  -0.001527  -0.000324
    17  H   -0.024754  -0.015695   0.373719  -0.067057   0.000342   0.000395
    18  H    0.049859   0.002918  -0.084978   0.454911   0.006905  -0.005047
    19  H   -0.047209  -0.007551   0.051019  -0.068741  -0.071417   0.050947
    20  H    0.007383   0.002005  -0.005008   0.006930   0.456498  -0.084945
    21  H   -0.001333  -0.000396   0.000399   0.000287  -0.067507   0.375516
    22  H    0.000751   0.000368  -0.000333  -0.001572   0.014191  -0.016964
    23  H    0.005706  -0.002731   0.001120   0.005982   0.026515  -0.001978
    24  H    0.031573   0.014153  -0.001534  -0.012397  -0.012140  -0.001466
    25  H    0.031573   0.014153  -0.001534  -0.012397  -0.012140  -0.001466
               7          8          9         10         11         12
     1  C   -0.019254   0.406187  -1.207250  -1.274636   0.276503  -2.031548
     2  C    0.002539  -0.023590  -0.784796   0.255077  -0.943050   1.371517
     3  C   -0.014926  -0.093583   0.290236  -0.367610   1.033305  -1.394038
     4  C   -0.026091  -0.012628  -0.272039  -2.538158  -0.246349  -1.538971
     5  C   -1.036369   1.889706  -0.209110  -2.593281  -1.511560  -0.346557
     6  C    0.374375  -0.572726   0.290587  -0.343423  -0.184342  -0.188758
     7  C    7.108356   0.393702  -0.796609   0.228313  -0.235270  -0.215514
     8  C    0.393702   8.523478  -1.211882  -1.246757   0.181551  -1.082422
     9  C   -0.796609  -1.211882   9.624809   0.254774   1.670263  -1.940745
    10  C    0.228313  -1.246757   0.254774   9.207310  -0.518859   2.440431
    11  C   -0.235270   0.181551   1.670263  -0.518859  14.556157  -3.756529
    12  C   -0.215514  -1.082422  -1.940745   2.440431  -3.756529  16.038873
    13  C   -0.914395   0.278835   1.692300  -0.492899   1.091097  -4.839785
    14  C    1.276550  -1.924794  -1.993537   2.427407  -4.826285   3.026566
    15  H   -0.002653   0.005961   0.092370  -0.009836  -0.030325  -0.026095
    16  H    0.000357   0.000659   0.004096  -0.009480   0.028129  -0.034733
    17  H   -0.000402  -0.001309  -0.005962   0.020696  -0.028143   0.092307
    18  H    0.001999   0.007353  -0.025424   0.015072  -0.007896  -0.054172
    19  H   -0.007688  -0.046438   0.076061   0.422112   0.077987  -0.062255
    20  H    0.003076   0.048925  -0.024940   0.014125  -0.011801  -0.014089
    21  H   -0.017682  -0.022995  -0.005715   0.020574  -0.006332   0.005278
    22  H    0.378951  -0.019616   0.003812  -0.009803   0.003176  -0.009306
    23  H   -0.104479   0.365802   0.091229  -0.009331   0.000815   0.006811
    24  H    0.014575   0.033014   0.357036   0.005446   0.011741  -0.059909
    25  H    0.014575   0.033014   0.357036   0.005446   0.011741  -0.059909
              13         14         15         16         17         18
     1  C    0.189469  -1.065282   0.366207  -0.019196  -0.024754   0.049859
     2  C   -0.247380  -0.185943  -0.104794   0.377720  -0.015695   0.002918
     3  C   -0.168138  -0.211764  -0.001384  -0.015578   0.373719  -0.084978
     4  C   -1.487166  -0.311060   0.027215   0.013178  -0.067057   0.454911
     5  C   -0.242897  -1.537170   0.005744  -0.001527   0.000342   0.006905
     6  C    1.000465  -1.371462   0.001082  -0.000324   0.000395  -0.005047
     7  C   -0.914395   1.276550  -0.002653   0.000357  -0.000402   0.001999
     8  C    0.278835  -1.924794   0.005961   0.000659  -0.001309   0.007353
     9  C    1.692300  -1.993537   0.092370   0.004096  -0.005962  -0.025424
    10  C   -0.492899   2.427407  -0.009836  -0.009480   0.020696   0.015072
    11  C    1.091097  -4.826285  -0.030325   0.028129  -0.028143  -0.007896
    12  C   -4.839785   3.026566  -0.026095  -0.034733   0.092307  -0.054172
    13  C   14.579889  -3.853950   0.002264   0.003058  -0.006334  -0.011774
    14  C   -3.853950  16.084647   0.006473  -0.008932   0.005315  -0.012283
    15  H    0.002264   0.006473   0.439466  -0.008977   0.001435   0.000177
    16  H    0.003058  -0.008932  -0.008977   0.419771  -0.006561   0.001909
    17  H   -0.006334   0.005315   0.001435  -0.006561   0.422788  -0.010237
    18  H   -0.011774  -0.012283   0.000177   0.001909  -0.010237   0.454028
    19  H    0.077012  -0.068067   0.000287  -0.000526   0.001368  -0.006231
    20  H   -0.008754  -0.051641  -0.000110   0.000014  -0.000139   0.001279
    21  H   -0.027741   0.090540   0.000013  -0.000007   0.000010  -0.000146
    22  H    0.027949  -0.034264  -0.000127   0.000007  -0.000007   0.000015
    23  H   -0.029714  -0.022819   0.000593  -0.000126   0.000014  -0.000113
    24  H    0.014984  -0.059738  -0.000894   0.000630  -0.000143   0.000183
    25  H    0.014984  -0.059738  -0.000894   0.000630  -0.000143   0.000183
              19         20         21         22         23         24
     1  C   -0.047209   0.007383  -0.001333   0.000751   0.005706   0.031573
     2  C   -0.007551   0.002005  -0.000396   0.000368  -0.002731   0.014153
     3  C    0.051019  -0.005008   0.000399  -0.000333   0.001120  -0.001534
     4  C   -0.068741   0.006930   0.000287  -0.001572   0.005982  -0.012397
     5  C   -0.071417   0.456498  -0.067507   0.014191   0.026515  -0.012140
     6  C    0.050947  -0.084945   0.375516  -0.016964  -0.001978  -0.001466
     7  C   -0.007688   0.003076  -0.017682   0.378951  -0.104479   0.014575
     8  C   -0.046438   0.048925  -0.022995  -0.019616   0.365802   0.033014
     9  C    0.076061  -0.024940  -0.005715   0.003812   0.091229   0.357036
    10  C    0.422112   0.014125   0.020574  -0.009803  -0.009331   0.005446
    11  C    0.077987  -0.011801  -0.006332   0.003176   0.000815   0.011741
    12  C   -0.062255  -0.014089   0.005278  -0.009306   0.006811  -0.059909
    13  C    0.077012  -0.008754  -0.027741   0.027949  -0.029714   0.014984
    14  C   -0.068067  -0.051641   0.090540  -0.034264  -0.022819  -0.059738
    15  H    0.000287  -0.000110   0.000013  -0.000127   0.000593  -0.000894
    16  H   -0.000526   0.000014  -0.000007   0.000007  -0.000126   0.000630
    17  H    0.001368  -0.000139   0.000010  -0.000007   0.000014  -0.000143
    18  H   -0.006231   0.001279  -0.000146   0.000015  -0.000113   0.000183
    19  H    0.442670  -0.006080   0.001451  -0.000544   0.000315   0.000608
    20  H   -0.006080   0.452531  -0.010181   0.001922   0.000201   0.000172
    21  H    0.001451  -0.010181   0.422069  -0.006713   0.001494  -0.000140
    22  H   -0.000544   0.001922  -0.006713   0.418878  -0.008972   0.000628
    23  H    0.000315   0.000201   0.001494  -0.008972   0.438021  -0.000900
    24  H    0.000608   0.000172  -0.000140   0.000628  -0.000900   0.494372
    25  H    0.000608   0.000172  -0.000140   0.000628  -0.000900  -0.080259
              25
     1  C    0.031573
     2  C    0.014153
     3  C   -0.001534
     4  C   -0.012397
     5  C   -0.012140
     6  C   -0.001466
     7  C    0.014575
     8  C    0.033014
     9  C    0.357036
    10  C    0.005446
    11  C    0.011741
    12  C   -0.059909
    13  C    0.014984
    14  C   -0.059738
    15  H   -0.000894
    16  H    0.000630
    17  H   -0.000143
    18  H    0.000183
    19  H    0.000608
    20  H    0.000172
    21  H   -0.000140
    22  H    0.000628
    23  H   -0.000900
    24  H   -0.080259
    25  H    0.494372
 Mulliken charges:
               1
     1  C    0.096503
     2  C   -0.407715
     3  C   -0.440783
     4  C    0.016742
     5  C    0.021799
     6  C   -0.439412
     7  C   -0.406035
     8  C    0.090555
     9  C   -0.326600
    10  C    0.097290
    11  C   -0.635722
    12  C    0.673551
    13  C   -0.641379
    14  C    0.681229
    15  H    0.236802
    16  H    0.255811
    17  H    0.248499
    18  H    0.221511
    19  H    0.190305
    20  H    0.222456
    21  H    0.249397
    22  H    0.256941
    23  H    0.237446
    24  H    0.250406
    25  H    0.250406
 Sum of Mulliken charges =   1.00000
 Mulliken charges with hydrogens summed into heavy atoms:
               1
     1  C    0.333305
     2  C   -0.151905
     3  C   -0.192284
     4  C    0.238253
     5  C    0.244255
     6  C   -0.190016
     7  C   -0.149094
     8  C    0.328000
     9  C    0.174212
    10  C    0.287594
    11  C   -0.635722
    12  C    0.673551
    13  C   -0.641379
    14  C    0.681229
 Electronic spatial extent (au):  <R**2>=           2854.9559
 Charge=              1.0000 electrons
 Dipole moment (field-independent basis, Debye):
    X=             -0.1392    Y=              0.1856    Z=              0.0000  Tot=              0.2320
 Quadrupole moment (field-independent basis, Debye-Ang):
   XX=            -31.1338   YY=            -56.2564   ZZ=            -84.1413
   XY=             -0.1767   XZ=             -0.0000   YZ=             -0.0000
 Traceless Quadrupole moment (field-independent basis, Debye-Ang):
   XX=             26.0433   YY=              0.9208   ZZ=            -26.9641
   XY=             -0.1767   XZ=             -0.0000   YZ=             -0.0000
 Octapole moment (field-independent basis, Debye-Ang**2):
  XXX=             -1.5178  YYY=              5.1865  ZZZ=             -0.0000  XYY=             -0.2849
  XXY=             -5.1714  XXZ=             -0.0000  XZZ=             -0.2165  YZZ=             -3.0748
  YYZ=              0.0000  XYZ=             -0.0000
 Hexadecapole moment (field-independent basis, Debye-Ang**3):
 XXXX=          -2122.1520 YYYY=           -608.9534 ZZZZ=            -99.3218 XXXY=              3.1249
 XXXZ=             -0.0000 YYYX=              4.8874 YYYZ=             -0.0000 ZZZX=              0.0000
 ZZZY=              0.0000 XXYY=           -507.4990 XXZZ=           -590.5295 YYZZ=           -145.6823
 XXYZ=              0.0000 YYXZ=             -0.0000 ZZXY=              2.3843
 N-N= 7.813416148421D+02 E-N=-2.799030002214D+03  KE= 5.375136296583D+02
 Symmetry A'   KE= 5.228663681315D+02
 Symmetry A"   KE= 1.464726152684D+01
 Unable to Open any file for archive entry.
 1\1\GINC-GADI-CPU-CLX-0648\SP\RM062X TD-FC\6-311++G(d,p)\C14H11(1+)\TS
 1578\27-Jul-2022\0\\#n M062X/6-311++G(d,p) TD(NStates=1) EmpiricalDisp
 ersion=GD3 SP\\SP_-25\\1,1\C,0,2.4947,1.3694,0.\C,0,3.7049,0.682725,0.
 \C,0,3.6846,-0.70125,0.\C,0,2.459225,-1.396475,0.\C,0,-2.467025,-1.401
 025,0.\C,0,-3.6823,-0.70745,0.\C,0,-3.696675,0.6792,0.\C,0,-2.48785,1.
 3697,0.\C,0,0.002225,1.4588,0.\C,0,-0.0061,-1.42035,0.\C,0,1.261075,0.
 68375,0.\C,0,1.2353,-0.722025,0.\C,0,-1.2629,0.687575,0.\C,0,-1.2403,-
 0.722625,0.\H,0,2.4875,2.452675,0.\H,0,4.6401,1.2224,0.\H,0,4.60835,-1
 .262875,0.\H,0,2.4659,-2.479075,0.\H,0,-0.005625,-2.501525,0.\H,0,-2.4
 6955,-2.4835,0.\H,0,-4.6098,-1.26265,0.\H,0,-4.631775,1.219525,0.\H,0,
 -2.4854,2.4529,0.\H,0,0.008,2.15375,-0.858775\H,0,0.008,2.15375,0.8587
 75\\Version=ES64L-G16RevC.01\State=1-A'\HF=-539.7600727\RMSD=4.660e-09
 \PG=CS [SG(C14H9),X(H2)]\\@
 The archive entry for this job was punched.


 A SLIP OF THE FOOT YOU MAY SOON RECOVER, BUT A SLIP OF THE TONGUE
 YOU MAY NEVER GET OVER. -- BEN FRANKLIN
 Job cpu time:       0 days  0 hours 44 minutes 14.8 seconds.
 Elapsed time:       0 days  0 hours  1 minutes 23.7 seconds.
 File lengths (MBytes):  RWF=    460 Int=      0 D2E=      0 Chk=     15 Scr=      1
 Normal termination of Gaussian 16 at Wed Jul 27 10:59:06 2022.
