 Entering Gaussian System, Link 0=g16
 Initial command:
 /apps/gaussian/g16c01/g16/l1.exe "/jobfs/52804872.gadi-pbs/Gau-1770553.inp" -scrdir="/jobfs/52804872.gadi-pbs/"
 Entering Link 1 = /apps/gaussian/g16c01/g16/l1.exe PID=   1770554.
  
 Copyright (c) 1988-2019, Gaussian, Inc.  All Rights Reserved.
  
 This is part of the Gaussian(R) 16 program.  It is based on
 the Gaussian(R) 09 system (copyright 2009, Gaussian, Inc.),
 the Gaussian(R) 03 system (copyright 2003, Gaussian, Inc.),
 the Gaussian(R) 98 system (copyright 1998, Gaussian, Inc.),
 the Gaussian(R) 94 system (copyright 1995, Gaussian, Inc.),
 the Gaussian 92(TM) system (copyright 1992, Gaussian, Inc.),
 the Gaussian 90(TM) system (copyright 1990, Gaussian, Inc.),
 the Gaussian 88(TM) system (copyright 1988, Gaussian, Inc.),
 the Gaussian 86(TM) system (copyright 1986, Carnegie Mellon
 University), and the Gaussian 82(TM) system (copyright 1983,
 Carnegie Mellon University). Gaussian is a federally registered
 trademark of Gaussian, Inc.
  
 This software contains proprietary and confidential information,
 including trade secrets, belonging to Gaussian, Inc.
  
 This software is provided under written license and may be
 used, copied, transmitted, or stored only in accord with that
 written license.
  
 The following legend is applicable only to US Government
 contracts under FAR:
  
                    RESTRICTED RIGHTS LEGEND
  
 Use, reproduction and disclosure by the US Government is
 subject to restrictions as set forth in subparagraphs (a)
 and (c) of the Commercial Computer Software - Restricted
 Rights clause in FAR 52.227-19.
  
 Gaussian, Inc.
 340 Quinnipiac St., Bldg. 40, Wallingford CT 06492
  
  
 ---------------------------------------------------------------
 Warning -- This program may not be used in any manner that
 competes with the business of Gaussian, Inc. or will provide
 assistance to any competitor of Gaussian, Inc.  The licensee
 of this program is prohibited from giving any competitor of
 Gaussian, Inc. access to this program.  By using this program,
 the user acknowledges that Gaussian, Inc. is engaged in the
 business of creating and licensing software in the field of
 computational chemistry and represents and warrants to the
 licensee that it is not a competitor of Gaussian, Inc. and that
 it will not use this program in any manner prohibited above.
 ---------------------------------------------------------------
  

 Cite this work as:
 Gaussian 16, Revision C.01,
 M. J. Frisch, G. W. Trucks, H. B. Schlegel, G. E. Scuseria, 
 M. A. Robb, J. R. Cheeseman, G. Scalmani, V. Barone, 
 G. A. Petersson, H. Nakatsuji, X. Li, M. Caricato, A. V. Marenich, 
 J. Bloino, B. G. Janesko, R. Gomperts, B. Mennucci, H. P. Hratchian, 
 J. V. Ortiz, A. F. Izmaylov, J. L. Sonnenberg, D. Williams-Young, 
 F. Ding, F. Lipparini, F. Egidi, J. Goings, B. Peng, A. Petrone, 
 T. Henderson, D. Ranasinghe, V. G. Zakrzewski, J. Gao, N. Rega, 
 G. Zheng, W. Liang, M. Hada, M. Ehara, K. Toyota, R. Fukuda, 
 J. Hasegawa, M. Ishida, T. Nakajima, Y. Honda, O. Kitao, H. Nakai, 
 T. Vreven, K. Throssell, J. A. Montgomery, Jr., J. E. Peralta, 
 F. Ogliaro, M. J. Bearpark, J. J. Heyd, E. N. Brothers, K. N. Kudin, 
 V. N. Staroverov, T. A. Keith, R. Kobayashi, J. Normand, 
 K. Raghavachari, A. P. Rendell, J. C. Burant, S. S. Iyengar, 
 J. Tomasi, M. Cossi, J. M. Millam, M. Klene, C. Adamo, R. Cammi, 
 J. W. Ochterski, R. L. Martin, K. Morokuma, O. Farkas, 
 J. B. Foresman, and D. J. Fox, Gaussian, Inc., Wallingford CT, 2019.
 
 ******************************************
 Gaussian 16:  ES64L-G16RevC.01  3-Jul-2019
                27-Jul-2022 
 ******************************************
 %NProcShared=32
 Will use up to   32 processors via shared memory.
 %mem = 128GB
 ---------------------------------------------------------------
 #n M062X/6-311++G(d,p) TD(NStates=1) EmpiricalDispersion=GD3 SP
 ---------------------------------------------------------------
 1/38=1,172=1/1;
 2/12=2,17=6,18=5,40=1/2;
 3/5=4,6=6,7=1111,11=9,25=1,30=1,74=-55,124=31/1,2,3,8;
 4//1;
 5/5=2,38=5/2;
 8/6=1,10=2,108=1/1;
 9/41=1,42=1,70=2/14;
 6/7=2,8=2,9=2,10=2/1;
 99/5=1,9=1/99;
 ------
 SP_125
 ------
 Symbolic Z-matrix:
 Charge =  1 Multiplicity = 1
 C                     2.524     1.3676    0. 
 C                     3.73875   0.69648   0. 
 C                     3.6944   -0.67745   0. 
 C                     2.42813  -1.37848   0. 
 C                    -2.49833  -1.41943   0. 
 C                    -3.6737   -0.73325   0. 
 C                    -3.66473   0.66475   0. 
 C                    -2.46235   1.3703    0. 
 C                     0.01968   1.4632    0. 
 C                    -0.0549   -1.42055   0. 
 C                     1.25393   0.6685    0. 
 C                     1.2149   -0.71933   0. 
 C                    -1.27035   0.70293   0. 
 C                    -1.2599   -0.72473   0. 
 H                     2.4981    2.45113   0. 
 H                     4.67455   1.23315   0. 
 H                     4.60285  -1.26503   0. 
 H                     2.451    -2.46152   0. 
 H                    -0.05063  -2.50163   0. 
 H                    -2.48385  -2.50135   0. 
 H                    -4.6159   -1.263     0. 
 H                    -4.59963   1.20728   0. 
 H                    -2.4792    2.45315   0. 
 H                     0.072     2.15475  -0.85988 
 H                     0.072     2.15475   0.85988 
 
                          Input orientation:                          
 ---------------------------------------------------------------------
 Center     Atomic      Atomic             Coordinates (Angstroms)
 Number     Number       Type             X           Y           Z
 ---------------------------------------------------------------------
      1          6           0        2.524000    1.367600    0.000000
      2          6           0        3.738750    0.696475    0.000000
      3          6           0        3.694400   -0.677450    0.000000
      4          6           0        2.428125   -1.378475    0.000000
      5          6           0       -2.498325   -1.419425    0.000000
      6          6           0       -3.673700   -0.733250    0.000000
      7          6           0       -3.664725    0.664750    0.000000
      8          6           0       -2.462350    1.370300    0.000000
      9          6           0        0.019675    1.463200    0.000000
     10          6           0       -0.054900   -1.420550    0.000000
     11          6           0        1.253925    0.668500    0.000000
     12          6           0        1.214900   -0.719325    0.000000
     13          6           0       -1.270350    0.702925    0.000000
     14          6           0       -1.259900   -0.724725    0.000000
     15          1           0        2.498100    2.451125    0.000000
     16          1           0        4.674550    1.233150    0.000000
     17          1           0        4.602850   -1.265025    0.000000
     18          1           0        2.451000   -2.461525    0.000000
     19          1           0       -0.050625   -2.501625    0.000000
     20          1           0       -2.483850   -2.501350    0.000000
     21          1           0       -4.615900   -1.263000    0.000000
     22          1           0       -4.599625    1.207275    0.000000
     23          1           0       -2.479200    2.453150    0.000000
     24          1           0        0.072000    2.154750   -0.859875
     25          1           0        0.072000    2.154750    0.859875
 ---------------------------------------------------------------------
                    Distance matrix (angstroms):
                    1          2          3          4          5
     1  C    0.000000
     2  C    1.387814   0.000000
     3  C    2.356282   1.374641   0.000000
     4  C    2.747748   2.454212   1.447373   0.000000
     5  C    5.743802   6.586208   6.237016   4.926620   0.000000
     6  C    6.544086   7.549075   7.368311   6.135844   1.361008
     7  C    6.228508   7.403543   7.480523   6.426320   2.388362
     8  C    4.986351   6.237602   6.488363   5.610037   2.789957
     9  C    2.506149   3.797287   4.252762   3.725017   3.827512
    10  C    3.797961   4.344373   3.822231   2.483381   2.443425
    11  C    1.449769   2.484982   2.787023   2.359842   4.294044
    12  C    2.463534   2.893840   2.479854   1.380722   3.778648
    13  C    3.852127   5.009104   5.153075   4.243930   2.451998
    14  C    4.323855   5.196760   4.954526   3.745520   1.419966
    15  H    1.083835   2.148955   3.349495   3.830239   6.320239
    16  H    2.154749   1.078769   2.147344   3.444853   7.647633
    17  H    3.354450   2.143397   1.081908   2.177682   7.102853
    18  H    3.829821   3.410464   2.174619   1.083292   5.057844
    19  H    4.647537   4.958549   4.165672   2.721336   2.676265
    20  H    6.328296   6.996202   6.441846   5.038685   1.082022
    21  H    7.609089   8.581359   8.330904   7.044971   2.123345
    22  H    7.125429   8.354006   8.505471   7.488349   3.363780
    23  H    5.119612   6.461332   6.921993   6.226009   3.872622
    24  H    2.715013   4.038689   4.677876   4.332942   4.485608
    25  H    2.715013   4.038689   4.677876   4.332942   4.485608
                    6          7          8          9         10
     6  C    0.000000
     7  C    1.398029   0.000000
     8  C    2.427404   1.394097   0.000000
     9  C    4.297140   3.769924   2.483763   0.000000
    10  C    3.683489   4.168850   3.685737   2.884714   0.000000
    11  C    5.123123   4.918651   3.781960   1.467965   2.465188
    12  C    4.888620   5.072120   4.229504   2.488369   1.450555
    13  C    2.799766   2.394679   1.366109   1.497392   2.446725
    14  C    2.413815   2.777377   2.415578   2.534626   1.391473
    15  H    6.944880   6.416506   5.076834   2.668068   4.637637
    16  H    8.576713   8.358623   7.138218   4.660556   5.423082
    17  H    8.293616   8.489807   7.540689   5.333733   4.660346
    18  H    6.363873   6.868456   6.230882   4.616796   2.713515
    19  H    4.031603   4.804961   4.561603   3.965448   1.081083
    20  H    2.131178   3.379150   3.871710   4.688848   2.658557
    21  H    1.080914   2.149640   3.401771   5.377799   4.563720
    22  H    2.150110   1.080912   2.143484   4.626384   5.249761
    23  H    3.402936   2.145657   1.082981   2.687820   4.569768
    24  H    4.807307   4.113709   2.788849   1.104701   3.679437
    25  H    4.807307   4.113709   2.788849   1.104701   3.679437
                   11         12         13         14         15
    11  C    0.000000
    12  C    1.388374   0.000000
    13  C    2.524510   2.863435   0.000000
    14  C    2.874090   2.474806   1.427688   0.000000
    15  H    2.173873   3.420286   4.154205   4.920222   0.000000
    16  H    3.466916   3.972573   5.968499   6.249078   2.494073
    17  H    3.867017   3.431617   6.194135   5.887594   4.270801
    18  H    3.351126   2.136166   4.884894   4.097225   4.912876
    19  H    3.428052   2.185897   3.428829   2.149353   5.570075
    20  H    4.900909   4.105650   3.426363   2.157417   7.024730
    21  H    6.179445   5.856092   3.880408   3.398893   8.025193
    22  H    5.878293   6.125397   3.367260   3.858288   7.205891
    23  H    4.137777   4.869391   2.127112   3.403760   4.977300
    24  H    2.084531   3.210282   2.156174   3.287053   2.590981
    25  H    2.084531   3.210282   2.156174   3.287053   2.590981
                   16         17         18         19         20
    16  H    0.000000
    17  H    2.499204   0.000000
    18  H    4.312169   2.462127   0.000000
    19  H    6.022941   4.814978   2.501946   0.000000
    20  H    8.073982   7.193735   4.935011   2.433225   0.000000
    21  H    9.619939   9.218750   7.167813   4.730320   2.465593
    22  H    9.274211   9.528789   7.948044   5.869356   4.269708
    23  H    7.257034   7.998766   6.961387   5.517950   4.954502
    24  H    4.772022   5.741328   5.263936   4.736692   5.380615
    25  H    4.772022   5.741328   5.263936   4.736692   5.380615
                   21         22         23         24         25
    21  H    0.000000
    22  H    2.470329   0.000000
    23  H    4.286637   2.459351   0.000000
    24  H    5.864879   4.843674   2.708699   0.000000
    25  H    5.864879   4.843674   2.708699   1.719750   0.000000
 Stoichiometry    C14H11(1+)
 Framework group  CS[SG(C14H9),X(H2)]
 Deg. of freedom    46
 Full point group                 CS      NOp   2
 Largest Abelian subgroup         CS      NOp   2
 Largest concise Abelian subgroup CS      NOp   2
                         Standard orientation:                         
 ---------------------------------------------------------------------
 Center     Atomic      Atomic             Coordinates (Angstroms)
 Number     Number       Type             X           Y           Z
 ---------------------------------------------------------------------
      1          6           0        2.463037    1.465097    0.000000
      2          6           0        2.512170    2.852041    0.000000
      3          6           0        1.311044    3.520573    0.000000
      4          6           0        0.058619    2.795095    0.000000
      5          6           0       -2.510024   -1.408910    0.000000
      6          6           0       -2.526000   -2.769825    0.000000
      7          6           0       -1.322420   -3.481076    0.000000
      8          6           0       -0.098975   -2.812728    0.000000
      9          6           0        1.257128   -0.731848    0.000000
     10          6           0       -1.254410    0.687219    0.000000
     11          6           0        1.210308    0.735371    0.000000
     12          6           0       -0.000000    1.415618    0.000000
     13          6           0       -0.058326   -1.447224    0.000000
     14          6           0       -1.277345   -0.704065    0.000000
     15          1           0        3.378979    0.885661    0.000000
     16          1           0        3.453691    3.378614    0.000000
     17          1           0        1.274311    4.601857    0.000000
     18          1           0       -0.858472    3.371693    0.000000
     19          1           0       -2.179372    1.246850    0.000000
     20          1           0       -3.430470   -0.840095    0.000000
     21          1           0       -3.464874   -3.305448    0.000000
     22          1           0       -1.337925   -4.561877    0.000000
     23          1           0        0.821043   -3.384055    0.000000
     24          1           0        1.877130   -1.042615    0.859875
     25          1           0        1.877130   -1.042615   -0.859875
 ---------------------------------------------------------------------
 Rotational constants (GHZ):           2.1363897           0.4444622           0.3687191
 Standard basis: 6-311++G(d,p) (5D, 7F)
 There are   299 symmetry adapted cartesian basis functions of A'  symmetry.
 There are   100 symmetry adapted cartesian basis functions of A"  symmetry.
 There are   285 symmetry adapted basis functions of A'  symmetry.
 There are   100 symmetry adapted basis functions of A"  symmetry.
   385 basis functions,   603 primitive gaussians,   399 cartesian basis functions
    47 alpha electrons       47 beta electrons
       nuclear repulsion energy       781.2115934622 Hartrees.
 NAtoms=   25 NActive=   25 NUniq=   24 SFac= 1.09D+00 NAtFMM=   60 NAOKFM=F Big=F
 Integral buffers will be    131072 words long.
 Regular integral format.
 Two-electron integral symmetry is turned on.
 Nuclear repulsion after empirical dispersion term =      781.2106145047 Hartrees.
 One-electron integrals computed using PRISM.
 NBasis=   385 RedAO= T EigKep=  1.12D-06  NBF=   285   100
 NBsUse=   379 1.00D-06 EigRej=  8.36D-07 NBFU=   279   100
 ExpMin= 3.60D-02 ExpMax= 4.56D+03 ExpMxC= 6.82D+02 IAcc=3 IRadAn=         5 AccDes= 0.00D+00
 Harris functional with IExCor= 1009 and IRadAn=       5 diagonalized for initial guess.
 HarFok:  IExCor= 1009 AccDes= 0.00D+00 IRadAn=         5 IDoV= 1 UseB2=F ITyADJ=14
 ICtDFT=  3500011 ScaDFX=  1.000000  1.000000  1.000000  1.000000
 FoFCou: FMM=F IPFlag=           0 FMFlag=      100000 FMFlg1=           0
         NFxFlg=           0 DoJE=T BraDBF=F KetDBF=T FulRan=T
         wScrn=  0.000000 ICntrl=       500 IOpCl=  0 I1Cent=   200000004 NGrid=           0
         NMat0=    1 NMatS0=      1 NMatT0=    0 NMatD0=    1 NMtDS0=    0 NMtDT0=    0
 Petite list used in FoFCou.
 Initial guess orbital symmetries:
       Occupied  (A') (A') (A') (A') (A') (A') (A') (A') (A') (A')
                 (A') (A') (A') (A') (A') (A') (A') (A') (A') (A')
                 (A') (A') (A') (A') (A') (A') (A') (A') (A') (A')
                 (A') (A') (A") (A') (A') (A') (A') (A') (A") (A')
                 (A") (A') (A') (A") (A") (A") (A")
       Virtual   (A") (A") (A") (A") (A") (A') (A') (A') (A') (A")
                 (A") (A') (A') (A') (A") (A') (A') (A') (A') (A")
                 (A') (A") (A') (A') (A') (A") (A') (A") (A') (A')
                 (A') (A') (A') (A') (A") (A') (A") (A') (A') (A')
                 (A") (A') (A") (A') (A') (A') (A') (A') (A") (A')
                 (A') (A') (A") (A") (A') (A') (A') (A") (A") (A')
                 (A') (A') (A') (A') (A') (A') (A") (A') (A') (A")
                 (A') (A') (A') (A') (A') (A') (A') (A') (A') (A')
                 (A') (A') (A') (A') (A') (A') (A') (A') (A') (A')
                 (A') (A') (A') (A') (A') (A') (A') (A") (A') (A")
                 (A') (A') (A") (A") (A') (A") (A') (A") (A") (A')
                 (A") (A') (A') (A') (A") (A') (A') (A") (A") (A')
                 (A") (A") (A') (A') (A') (A") (A') (A') (A') (A")
                 (A') (A') (A') (A') (A') (A') (A") (A') (A') (A')
                 (A') (A') (A') (A') (A') (A') (A') (A') (A') (A")
                 (A") (A') (A") (A") (A') (A') (A') (A") (A') (A")
                 (A") (A') (A") (A") (A") (A') (A') (A') (A') (A')
                 (A') (A") (A') (A') (A") (A') (A') (A') (A') (A")
                 (A') (A') (A') (A') (A") (A") (A') (A') (A") (A")
                 (A") (A') (A') (A") (A') (A') (A') (A") (A') (A')
                 (A") (A") (A") (A') (A') (A") (A') (A") (A') (A')
                 (A") (A") (A') (A") (A') (A") (A') (A') (A') (A')
                 (A") (A') (A') (A') (A") (A') (A') (A') (A") (A")
                 (A') (A') (A') (A") (A') (A') (A") (A') (A") (A')
                 (A") (A') (A') (A') (A') (A") (A') (A') (A') (A")
                 (A') (A') (A') (A") (A") (A') (A') (A") (A') (A')
                 (A') (A") (A') (A") (A') (A') (A') (A") (A') (A")
                 (A') (A') (A') (A') (A") (A') (A") (A') (A") (A')
                 (A") (A') (A") (A") (A") (A') (A') (A') (A') (A')
                 (A') (A') (A') (A') (A') (A') (A') (A') (A') (A')
                 (A') (A') (A') (A') (A") (A') (A') (A') (A') (A')
                 (A') (A') (A') (A') (A') (A') (A') (A') (A') (A')
                 (A') (A') (A') (A') (A') (A') (A') (A') (A') (A')
                 (A') (A')
 The electronic state of the initial guess is 1-A'.
 Requested convergence on RMS density matrix=1.00D-08 within 128 cycles.
 Requested convergence on MAX density matrix=1.00D-06.
 Requested convergence on             energy=1.00D-06.
 No special actions if energy rises.
 SCF Done:  E(RM062X) =  -539.751428627     A.U. after   16 cycles
            NFock= 16  Conv=0.34D-08     -V/T= 2.0041
 DoSCS=F DFT=T ScalE2(SS,OS)=  1.000000  1.000000
 ExpMin= 3.60D-02 ExpMax= 4.56D+03 ExpMxC= 6.82D+02 IAcc=3 IRadAn=         5 AccDes= 0.00D+00
 HarFok:  IExCor=  205 AccDes= 0.00D+00 IRadAn=         5 IDoV=-2 UseB2=F ITyADJ=14
 ICtDFT= 12500011 ScaDFX=  1.000000  1.000000  1.000000  1.000000
 Range of M.O.s used for correlation:    15   379
 NBasis=   385 NAE=    47 NBE=    47 NFC=    14 NFV=     0
 NROrb=    365 NOA=    33 NOB=    33 NVA=   332 NVB=   332

 **** Warning!!: The largest alpha MO coefficient is  0.14056202D+03

 Orbital symmetries:
       Occupied  (A') (A') (A') (A') (A') (A') (A') (A') (A') (A')
                 (A') (A') (A') (A') (A') (A') (A') (A') (A') (A')
                 (A') (A') (A') (A') (A') (A') (A') (A') (A') (A')
                 (A') (A") (A') (A') (A') (A') (A') (A") (A') (A")
                 (A') (A') (A') (A") (A") (A") (A")
       Virtual   (A") (A") (A") (A") (A') (A') (A') (A') (A") (A')
                 (A') (A") (A') (A') (A") (A') (A") (A') (A') (A')
                 (A") (A") (A') (A') (A') (A") (A') (A") (A') (A')
                 (A") (A') (A") (A') (A') (A') (A') (A') (A") (A')
                 (A") (A') (A') (A") (A") (A') (A") (A') (A") (A')
                 (A') (A') (A') (A') (A') (A") (A') (A') (A') (A')
                 (A') (A") (A') (A') (A') (A") (A') (A') (A') (A')
                 (A') (A') (A') (A') (A') (A') (A') (A') (A') (A')
                 (A') (A') (A') (A') (A') (A') (A') (A') (A') (A')
                 (A') (A') (A') (A') (A") (A') (A") (A") (A') (A")
                 (A') (A') (A') (A') (A") (A") (A') (A") (A") (A')
                 (A') (A") (A') (A') (A") (A') (A') (A") (A') (A")
                 (A") (A') (A") (A') (A') (A') (A") (A') (A') (A')
                 (A') (A') (A') (A') (A') (A') (A') (A') (A') (A')
                 (A') (A') (A') (A") (A') (A') (A') (A') (A') (A')
                 (A') (A") (A') (A') (A") (A') (A") (A") (A') (A")
                 (A") (A') (A') (A") (A') (A") (A") (A") (A') (A')
                 (A') (A') (A") (A') (A') (A") (A') (A') (A') (A")
                 (A') (A') (A') (A") (A") (A') (A') (A") (A") (A')
                 (A") (A') (A') (A") (A') (A") (A') (A') (A') (A')
                 (A") (A") (A") (A') (A") (A') (A') (A") (A') (A')
                 (A') (A") (A') (A") (A") (A') (A") (A') (A') (A")
                 (A') (A') (A') (A') (A") (A') (A') (A') (A") (A")
                 (A') (A') (A') (A") (A') (A') (A') (A") (A") (A')
                 (A") (A') (A') (A") (A') (A') (A') (A') (A') (A')
                 (A") (A') (A') (A') (A') (A") (A") (A") (A') (A')
                 (A') (A') (A') (A') (A') (A') (A') (A") (A') (A')
                 (A') (A") (A') (A") (A") (A") (A') (A") (A') (A")
                 (A') (A") (A") (A') (A") (A") (A') (A') (A') (A')
                 (A') (A') (A') (A') (A') (A') (A') (A') (A') (A')
                 (A') (A') (A') (A") (A') (A') (A') (A') (A') (A')
                 (A') (A') (A') (A') (A') (A') (A') (A') (A') (A')
                 (A') (A') (A') (A') (A') (A') (A') (A') (A') (A')
                 (A') (A')
     4 initial guesses have been made.
 Convergence on wavefunction:    0.001000000000000
 Iteration     1 Dimension     4 NMult     0 NNew      4
 CISAX will form     4 AO SS matrices at one time.
 Iteration     2 Dimension     6 NMult     4 NNew      2
 Iteration     3 Dimension     8 NMult     6 NNew      2
 Iteration     4 Dimension    10 NMult     8 NNew      2
 Iteration     5 Dimension    12 NMult    10 NNew      2
 Iteration     6 Dimension    14 NMult    12 NNew      2
 ***********************************************************************
 Excited states from <AA,BB:AA,BB> singles matrix:
 ***********************************************************************
 
 Ground to excited state transition densities written to RWF  633
 Ground to excited state transition electric dipole moments (Au):
       state          X           Y           Z        Dip. S.      Osc.
         1         0.4878     -0.2150     -0.0000      0.2842      0.0183
 Ground to excited state transition velocity dipole moments (Au):
       state          X           Y           Z        Dip. S.      Osc.
         1        -0.0507      0.0277      0.0000      0.0033      0.0230
 Ground to excited state transition magnetic dipole moments (Au):
       state          X           Y           Z
         1        -0.0000     -0.0000      0.1709
 Ground to excited state transition velocity quadrupole moments (Au):
       state          XX          YY          ZZ          XY          XZ          YZ
         1         0.0005      0.2501     -0.0079      0.0500      0.0000     -0.0000
 <0|del|b> * <b|rxdel|0> + <0|del|b> * <b|delr+rdel|0>
 Rotatory Strengths (R) in cgs (10**-40 erg-esu-cm/Gauss)
       state          XX          YY          ZZ    R(velocity)    E-M Angle
         1        -0.0000      0.0000      0.0000      0.0000       90.00
 1/2[<0|r|b>*<b|rxdel|0> + (<0|rxdel|b>*<b|r|0>)*]
 Rotatory Strengths (R) in cgs (10**-40 erg-esu-cm/Gauss)
       state          XX          YY          ZZ     R(length)
         1         0.0000     -0.0000      0.0000      0.0000
  1/2[<0|del|b>*<b|r|0> + (<0|r|b>*<b|del|0>)*] (Au)
       state          X           Y           Z        Dip. S.   Osc.(frdel)
         1        -0.0247     -0.0059     -0.0000      0.0307      0.0204

 Excitation energies and oscillator strengths:
 
 Excited State   1:      Singlet-A'     2.6213 eV  472.99 nm  f=0.0183  <S**2>=0.000
      47 -> 48         0.70346
 This state for optimization and/or second-order correction.
 Total Energy, E(TD-HF/TD-DFT) =  -539.655097886    
 Copying the excited state density for this state as the 1-particle RhoCI density.
 SavETr:  write IOETrn=   770 NScale= 10 NData=  16 NLR=1 NState=    1 LETran=      28.

 **********************************************************************

            Population analysis using the SCF Density.

 **********************************************************************

 Orbital symmetries:
       Occupied  (A') (A') (A') (A') (A') (A') (A') (A') (A') (A')
                 (A') (A') (A') (A') (A') (A') (A') (A') (A') (A')
                 (A') (A') (A') (A') (A') (A') (A') (A') (A') (A')
                 (A') (A") (A') (A') (A') (A') (A') (A") (A') (A")
                 (A') (A') (A') (A") (A") (A") (A")
       Virtual   (A") (A") (A") (A") (A') (A') (A') (A') (A") (A')
                 (A') (A") (A') (A') (A") (A') (A") (A') (A') (A')
                 (A") (A") (A') (A') (A') (A") (A') (A") (A') (A')
                 (A") (A') (A") (A') (A') (A') (A') (A') (A") (A')
                 (A") (A') (A') (A") (A") (A') (A") (A') (A") (A')
                 (A') (A') (A') (A') (A') (A") (A') (A') (A') (A')
                 (A') (A") (A') (A') (A') (A") (A') (A') (A') (A')
                 (A') (A') (A') (A') (A') (A') (A') (A') (A') (A')
                 (A') (A') (A') (A') (A') (A') (A') (A') (A') (A')
                 (A') (A') (A') (A') (A") (A') (A") (A") (A') (A")
                 (A') (A') (A') (A') (A") (A") (A') (A") (A") (A')
                 (A') (A") (A') (A') (A") (A') (A') (A") (A') (A")
                 (A") (A') (A") (A') (A') (A') (A") (A') (A') (A')
                 (A') (A') (A') (A') (A') (A') (A') (A') (A') (A')
                 (A') (A') (A') (A") (A') (A') (A') (A') (A') (A')
                 (A') (A") (A') (A') (A") (A') (A") (A") (A') (A")
                 (A") (A') (A') (A") (A') (A") (A") (A") (A') (A')
                 (A') (A') (A") (A') (A') (A") (A') (A') (A') (A")
                 (A') (A') (A') (A") (A") (A') (A') (A") (A") (A')
                 (A") (A') (A') (A") (A') (A") (A') (A') (A') (A')
                 (A") (A") (A") (A') (A") (A') (A') (A") (A') (A')
                 (A') (A") (A') (A") (A") (A') (A") (A') (A') (A")
                 (A') (A') (A') (A') (A") (A') (A') (A') (A") (A")
                 (A') (A') (A') (A") (A') (A') (A') (A") (A") (A')
                 (A") (A') (A') (A") (A') (A') (A') (A') (A') (A')
                 (A") (A') (A') (A') (A') (A") (A") (A") (A') (A')
                 (A') (A') (A') (A') (A') (A') (A') (A") (A') (A')
                 (A') (A") (A') (A") (A") (A") (A') (A") (A') (A")
                 (A') (A") (A") (A') (A") (A") (A') (A') (A') (A')
                 (A') (A') (A') (A') (A') (A') (A') (A') (A') (A')
                 (A') (A') (A') (A") (A') (A') (A') (A') (A') (A')
                 (A') (A') (A') (A') (A') (A') (A') (A') (A') (A')
                 (A') (A') (A') (A') (A') (A') (A') (A') (A') (A')
                 (A') (A')
 The electronic state is 1-A'.
 Alpha  occ. eigenvalues --  -10.77552 -10.73874 -10.72902 -10.72586 -10.72208
 Alpha  occ. eigenvalues --  -10.71942 -10.71861 -10.70990 -10.70721 -10.70265
 Alpha  occ. eigenvalues --  -10.69993 -10.69908 -10.69680 -10.69263  -1.16576
 Alpha  occ. eigenvalues --   -1.12473  -1.06936  -1.05895  -1.01276  -1.00488
 Alpha  occ. eigenvalues --   -0.95498  -0.91016  -0.86450  -0.85886  -0.83763
 Alpha  occ. eigenvalues --   -0.78308  -0.76176  -0.74351  -0.69850  -0.69342
 Alpha  occ. eigenvalues --   -0.68250  -0.68087  -0.68028  -0.65396  -0.64227
 Alpha  occ. eigenvalues --   -0.62676  -0.61489  -0.60555  -0.59181  -0.59169
 Alpha  occ. eigenvalues --   -0.56956  -0.55267  -0.54460  -0.52441  -0.47492
 Alpha  occ. eigenvalues --   -0.46135  -0.43609
 Alpha virt. eigenvalues --   -0.26112  -0.14666  -0.14068  -0.12757  -0.11195
 Alpha virt. eigenvalues --   -0.10096  -0.09269  -0.07952  -0.07912  -0.07487
 Alpha virt. eigenvalues --   -0.07215  -0.07131  -0.05648  -0.05571  -0.05360
 Alpha virt. eigenvalues --   -0.03858  -0.03671  -0.03271  -0.03132  -0.02153
 Alpha virt. eigenvalues --   -0.01342  -0.00966   0.00185   0.00593   0.00636
 Alpha virt. eigenvalues --    0.01067   0.01500   0.01928   0.02122   0.02304
 Alpha virt. eigenvalues --    0.02448   0.02675   0.02813   0.03227   0.03468
 Alpha virt. eigenvalues --    0.04212   0.04494   0.04733   0.05043   0.05400
 Alpha virt. eigenvalues --    0.06020   0.06287   0.06571   0.07058   0.07278
 Alpha virt. eigenvalues --    0.07910   0.08054   0.08347   0.08674   0.08901
 Alpha virt. eigenvalues --    0.09464   0.09590   0.09942   0.10796   0.10941
 Alpha virt. eigenvalues --    0.11133   0.12071   0.12247   0.12633   0.13042
 Alpha virt. eigenvalues --    0.13483   0.13524   0.13965   0.14298   0.15788
 Alpha virt. eigenvalues --    0.16371   0.16516   0.17322   0.17394   0.17763
 Alpha virt. eigenvalues --    0.18130   0.19068   0.19372   0.19704   0.19989
 Alpha virt. eigenvalues --    0.21459   0.21669   0.22640   0.23217   0.23578
 Alpha virt. eigenvalues --    0.23987   0.24515   0.25465   0.26956   0.27623
 Alpha virt. eigenvalues --    0.28867   0.29240   0.29954   0.31352   0.35754
 Alpha virt. eigenvalues --    0.36487   0.38227   0.39284   0.41005   0.41236
 Alpha virt. eigenvalues --    0.41984   0.42072   0.42983   0.43715   0.44432
 Alpha virt. eigenvalues --    0.44740   0.45147   0.45838   0.46458   0.47864
 Alpha virt. eigenvalues --    0.48348   0.48750   0.49044   0.50568   0.51065
 Alpha virt. eigenvalues --    0.51184   0.52155   0.52156   0.52729   0.54136
 Alpha virt. eigenvalues --    0.54210   0.54590   0.55611   0.56036   0.57605
 Alpha virt. eigenvalues --    0.58215   0.59031   0.61533   0.62286   0.62461
 Alpha virt. eigenvalues --    0.63145   0.63468   0.64918   0.65171   0.67556
 Alpha virt. eigenvalues --    0.70272   0.70440   0.71295   0.72564   0.72932
 Alpha virt. eigenvalues --    0.75501   0.76066   0.76471   0.76707   0.77124
 Alpha virt. eigenvalues --    0.77884   0.78067   0.78320   0.79934   0.80388
 Alpha virt. eigenvalues --    0.81231   0.81525   0.82518   0.82984   0.85273
 Alpha virt. eigenvalues --    0.86996   0.87975   0.88175   0.89398   0.90687
 Alpha virt. eigenvalues --    0.91039   0.91519   0.93359   0.94584   0.96230
 Alpha virt. eigenvalues --    0.97009   1.00018   1.01294   1.01452   1.02768
 Alpha virt. eigenvalues --    1.02893   1.03315   1.04947   1.06696   1.08964
 Alpha virt. eigenvalues --    1.19601   1.22825   1.23932   1.24186   1.29147
 Alpha virt. eigenvalues --    1.29269   1.32447   1.34261   1.35741   1.35945
 Alpha virt. eigenvalues --    1.39283   1.39477   1.40738   1.42891   1.43369
 Alpha virt. eigenvalues --    1.43426   1.44308   1.46369   1.46556   1.47229
 Alpha virt. eigenvalues --    1.47733   1.48322   1.51816   1.53706   1.55736
 Alpha virt. eigenvalues --    1.55769   1.56256   1.56595   1.57848   1.61500
 Alpha virt. eigenvalues --    1.62843   1.63399   1.64314   1.66078   1.68266
 Alpha virt. eigenvalues --    1.68409   1.68730   1.69891   1.74441   1.76049
 Alpha virt. eigenvalues --    1.77183   1.78106   1.79760   1.79952   1.80952
 Alpha virt. eigenvalues --    1.82713   1.83181   1.83621   1.83801   1.84187
 Alpha virt. eigenvalues --    1.84702   1.85361   1.86522   1.88434   1.91451
 Alpha virt. eigenvalues --    1.92201   1.94039   1.95422   1.97846   1.98164
 Alpha virt. eigenvalues --    1.99849   2.02416   2.04621   2.07346   2.11686
 Alpha virt. eigenvalues --    2.12234   2.14343   2.15296   2.19063   2.21204
 Alpha virt. eigenvalues --    2.22710   2.28394   2.30372   2.34395   2.34723
 Alpha virt. eigenvalues --    2.36422   2.38554   2.39722   2.42318   2.44482
 Alpha virt. eigenvalues --    2.46093   2.46509   2.49119   2.52978   2.53778
 Alpha virt. eigenvalues --    2.54311   2.56879   2.57960   2.58483   2.59352
 Alpha virt. eigenvalues --    2.59951   2.61504   2.62152   2.63590   2.63699
 Alpha virt. eigenvalues --    2.64865   2.65036   2.65058   2.65692   2.67949
 Alpha virt. eigenvalues --    2.68343   2.70919   2.71498   2.73393   2.74808
 Alpha virt. eigenvalues --    2.76270   2.78258   2.79614   2.83230   2.83298
 Alpha virt. eigenvalues --    2.84856   2.86270   2.92129   2.97165   2.99382
 Alpha virt. eigenvalues --    3.00196   3.04942   3.08981   3.11120   3.14454
 Alpha virt. eigenvalues --    3.20395   3.21685   3.25944   3.28936   3.30891
 Alpha virt. eigenvalues --    3.32844   3.35022   3.44189   3.46405   3.46850
 Alpha virt. eigenvalues --    3.48321   3.50024   3.56432   3.65718   3.67066
 Alpha virt. eigenvalues --    3.68122   3.93373   3.93931   3.95315   3.96638
 Alpha virt. eigenvalues --    4.03877   4.06332   4.07734   4.12524   4.35182
 Alpha virt. eigenvalues --    4.60726   4.68851   4.70953  23.45166  23.59867
 Alpha virt. eigenvalues --   23.79181  23.81358  23.84356  23.89244  23.92184
 Alpha virt. eigenvalues --   23.95164  23.96090  23.98119  24.04554  24.07634
 Alpha virt. eigenvalues --   24.11756  24.14274
          Condensed to atoms (all electrons):
               1          2          3          4          5          6
     1  C    9.113092  -0.115962  -0.332019   2.353144  -0.106162  -0.108704
     2  C   -0.115962   7.229260   0.207133  -1.240414   0.023876  -0.012753
     3  C   -0.332019   0.207133   6.607361   0.848142  -0.145504   0.016881
     4  C    2.353144  -1.240414   0.848142  10.623520  -0.390228  -0.109949
     5  C   -0.106162   0.023876  -0.145504  -0.390228  11.666498   0.704913
     6  C   -0.108704  -0.012753   0.016881  -0.109949   0.704913   6.616599
     7  C    0.003536  -0.000492  -0.015360  -0.044250  -0.974069   0.435141
     8  C    0.411320  -0.036576  -0.082657   0.000945   1.705301  -0.672684
     9  C   -1.109161  -0.781590   0.294771  -0.458064   0.107687   0.294126
    10  C   -1.420554   0.376374  -0.457865  -2.330597  -2.838979  -0.237796
    11  C    0.295912  -1.002760   1.132733  -0.346502  -1.611438  -0.237976
    12  C   -2.762830   1.861346  -1.544120  -1.655808  -0.496884  -0.095204
    13  C    0.317415  -0.324924  -0.093441  -1.397769  -0.353157   0.855729
    14  C   -1.051733  -0.043613  -0.309217  -0.194293  -1.667394  -1.334973
    15  H    0.371601  -0.109484   0.002186   0.030540   0.004154   0.000945
    16  H   -0.015768   0.372056  -0.010857   0.009124  -0.001254  -0.000287
    17  H   -0.034794  -0.005112   0.366083  -0.065792   0.000493   0.000379
    18  H    0.055250   0.001520  -0.084098   0.453804   0.005954  -0.005326
    19  H   -0.048698  -0.007434   0.051913  -0.059815  -0.084608   0.051269
    20  H    0.006958   0.002152  -0.005027   0.005888   0.469829  -0.083152
    21  H   -0.001434  -0.000364   0.000416   0.000085  -0.070564   0.382778
    22  H    0.001136   0.000411  -0.000365  -0.001721   0.017948  -0.022801
    23  H    0.004657  -0.002963   0.001273   0.006553   0.024467  -0.003582
    24  H    0.026541   0.012538  -0.001866  -0.013474  -0.010943  -0.001231
    25  H    0.026541   0.012538  -0.001866  -0.013474  -0.010943  -0.001231
               7          8          9         10         11         12
     1  C    0.003536   0.411320  -1.109161  -1.420554   0.295912  -2.762830
     2  C   -0.000492  -0.036576  -0.781590   0.376374  -1.002760   1.861346
     3  C   -0.015360  -0.082657   0.294771  -0.457865   1.132733  -1.544120
     4  C   -0.044250   0.000945  -0.458064  -2.330597  -0.346502  -1.655808
     5  C   -0.974069   1.705301   0.107687  -2.838979  -1.611438  -0.496884
     6  C    0.435141  -0.672684   0.294126  -0.237796  -0.237976  -0.095204
     7  C    7.207019   0.563817  -0.882107   0.136425  -0.206821  -0.319519
     8  C    0.563817   8.318362  -1.138728  -1.183244   0.198256  -1.166183
     9  C   -0.882107  -1.138728   9.645869   0.245737   1.425335  -1.673782
    10  C    0.136425  -1.183244   0.245737   9.097960  -0.488838   2.473497
    11  C   -0.206821   0.198256   1.425335  -0.488838  14.228901  -3.193948
    12  C   -0.319519  -1.166183  -1.673782   2.473497  -3.193948  15.837810
    13  C   -0.760030   0.347963   1.607519  -0.279588   1.049675  -4.817134
    14  C    0.975446  -1.757913  -2.147792   2.370886  -4.671294   3.118703
    15  H   -0.002178   0.006986   0.096863  -0.011623  -0.035253  -0.039893
    16  H    0.000303   0.000323   0.004000  -0.007519   0.025309  -0.032615
    17  H   -0.000422  -0.001215  -0.006559   0.020177  -0.026711   0.098487
    18  H    0.002035   0.006844  -0.026219   0.014808  -0.001294  -0.068783
    19  H   -0.008499  -0.042864   0.074513   0.422770   0.083242  -0.041158
    20  H    0.003839   0.046577  -0.021839   0.005389  -0.012512  -0.023399
    21  H   -0.023738  -0.018764  -0.004493   0.019880  -0.006317   0.005228
    22  H    0.383822  -0.020091   0.001260  -0.010618   0.003500  -0.010744
    23  H   -0.106074   0.367061   0.086422  -0.007284  -0.004609   0.007810
    24  H    0.016220   0.038929   0.356549   0.005497  -0.000981  -0.060080
    25  H    0.016220   0.038929   0.356549   0.005497  -0.000981  -0.060080
              13         14         15         16         17         18
     1  C    0.317415  -1.051733   0.371601  -0.015768  -0.034794   0.055250
     2  C   -0.324924  -0.043613  -0.109484   0.372056  -0.005112   0.001520
     3  C   -0.093441  -0.309217   0.002186  -0.010857   0.366083  -0.084098
     4  C   -1.397769  -0.194293   0.030540   0.009124  -0.065792   0.453804
     5  C   -0.353157  -1.667394   0.004154  -0.001254   0.000493   0.005954
     6  C    0.855729  -1.334973   0.000945  -0.000287   0.000379  -0.005326
     7  C   -0.760030   0.975446  -0.002178   0.000303  -0.000422   0.002035
     8  C    0.347963  -1.757913   0.006986   0.000323  -0.001215   0.006844
     9  C    1.607519  -2.147792   0.096863   0.004000  -0.006559  -0.026219
    10  C   -0.279588   2.370886  -0.011623  -0.007519   0.020177   0.014808
    11  C    1.049675  -4.671294  -0.035253   0.025309  -0.026711  -0.001294
    12  C   -4.817134   3.118703  -0.039893  -0.032615   0.098487  -0.068783
    13  C   14.586878  -4.167302   0.009077   0.002229  -0.006215  -0.012199
    14  C   -4.167302  16.378191   0.004035  -0.007201   0.005281  -0.006859
    15  H    0.009077   0.004035   0.446141  -0.008851   0.001158   0.000015
    16  H    0.002229  -0.007201  -0.008851   0.422948  -0.005749   0.001875
    17  H   -0.006215   0.005281   0.001158  -0.005749   0.425368  -0.010417
    18  H   -0.012199  -0.006859   0.000015   0.001875  -0.010417   0.460574
    19  H    0.077096  -0.092189   0.000208  -0.000465   0.001063  -0.007054
    20  H   -0.009308  -0.046718  -0.000100   0.000010  -0.000115   0.001256
    21  H   -0.024687   0.084104   0.000010  -0.000007   0.000010  -0.000173
    22  H    0.024118  -0.028845  -0.000132   0.000007  -0.000007   0.000021
    23  H   -0.029524  -0.009674   0.000559  -0.000123   0.000018  -0.000130
    24  H    0.027420  -0.059577  -0.000863   0.000633  -0.000151   0.000235
    25  H    0.027420  -0.059577  -0.000863   0.000633  -0.000151   0.000235
              19         20         21         22         23         24
     1  C   -0.048698   0.006958  -0.001434   0.001136   0.004657   0.026541
     2  C   -0.007434   0.002152  -0.000364   0.000411  -0.002963   0.012538
     3  C    0.051913  -0.005027   0.000416  -0.000365   0.001273  -0.001866
     4  C   -0.059815   0.005888   0.000085  -0.001721   0.006553  -0.013474
     5  C   -0.084608   0.469829  -0.070564   0.017948   0.024467  -0.010943
     6  C    0.051269  -0.083152   0.382778  -0.022801  -0.003582  -0.001231
     7  C   -0.008499   0.003839  -0.023738   0.383822  -0.106074   0.016220
     8  C   -0.042864   0.046577  -0.018764  -0.020091   0.367061   0.038929
     9  C    0.074513  -0.021839  -0.004493   0.001260   0.086422   0.356549
    10  C    0.422770   0.005389   0.019880  -0.010618  -0.007284   0.005497
    11  C    0.083242  -0.012512  -0.006317   0.003500  -0.004609  -0.000981
    12  C   -0.041158  -0.023399   0.005228  -0.010744   0.007810  -0.060080
    13  C    0.077096  -0.009308  -0.024687   0.024118  -0.029524   0.027420
    14  C   -0.092189  -0.046718   0.084104  -0.028845  -0.009674  -0.059577
    15  H    0.000208  -0.000100   0.000010  -0.000132   0.000559  -0.000863
    16  H   -0.000465   0.000010  -0.000007   0.000007  -0.000123   0.000633
    17  H    0.001063  -0.000115   0.000010  -0.000007   0.000018  -0.000151
    18  H   -0.007054   0.001256  -0.000173   0.000021  -0.000130   0.000235
    19  H    0.444369  -0.005699   0.001811  -0.000623   0.000443   0.000593
    20  H   -0.005699   0.447276  -0.010039   0.001986   0.000242   0.000133
    21  H    0.001811  -0.010039   0.419051  -0.007151   0.001709  -0.000131
    22  H   -0.000623   0.001986  -0.007151   0.415144  -0.008830   0.000624
    23  H    0.000443   0.000242   0.001709  -0.008830   0.433049  -0.000942
    24  H    0.000593   0.000133  -0.000131   0.000624  -0.000942   0.493139
    25  H    0.000593   0.000133  -0.000131   0.000624  -0.000942  -0.079093
              25
     1  C    0.026541
     2  C    0.012538
     3  C   -0.001866
     4  C   -0.013474
     5  C   -0.010943
     6  C   -0.001231
     7  C    0.016220
     8  C    0.038929
     9  C    0.356549
    10  C    0.005497
    11  C   -0.000981
    12  C   -0.060080
    13  C    0.027420
    14  C   -0.059577
    15  H   -0.000863
    16  H    0.000633
    17  H   -0.000151
    18  H    0.000235
    19  H    0.000593
    20  H    0.000133
    21  H   -0.000131
    22  H    0.000624
    23  H   -0.000942
    24  H   -0.079093
    25  H    0.493139
 Mulliken charges:
               1
     1  C    0.120717
     2  C   -0.414763
     3  C   -0.444631
     4  C   -0.009596
     5  C    0.031007
     6  C   -0.431111
     7  C   -0.400263
     8  C    0.069304
     9  C   -0.346866
    10  C    0.079604
    11  C   -0.594629
    12  C    0.659281
    13  C   -0.657261
    14  C    0.719519
    15  H    0.234763
    16  H    0.251243
    17  H    0.244894
    18  H    0.218125
    19  H    0.189222
    20  H    0.226236
    21  H    0.252908
    22  H    0.261327
    23  H    0.240413
    24  H    0.250278
    25  H    0.250278
 Sum of Mulliken charges =   1.00000
 Mulliken charges with hydrogens summed into heavy atoms:
               1
     1  C    0.355480
     2  C   -0.163520
     3  C   -0.199737
     4  C    0.208529
     5  C    0.257244
     6  C   -0.178203
     7  C   -0.138936
     8  C    0.309717
     9  C    0.153691
    10  C    0.268826
    11  C   -0.594629
    12  C    0.659281
    13  C   -0.657261
    14  C    0.719519
 Electronic spatial extent (au):  <R**2>=           2856.5873
 Charge=              1.0000 electrons
 Dipole moment (field-independent basis, Debye):
    X=             -0.7863    Y=             -0.9887    Z=              0.0000  Tot=              1.2632
 Quadrupole moment (field-independent basis, Debye-Ang):
   XX=            -49.0525   YY=            -38.1965   ZZ=            -84.1279
   XY=             11.4576   XZ=              0.0000   YZ=             -0.0000
 Traceless Quadrupole moment (field-independent basis, Debye-Ang):
   XX=              8.0731   YY=             18.9291   ZZ=            -27.0023
   XY=             11.4576   XZ=              0.0000   YZ=             -0.0000
 Octapole moment (field-independent basis, Debye-Ang**2):
  XXX=             -5.0289  YYY=            -15.6300  ZZZ=             -0.0000  XYY=             -3.1901
  XXY=              1.7863  XXZ=              0.0000  XZZ=              1.7167  YZZ=             -3.1536
  YYZ=              0.0000  XYZ=             -0.0000
 Hexadecapole moment (field-independent basis, Debye-Ang**3):
 XXXX=          -1083.7146 YYYY=          -1772.6303 ZZZZ=            -99.3102 XXXY=           -368.0742
 XXXZ=              0.0000 YYYX=           -304.6299 YYYZ=              0.0000 ZZZX=              0.0000
 ZZZY=              0.0000 XXYY=           -444.8078 XXZZ=           -267.0503 YYZZ=           -469.4176
 XXYZ=             -0.0000 YYXZ=              0.0000 ZZXY=           -198.1804
 N-N= 7.812106145047D+02 E-N=-2.798783168899D+03  KE= 5.375390232798D+02
 Symmetry A'   KE= 5.228827689805D+02
 Symmetry A"   KE= 1.465625429930D+01
 Unable to Open any file for archive entry.
 1\1\GINC-GADI-CPU-CLX-0648\SP\RM062X TD-FC\6-311++G(d,p)\C14H11(1+)\TS
 1578\27-Jul-2022\0\\#n M062X/6-311++G(d,p) TD(NStates=1) EmpiricalDisp
 ersion=GD3 SP\\SP_125\\1,1\C,0,2.524,1.3676,0.\C,0,3.73875,0.696475,0.
 \C,0,3.6944,-0.67745,0.\C,0,2.428125,-1.378475,0.\C,0,-2.498325,-1.419
 425,0.\C,0,-3.6737,-0.73325,0.\C,0,-3.664725,0.66475,0.\C,0,-2.46235,1
 .3703,0.\C,0,0.019675,1.4632,0.\C,0,-0.0549,-1.42055,0.\C,0,1.253925,0
 .6685,0.\C,0,1.2149,-0.719325,0.\C,0,-1.27035,0.702925,0.\C,0,-1.2599,
 -0.724725,0.\H,0,2.4981,2.451125,0.\H,0,4.67455,1.23315,0.\H,0,4.60285
 ,-1.265025,0.\H,0,2.451,-2.461525,0.\H,0,-0.050625,-2.501625,0.\H,0,-2
 .48385,-2.50135,0.\H,0,-4.6159,-1.263,0.\H,0,-4.599625,1.207275,0.\H,0
 ,-2.4792,2.45315,0.\H,0,0.072,2.15475,-0.859875\H,0,0.072,2.15475,0.85
 9875\\Version=ES64L-G16RevC.01\State=1-A'\HF=-539.7514286\RMSD=3.401e-
 09\PG=CS [SG(C14H9),X(H2)]\\@
 The archive entry for this job was punched.


 FROM WHENCE IT HAPPENS, THAT THEY WHICH TRUST TO BOOKS, DO AS THEY THAT CAST UP MANY LITTLE SUMMS INTO GREATER,
 WITHOUT CONSIDERING WETHER THOSE LITTLE SUMMES WERE RIGHTLY CAST UP OR NOT...
 AND AT LAST FINDING THE ERROUR VISIBLE, AND NOT MISTRUSTING THEIR FIRST GROUNDS,
 KNOW NOT WHICH WAY TO CLEERE THEMSELVES...
 BUT SPEND TIME IN FLUTTERING OVER THEIR BOOKES....
 AS BIRDS THAT ENTERING BY THE CHIMNEY, AND FINDING THEMSELVES INCLOSED IN A CHAMBER,
 FLUTTER AT THE FALSE LIGHT OF A GLASSE WINDOW,
 FOR WANT OF WIT TO CONSIDER WHICH WAY THEY CAME IN....
           LEVIATHAN
 Job cpu time:       0 days  0 hours 48 minutes 16.2 seconds.
 Elapsed time:       0 days  0 hours  1 minutes 33.3 seconds.
 File lengths (MBytes):  RWF=    460 Int=      0 D2E=      0 Chk=     15 Scr=      1
 Normal termination of Gaussian 16 at Wed Jul 27 12:32:51 2022.
