 Entering Gaussian System, Link 0=g16
 Initial command:
 /apps/gaussian/g16c01/g16/l1.exe "/jobfs/52804872.gadi-pbs/Gau-1419319.inp" -scrdir="/jobfs/52804872.gadi-pbs/"
 Entering Link 1 = /apps/gaussian/g16c01/g16/l1.exe PID=   1419320.
  
 Copyright (c) 1988-2019, Gaussian, Inc.  All Rights Reserved.
  
 This is part of the Gaussian(R) 16 program.  It is based on
 the Gaussian(R) 09 system (copyright 2009, Gaussian, Inc.),
 the Gaussian(R) 03 system (copyright 2003, Gaussian, Inc.),
 the Gaussian(R) 98 system (copyright 1998, Gaussian, Inc.),
 the Gaussian(R) 94 system (copyright 1995, Gaussian, Inc.),
 the Gaussian 92(TM) system (copyright 1992, Gaussian, Inc.),
 the Gaussian 90(TM) system (copyright 1990, Gaussian, Inc.),
 the Gaussian 88(TM) system (copyright 1988, Gaussian, Inc.),
 the Gaussian 86(TM) system (copyright 1986, Carnegie Mellon
 University), and the Gaussian 82(TM) system (copyright 1983,
 Carnegie Mellon University). Gaussian is a federally registered
 trademark of Gaussian, Inc.
  
 This software contains proprietary and confidential information,
 including trade secrets, belonging to Gaussian, Inc.
  
 This software is provided under written license and may be
 used, copied, transmitted, or stored only in accord with that
 written license.
  
 The following legend is applicable only to US Government
 contracts under FAR:
  
                    RESTRICTED RIGHTS LEGEND
  
 Use, reproduction and disclosure by the US Government is
 subject to restrictions as set forth in subparagraphs (a)
 and (c) of the Commercial Computer Software - Restricted
 Rights clause in FAR 52.227-19.
  
 Gaussian, Inc.
 340 Quinnipiac St., Bldg. 40, Wallingford CT 06492
  
  
 ---------------------------------------------------------------
 Warning -- This program may not be used in any manner that
 competes with the business of Gaussian, Inc. or will provide
 assistance to any competitor of Gaussian, Inc.  The licensee
 of this program is prohibited from giving any competitor of
 Gaussian, Inc. access to this program.  By using this program,
 the user acknowledges that Gaussian, Inc. is engaged in the
 business of creating and licensing software in the field of
 computational chemistry and represents and warrants to the
 licensee that it is not a competitor of Gaussian, Inc. and that
 it will not use this program in any manner prohibited above.
 ---------------------------------------------------------------
  

 Cite this work as:
 Gaussian 16, Revision C.01,
 M. J. Frisch, G. W. Trucks, H. B. Schlegel, G. E. Scuseria, 
 M. A. Robb, J. R. Cheeseman, G. Scalmani, V. Barone, 
 G. A. Petersson, H. Nakatsuji, X. Li, M. Caricato, A. V. Marenich, 
 J. Bloino, B. G. Janesko, R. Gomperts, B. Mennucci, H. P. Hratchian, 
 J. V. Ortiz, A. F. Izmaylov, J. L. Sonnenberg, D. Williams-Young, 
 F. Ding, F. Lipparini, F. Egidi, J. Goings, B. Peng, A. Petrone, 
 T. Henderson, D. Ranasinghe, V. G. Zakrzewski, J. Gao, N. Rega, 
 G. Zheng, W. Liang, M. Hada, M. Ehara, K. Toyota, R. Fukuda, 
 J. Hasegawa, M. Ishida, T. Nakajima, Y. Honda, O. Kitao, H. Nakai, 
 T. Vreven, K. Throssell, J. A. Montgomery, Jr., J. E. Peralta, 
 F. Ogliaro, M. J. Bearpark, J. J. Heyd, E. N. Brothers, K. N. Kudin, 
 V. N. Staroverov, T. A. Keith, R. Kobayashi, J. Normand, 
 K. Raghavachari, A. P. Rendell, J. C. Burant, S. S. Iyengar, 
 J. Tomasi, M. Cossi, J. M. Millam, M. Klene, C. Adamo, R. Cammi, 
 J. W. Ochterski, R. L. Martin, K. Morokuma, O. Farkas, 
 J. B. Foresman, and D. J. Fox, Gaussian, Inc., Wallingford CT, 2019.
 
 ******************************************
 Gaussian 16:  ES64L-G16RevC.01  3-Jul-2019
                27-Jul-2022 
 ******************************************
 %NProcShared=32
 Will use up to   32 processors via shared memory.
 %mem = 128GB
 ---------------------------------------------------------------
 #n M062X/6-311++G(d,p) TD(NStates=1) EmpiricalDispersion=GD3 SP
 ---------------------------------------------------------------
 1/38=1,172=1/1;
 2/12=2,17=6,18=5,40=1/2;
 3/5=4,6=6,7=1111,11=9,25=1,30=1,74=-55,124=31/1,2,3,8;
 4//1;
 5/5=2,38=5/2;
 8/6=1,10=2,108=1/1;
 9/41=1,42=1,70=2/14;
 6/7=2,8=2,9=2,10=2/1;
 99/5=1,9=1/99;
 ------
 SP_-50
 ------
 Symbolic Z-matrix:
 Charge =  1 Multiplicity = 1
 C                     2.4908    1.3697    0. 
 C                     3.70055   0.68105   0. 
 C                     3.6833   -0.7041    0. 
 C                     2.4631   -1.3987    0. 
 C                    -2.4631   -1.3987    0. 
 C                    -3.6833   -0.7041    0. 
 C                    -3.70055   0.68105   0. 
 C                    -2.4908    1.3697    0. 
 C                     0.00005   1.4577    0. 
 C                     0.       -1.4203    0. 
 C                     1.26195   0.68565   0. 
 C                     1.2379   -0.7224    0. 
 C                    -1.26195   0.68565   0. 
 C                    -1.2379   -0.7224    0. 
 H                     2.4859    2.45295   0. 
 H                     4.63565   1.22115   0. 
 H                     4.609    -1.26245   0. 
 H                     2.4678   -2.48125   0. 
 H                     0.       -2.5015    0. 
 H                    -2.4678   -2.48125   0. 
 H                    -4.609    -1.26245   0. 
 H                    -4.63565   1.22115   0. 
 H                    -2.4859    2.45295   0. 
 H                     0.        2.1535   -0.8585 
 H                     0.        2.1535    0.8585 
 
                          Input orientation:                          
 ---------------------------------------------------------------------
 Center     Atomic      Atomic             Coordinates (Angstroms)
 Number     Number       Type             X           Y           Z
 ---------------------------------------------------------------------
      1          6           0        2.490800    1.369700    0.000000
      2          6           0        3.700550    0.681050    0.000000
      3          6           0        3.683300   -0.704100    0.000000
      4          6           0        2.463100   -1.398700    0.000000
      5          6           0       -2.463100   -1.398700    0.000000
      6          6           0       -3.683300   -0.704100    0.000000
      7          6           0       -3.700550    0.681050    0.000000
      8          6           0       -2.490800    1.369700    0.000000
      9          6           0        0.000050    1.457700    0.000000
     10          6           0        0.000000   -1.420300    0.000000
     11          6           0        1.261950    0.685650    0.000000
     12          6           0        1.237900   -0.722400    0.000000
     13          6           0       -1.261950    0.685650    0.000000
     14          6           0       -1.237900   -0.722400    0.000000
     15          1           0        2.485900    2.452950    0.000000
     16          1           0        4.635650    1.221150    0.000000
     17          1           0        4.609000   -1.262450    0.000000
     18          1           0        2.467800   -2.481250    0.000000
     19          1           0        0.000000   -2.501500    0.000000
     20          1           0       -2.467800   -2.481250    0.000000
     21          1           0       -4.609000   -1.262450    0.000000
     22          1           0       -4.635650    1.221150    0.000000
     23          1           0       -2.485900    2.452950    0.000000
     24          1           0        0.000000    2.153500   -0.858500
     25          1           0        0.000000    2.153500    0.858500
 ---------------------------------------------------------------------
                    Distance matrix (angstroms):
                    1          2          3          4          5
     1  C    0.000000
     2  C    1.392025   0.000000
     3  C    2.392217   1.385257   0.000000
     4  C    2.768539   2.420050   1.404050   0.000000
     5  C    5.674959   6.505070   6.185524   4.926200   0.000000
     6  C    6.513076   7.512648   7.366600   6.185524   1.404050
     7  C    6.229531   7.401100   7.512648   6.505070   2.420050
     8  C    4.981600   6.229531   6.513076   5.674959   2.768539
     9  C    2.492304   3.781122   4.270797   3.771689   3.771754
    10  C    3.740078   4.255554   3.752285   2.463195   2.463195
    11  C    1.406413   2.438604   2.791835   2.405676   4.268549
    12  C    2.438574   2.834487   2.445468   1.399463   3.762284
    13  C    3.814585   4.962502   5.136818   4.268549   2.405676
    14  C    4.275522   5.134000   4.921234   3.762284   1.399463
    15  H    1.083261   2.148256   3.376497   3.851717   6.271189
    16  H    2.149988   1.079870   2.147919   3.403467   7.566761
    17  H    3.378607   2.145338   1.081053   2.150221   7.073412
    18  H    3.851019   3.394085   2.153068   1.082560   5.048335
    19  H    4.603289   4.880850   4.098456   2.698709   2.698709
    20  H    6.278338   6.931716   6.402679   5.048335   1.082560
    21  H    7.572013   8.533804   8.311077   7.073412   2.150221
    22  H    7.127998   8.353678   8.538824   7.566761   3.403467
    23  H    5.093228   6.435200   6.930079   6.271189   3.851717
    24  H    2.748718   4.074212   4.740211   4.407041   4.407041
    25  H    2.748718   4.074212   4.740211   4.407041   4.407041
                    6          7          8          9         10
     6  C    0.000000
     7  C    1.385257   0.000000
     8  C    2.392217   1.392025   0.000000
     9  C    4.270884   3.781220   2.492404   0.000000
    10  C    3.752285   4.255554   3.740078   2.878000   0.000000
    11  C    5.136818   4.962502   3.814585   1.479342   2.455106
    12  C    4.921234   5.134000   4.275522   2.507012   1.421077
    13  C    2.791835   2.438604   1.406413   1.479427   2.455106
    14  C    2.445468   2.834487   2.438574   2.507061   1.421077
    15  H    6.930079   6.435200   5.093228   2.677680   4.602365
    16  H    8.538824   8.353678   7.127998   4.641632   5.335401
    17  H    8.311077   8.533804   7.572013   5.351788   4.611702
    18  H    6.402679   6.931716   6.278338   4.648131   2.686197
    19  H    4.098456   4.880850   4.603289   3.959200   1.081200
    20  H    2.153068   3.394085   3.851019   4.648184   2.686197
    21  H    1.081053   2.145338   3.378607   5.351874   4.611702
    22  H    2.147919   1.079870   2.149988   4.641731   5.335401
    23  H    3.376497   2.148256   1.083261   2.677773   4.602365
    24  H    4.740211   4.074212   2.748718   1.105061   3.675468
    25  H    4.740211   4.074212   2.748718   1.105061   3.675468
                   11         12         13         14         15
    11  C    0.000000
    12  C    1.408255   0.000000
    13  C    2.523900   2.869121   0.000000
    14  C    2.869121   2.475800   1.408255   0.000000
    15  H    2.149745   3.411796   4.143637   4.893826   0.000000
    16  H    3.415935   3.914344   5.921862   6.186758   2.477651
    17  H    3.872704   3.414084   6.185721   5.871788   4.279223
    18  H    3.388706   2.146208   4.892882   4.101922   4.934233
    19  H    3.427892   2.167393   3.427892   2.167393   5.543129
    20  H    4.892882   4.101922   3.388706   2.146208   6.991815
    21  H    6.185721   5.871788   3.872704   3.414084   8.008858
    22  H    5.921862   6.186758   3.415935   3.914344   7.227296
    23  H    4.143637   4.893826   2.149745   3.411796   4.971800
    24  H    2.117575   3.246570   2.117575   3.246570   2.646959
    25  H    2.117575   3.246570   2.117575   3.246570   2.646959
                   16         17         18         19         20
    16  H    0.000000
    17  H    2.483743   0.000000
    18  H    4.290378   2.463780   0.000000
    19  H    5.945366   4.772643   2.467883   0.000000
    20  H    8.010416   7.180987   4.935600   2.467883   0.000000
    21  H    9.572451   9.218000   7.180987   4.772643   2.463780
    22  H    9.271300   9.572451   8.010416   5.945366   4.290378
    23  H    7.227296   8.008858   6.991815   5.543129   4.934233
    24  H    4.805783   5.800743   5.320523   4.733503   5.320523
    25  H    4.805783   5.800743   5.320523   4.733503   5.320523
                   21         22         23         24         25
    21  H    0.000000
    22  H    2.483743   0.000000
    23  H    4.279223   2.477651   0.000000
    24  H    5.800743   4.805783   2.646959   0.000000
    25  H    5.800743   4.805783   2.646959   1.717000   0.000000
 Stoichiometry    C14H11(1+)
 Framework group  CS[SG(C14H9),X(H2)]
 Deg. of freedom    46
 Full point group                 CS      NOp   2
 Largest Abelian subgroup         CS      NOp   2
 Largest concise Abelian subgroup CS      NOp   2
                         Standard orientation:                         
 ---------------------------------------------------------------------
 Center     Atomic      Atomic             Coordinates (Angstroms)
 Number     Number       Type             X           Y           Z
 ---------------------------------------------------------------------
      1          6           0       -1.361015   -2.490797    0.000000
      2          6           0       -0.672365   -3.700547    0.000000
      3          6           0        0.712785   -3.683297    0.000000
      4          6           0        1.407385   -2.463097    0.000000
      5          6           0        1.407385    2.463103    0.000000
      6          6           0        0.712785    3.683303    0.000000
      7          6           0       -0.672365    3.700553    0.000000
      8          6           0       -1.361015    2.490803    0.000000
      9          6           0       -1.449015   -0.000047    0.000000
     10          6           0        1.428985    0.000003    0.000000
     11          6           0       -0.676965   -1.261947    0.000000
     12          6           0        0.731085   -1.237897    0.000000
     13          6           0       -0.676965    1.261953    0.000000
     14          6           0        0.731085    1.237903    0.000000
     15          1           0       -2.444265   -2.485897    0.000000
     16          1           0       -1.212465   -4.635647    0.000000
     17          1           0        1.271135   -4.608997    0.000000
     18          1           0        2.489935   -2.467797    0.000000
     19          1           0        2.510185    0.000003    0.000000
     20          1           0        2.489935    2.467803    0.000000
     21          1           0        1.271135    4.609003    0.000000
     22          1           0       -1.212465    4.635653    0.000000
     23          1           0       -2.444265    2.485903    0.000000
     24          1           0       -2.144815    0.000003    0.858500
     25          1           0       -2.144815    0.000003   -0.858500
 ---------------------------------------------------------------------
 Rotational constants (GHZ):           2.1376555           0.4448331           0.3690095
 Standard basis: 6-311++G(d,p) (5D, 7F)
 There are   299 symmetry adapted cartesian basis functions of A'  symmetry.
 There are   100 symmetry adapted cartesian basis functions of A"  symmetry.
 There are   285 symmetry adapted basis functions of A'  symmetry.
 There are   100 symmetry adapted basis functions of A"  symmetry.
   385 basis functions,   603 primitive gaussians,   399 cartesian basis functions
    47 alpha electrons       47 beta electrons
       nuclear repulsion energy       781.3914830616 Hartrees.
 NAtoms=   25 NActive=   25 NUniq=   24 SFac= 1.09D+00 NAtFMM=   60 NAOKFM=F Big=F
 Integral buffers will be    131072 words long.
 Regular integral format.
 Two-electron integral symmetry is turned on.
 Nuclear repulsion after empirical dispersion term =      781.3905036324 Hartrees.
 One-electron integrals computed using PRISM.
 NBasis=   385 RedAO= T EigKep=  1.11D-06  NBF=   285   100
 NBsUse=   379 1.00D-06 EigRej=  8.36D-07 NBFU=   279   100
 ExpMin= 3.60D-02 ExpMax= 4.56D+03 ExpMxC= 6.82D+02 IAcc=3 IRadAn=         5 AccDes= 0.00D+00
 Harris functional with IExCor= 1009 and IRadAn=       5 diagonalized for initial guess.
 HarFok:  IExCor= 1009 AccDes= 0.00D+00 IRadAn=         5 IDoV= 1 UseB2=F ITyADJ=14
 ICtDFT=  3500011 ScaDFX=  1.000000  1.000000  1.000000  1.000000
 FoFCou: FMM=F IPFlag=           0 FMFlag=      100000 FMFlg1=           0
         NFxFlg=           0 DoJE=T BraDBF=F KetDBF=T FulRan=T
         wScrn=  0.000000 ICntrl=       500 IOpCl=  0 I1Cent=   200000004 NGrid=           0
         NMat0=    1 NMatS0=      1 NMatT0=    0 NMatD0=    1 NMtDS0=    0 NMtDT0=    0
 Petite list used in FoFCou.
 Initial guess orbital symmetries:
       Occupied  (A') (A') (A') (A') (A') (A') (A') (A') (A') (A')
                 (A') (A') (A') (A') (A') (A') (A') (A') (A') (A')
                 (A') (A') (A') (A') (A') (A') (A') (A') (A') (A')
                 (A') (A') (A") (A') (A') (A') (A') (A') (A') (A")
                 (A") (A') (A') (A") (A") (A") (A")
       Virtual   (A") (A") (A") (A") (A") (A') (A') (A') (A') (A")
                 (A") (A') (A') (A') (A") (A') (A') (A') (A') (A")
                 (A') (A") (A') (A') (A') (A") (A') (A") (A') (A')
                 (A') (A') (A') (A") (A') (A') (A") (A') (A') (A")
                 (A') (A') (A') (A") (A') (A') (A') (A') (A') (A")
                 (A') (A') (A") (A") (A') (A') (A') (A") (A") (A')
                 (A') (A') (A') (A') (A') (A") (A') (A') (A') (A")
                 (A') (A') (A') (A') (A') (A') (A') (A') (A') (A')
                 (A') (A') (A') (A') (A') (A') (A') (A') (A') (A')
                 (A') (A') (A') (A') (A') (A') (A') (A") (A') (A")
                 (A') (A') (A") (A") (A') (A") (A") (A') (A') (A")
                 (A") (A') (A') (A') (A") (A') (A') (A") (A") (A')
                 (A") (A") (A') (A') (A') (A") (A') (A') (A') (A")
                 (A') (A') (A') (A') (A') (A') (A") (A') (A') (A')
                 (A') (A') (A') (A') (A') (A') (A') (A') (A') (A")
                 (A") (A') (A") (A") (A') (A') (A') (A") (A") (A')
                 (A") (A') (A") (A") (A") (A') (A') (A') (A') (A')
                 (A') (A") (A") (A') (A') (A') (A') (A') (A') (A")
                 (A') (A') (A') (A') (A') (A") (A") (A') (A") (A")
                 (A') (A") (A') (A") (A') (A') (A') (A") (A') (A')
                 (A") (A") (A") (A') (A') (A") (A') (A") (A') (A')
                 (A") (A") (A') (A") (A') (A") (A') (A') (A") (A')
                 (A') (A') (A') (A') (A") (A') (A') (A') (A") (A")
                 (A') (A') (A') (A") (A') (A') (A") (A') (A") (A')
                 (A") (A') (A') (A') (A') (A') (A") (A') (A') (A")
                 (A') (A') (A") (A') (A") (A') (A') (A") (A') (A')
                 (A') (A') (A") (A") (A') (A') (A') (A") (A") (A')
                 (A') (A') (A') (A') (A") (A') (A") (A') (A") (A')
                 (A") (A') (A") (A") (A") (A') (A') (A') (A') (A')
                 (A') (A') (A') (A') (A') (A') (A') (A') (A') (A')
                 (A') (A') (A') (A') (A") (A') (A') (A') (A') (A')
                 (A') (A') (A') (A') (A') (A') (A') (A') (A') (A')
                 (A') (A') (A') (A') (A') (A') (A') (A') (A') (A')
                 (A') (A')
 The electronic state of the initial guess is 1-A'.
 Requested convergence on RMS density matrix=1.00D-08 within 128 cycles.
 Requested convergence on MAX density matrix=1.00D-06.
 Requested convergence on             energy=1.00D-06.
 No special actions if energy rises.
 SCF Done:  E(RM062X) =  -539.760161399     A.U. after   15 cycles
            NFock= 15  Conv=0.43D-08     -V/T= 2.0042
 DoSCS=F DFT=T ScalE2(SS,OS)=  1.000000  1.000000
 ExpMin= 3.60D-02 ExpMax= 4.56D+03 ExpMxC= 6.82D+02 IAcc=3 IRadAn=         5 AccDes= 0.00D+00
 HarFok:  IExCor=  205 AccDes= 0.00D+00 IRadAn=         5 IDoV=-2 UseB2=F ITyADJ=14
 ICtDFT= 12500011 ScaDFX=  1.000000  1.000000  1.000000  1.000000
 Range of M.O.s used for correlation:    15   379
 NBasis=   385 NAE=    47 NBE=    47 NFC=    14 NFV=     0
 NROrb=    365 NOA=    33 NOB=    33 NVA=   332 NVB=   332

 **** Warning!!: The largest alpha MO coefficient is  0.14666197D+03

 Orbital symmetries:
       Occupied  (A') (A') (A') (A') (A') (A') (A') (A') (A') (A')
                 (A') (A') (A') (A') (A') (A') (A') (A') (A') (A')
                 (A') (A') (A') (A') (A') (A') (A') (A') (A') (A')
                 (A') (A') (A") (A') (A') (A') (A') (A") (A") (A')
                 (A') (A') (A') (A") (A") (A") (A")
       Virtual   (A") (A") (A") (A") (A') (A') (A') (A') (A") (A')
                 (A') (A") (A') (A') (A") (A') (A") (A') (A') (A')
                 (A") (A") (A') (A') (A') (A") (A') (A") (A') (A')
                 (A") (A') (A") (A') (A') (A') (A') (A') (A") (A')
                 (A") (A') (A') (A") (A") (A') (A") (A') (A") (A')
                 (A') (A') (A') (A') (A') (A") (A') (A') (A') (A')
                 (A') (A") (A') (A') (A') (A') (A") (A') (A') (A')
                 (A') (A') (A') (A') (A') (A') (A') (A') (A') (A')
                 (A') (A') (A') (A') (A') (A') (A') (A') (A') (A')
                 (A') (A') (A') (A') (A") (A') (A") (A") (A') (A")
                 (A') (A') (A') (A') (A") (A") (A') (A") (A") (A')
                 (A') (A') (A") (A') (A') (A") (A') (A") (A') (A")
                 (A") (A') (A") (A') (A') (A') (A") (A') (A') (A')
                 (A') (A') (A') (A') (A') (A') (A') (A') (A') (A')
                 (A') (A') (A') (A") (A') (A') (A') (A') (A') (A')
                 (A') (A') (A") (A') (A") (A') (A") (A") (A') (A")
                 (A") (A') (A') (A") (A") (A") (A') (A") (A') (A')
                 (A') (A') (A') (A") (A") (A') (A') (A') (A') (A")
                 (A') (A') (A') (A") (A') (A") (A') (A') (A") (A")
                 (A") (A') (A') (A") (A') (A") (A') (A') (A') (A')
                 (A") (A") (A") (A') (A') (A") (A') (A") (A') (A')
                 (A') (A") (A') (A") (A") (A') (A") (A') (A') (A")
                 (A') (A') (A') (A') (A") (A') (A') (A') (A") (A")
                 (A') (A') (A') (A") (A') (A') (A') (A") (A") (A')
                 (A") (A') (A') (A") (A') (A') (A') (A') (A') (A')
                 (A") (A') (A') (A') (A') (A") (A") (A") (A') (A')
                 (A') (A') (A') (A') (A') (A') (A") (A') (A') (A')
                 (A') (A") (A') (A") (A") (A") (A') (A") (A') (A")
                 (A') (A") (A") (A') (A") (A") (A') (A') (A') (A')
                 (A') (A') (A') (A') (A') (A') (A') (A') (A') (A')
                 (A') (A') (A') (A") (A') (A') (A') (A') (A') (A')
                 (A') (A') (A') (A') (A') (A') (A') (A') (A') (A')
                 (A') (A') (A') (A') (A') (A') (A') (A') (A') (A')
                 (A') (A')
     4 initial guesses have been made.
 Convergence on wavefunction:    0.001000000000000
 Iteration     1 Dimension     4 NMult     0 NNew      4
 CISAX will form     4 AO SS matrices at one time.
 Iteration     2 Dimension     6 NMult     4 NNew      2
 Iteration     3 Dimension     8 NMult     6 NNew      2
 Iteration     4 Dimension    10 NMult     8 NNew      2
 Iteration     5 Dimension    12 NMult    10 NNew      2
 Iteration     6 Dimension    14 NMult    12 NNew      2
 ***********************************************************************
 Excited states from <AA,BB:AA,BB> singles matrix:
 ***********************************************************************
 
 Ground to excited state transition densities written to RWF  633
 Ground to excited state transition electric dipole moments (Au):
       state          X           Y           Z        Dip. S.      Osc.
         1        -0.6466     -0.0000      0.0000      0.4181      0.0289
 Ground to excited state transition velocity dipole moments (Au):
       state          X           Y           Z        Dip. S.      Osc.
         1         0.0748      0.0000     -0.0000      0.0056      0.0360
 Ground to excited state transition magnetic dipole moments (Au):
       state          X           Y           Z
         1         0.0000      0.0000      0.0000
 Ground to excited state transition velocity quadrupole moments (Au):
       state          XX          YY          ZZ          XY          XZ          YZ
         1         0.0348      0.2963     -0.0098     -0.0000      0.0000      0.0000
 <0|del|b> * <b|rxdel|0> + <0|del|b> * <b|delr+rdel|0>
 Rotatory Strengths (R) in cgs (10**-40 erg-esu-cm/Gauss)
       state          XX          YY          ZZ    R(velocity)    E-M Angle
         1        -0.0000      0.0000     -0.0000      0.0000       90.00
 1/2[<0|r|b>*<b|rxdel|0> + (<0|rxdel|b>*<b|r|0>)*]
 Rotatory Strengths (R) in cgs (10**-40 erg-esu-cm/Gauss)
       state          XX          YY          ZZ     R(length)
         1         0.0000      0.0000     -0.0000      0.0000
  1/2[<0|del|b>*<b|r|0> + (<0|r|b>*<b|del|0>)*] (Au)
       state          X           Y           Z        Dip. S.   Osc.(frdel)
         1        -0.0484     -0.0000     -0.0000      0.0484      0.0322

 Excitation energies and oscillator strengths:
 
 Excited State   1:      Singlet-A'     2.8222 eV  439.31 nm  f=0.0289  <S**2>=0.000
      47 -> 48         0.70426
 This state for optimization and/or second-order correction.
 Total Energy, E(TD-HF/TD-DFT) =  -539.656445640    
 Copying the excited state density for this state as the 1-particle RhoCI density.
 SavETr:  write IOETrn=   770 NScale= 10 NData=  16 NLR=1 NState=    1 LETran=      28.

 **********************************************************************

            Population analysis using the SCF Density.

 **********************************************************************

 Orbital symmetries:
       Occupied  (A') (A') (A') (A') (A') (A') (A') (A') (A') (A')
                 (A') (A') (A') (A') (A') (A') (A') (A') (A') (A')
                 (A') (A') (A') (A') (A') (A') (A') (A') (A') (A')
                 (A') (A') (A") (A') (A') (A') (A') (A") (A") (A')
                 (A') (A') (A') (A") (A") (A") (A")
       Virtual   (A") (A") (A") (A") (A') (A') (A') (A') (A") (A')
                 (A') (A") (A') (A') (A") (A') (A") (A') (A') (A')
                 (A") (A") (A') (A') (A') (A") (A') (A") (A') (A')
                 (A") (A') (A") (A') (A') (A') (A') (A') (A") (A')
                 (A") (A') (A') (A") (A") (A') (A") (A') (A") (A')
                 (A') (A') (A') (A') (A') (A") (A') (A') (A') (A')
                 (A') (A") (A') (A') (A') (A') (A") (A') (A') (A')
                 (A') (A') (A') (A') (A') (A') (A') (A') (A') (A')
                 (A') (A') (A') (A') (A') (A') (A') (A') (A') (A')
                 (A') (A') (A') (A') (A") (A') (A") (A") (A') (A")
                 (A') (A') (A') (A') (A") (A") (A') (A") (A") (A')
                 (A') (A') (A") (A') (A') (A") (A') (A") (A') (A")
                 (A") (A') (A") (A') (A') (A') (A") (A') (A') (A')
                 (A') (A') (A') (A') (A') (A') (A') (A') (A') (A')
                 (A') (A') (A') (A") (A') (A') (A') (A') (A') (A')
                 (A') (A') (A") (A') (A") (A') (A") (A") (A') (A")
                 (A") (A') (A') (A") (A") (A") (A') (A") (A') (A')
                 (A') (A') (A') (A") (A") (A') (A') (A') (A') (A")
                 (A') (A') (A') (A") (A') (A") (A') (A') (A") (A")
                 (A") (A') (A') (A") (A') (A") (A') (A') (A') (A')
                 (A") (A") (A") (A') (A') (A") (A') (A") (A') (A')
                 (A') (A") (A') (A") (A") (A') (A") (A') (A') (A")
                 (A') (A') (A') (A') (A") (A') (A') (A') (A") (A")
                 (A') (A') (A') (A") (A') (A') (A') (A") (A") (A')
                 (A") (A') (A') (A") (A') (A') (A') (A') (A') (A')
                 (A") (A') (A') (A') (A') (A") (A") (A") (A') (A')
                 (A') (A') (A') (A') (A') (A') (A") (A') (A') (A')
                 (A') (A") (A') (A") (A") (A") (A') (A") (A') (A")
                 (A') (A") (A") (A') (A") (A") (A') (A') (A') (A')
                 (A') (A') (A') (A') (A') (A') (A') (A') (A') (A')
                 (A') (A') (A') (A") (A') (A') (A') (A') (A') (A')
                 (A') (A') (A') (A') (A') (A') (A') (A') (A') (A')
                 (A') (A') (A') (A') (A') (A') (A') (A') (A') (A')
                 (A') (A')
 The electronic state is 1-A'.
 Alpha  occ. eigenvalues --  -10.77658 -10.73215 -10.73214 -10.72428 -10.72426
 Alpha  occ. eigenvalues --  -10.71367 -10.71366 -10.71008 -10.71008 -10.70967
 Alpha  occ. eigenvalues --  -10.69971 -10.69971 -10.69623 -10.69623  -1.16468
 Alpha  occ. eigenvalues --   -1.12483  -1.06945  -1.05770  -1.01314  -1.00214
 Alpha  occ. eigenvalues --   -0.95778  -0.91066  -0.86422  -0.85910  -0.83825
 Alpha  occ. eigenvalues --   -0.78403  -0.76051  -0.74421  -0.69549  -0.69251
 Alpha  occ. eigenvalues --   -0.68512  -0.68204  -0.68094  -0.64745  -0.64296
 Alpha  occ. eigenvalues --   -0.63101  -0.61870  -0.59973  -0.59692  -0.59085
 Alpha  occ. eigenvalues --   -0.56911  -0.55209  -0.54857  -0.52435  -0.46640
 Alpha  occ. eigenvalues --   -0.46057  -0.44487
 Alpha virt. eigenvalues --   -0.26079  -0.14672  -0.14095  -0.12772  -0.11181
 Alpha virt. eigenvalues --   -0.10089  -0.09230  -0.07983  -0.07965  -0.07476
 Alpha virt. eigenvalues --   -0.07207  -0.07147  -0.05642  -0.05583  -0.05334
 Alpha virt. eigenvalues --   -0.03827  -0.03647  -0.03280  -0.03131  -0.02164
 Alpha virt. eigenvalues --   -0.01370  -0.00931   0.00187   0.00592   0.00677
 Alpha virt. eigenvalues --    0.01056   0.01511   0.01937   0.02223   0.02277
 Alpha virt. eigenvalues --    0.02450   0.02671   0.02750   0.03284   0.03370
 Alpha virt. eigenvalues --    0.04239   0.04509   0.04693   0.05029   0.05364
 Alpha virt. eigenvalues --    0.06032   0.06300   0.06598   0.07052   0.07251
 Alpha virt. eigenvalues --    0.07894   0.08169   0.08368   0.08547   0.08928
 Alpha virt. eigenvalues --    0.09551   0.09559   0.10047   0.10883   0.11052
 Alpha virt. eigenvalues --    0.11112   0.12186   0.12245   0.12920   0.12992
 Alpha virt. eigenvalues --    0.13411   0.13522   0.14025   0.14377   0.16269
 Alpha virt. eigenvalues --    0.16298   0.16321   0.17348   0.17628   0.17796
 Alpha virt. eigenvalues --    0.18130   0.19060   0.19231   0.19648   0.19745
 Alpha virt. eigenvalues --    0.21590   0.21592   0.22729   0.23122   0.23572
 Alpha virt. eigenvalues --    0.23760   0.24554   0.25276   0.26921   0.27612
 Alpha virt. eigenvalues --    0.28861   0.29306   0.29880   0.31371   0.35850
 Alpha virt. eigenvalues --    0.36450   0.38180   0.39281   0.41163   0.41404
 Alpha virt. eigenvalues --    0.41991   0.42181   0.42982   0.43700   0.44296
 Alpha virt. eigenvalues --    0.44956   0.45024   0.46105   0.46168   0.47919
 Alpha virt. eigenvalues --    0.48533   0.48887   0.49016   0.50431   0.51222
 Alpha virt. eigenvalues --    0.51639   0.51696   0.52114   0.52931   0.53972
 Alpha virt. eigenvalues --    0.54087   0.54679   0.55683   0.55762   0.57395
 Alpha virt. eigenvalues --    0.58242   0.58814   0.61450   0.62172   0.62350
 Alpha virt. eigenvalues --    0.63224   0.63494   0.65012   0.65159   0.67323
 Alpha virt. eigenvalues --    0.70398   0.70579   0.71036   0.72422   0.72881
 Alpha virt. eigenvalues --    0.75772   0.76019   0.76303   0.76905   0.77095
 Alpha virt. eigenvalues --    0.77849   0.77902   0.78259   0.79869   0.80401
 Alpha virt. eigenvalues --    0.81265   0.81643   0.82129   0.83020   0.85206
 Alpha virt. eigenvalues --    0.87181   0.88211   0.88629   0.89114   0.90420
 Alpha virt. eigenvalues --    0.91126   0.91248   0.93193   0.94642   0.96477
 Alpha virt. eigenvalues --    0.96631   1.00378   1.01309   1.01686   1.02714
 Alpha virt. eigenvalues --    1.03201   1.03882   1.04738   1.05372   1.08788
 Alpha virt. eigenvalues --    1.19570   1.23262   1.24076   1.25303   1.28079
 Alpha virt. eigenvalues --    1.29674   1.31784   1.34267   1.35784   1.36009
 Alpha virt. eigenvalues --    1.39379   1.40180   1.40968   1.42978   1.43483
 Alpha virt. eigenvalues --    1.43541   1.45231   1.45334   1.46380   1.46684
 Alpha virt. eigenvalues --    1.47639   1.48036   1.51772   1.53628   1.55815
 Alpha virt. eigenvalues --    1.55923   1.56356   1.56563   1.57802   1.61479
 Alpha virt. eigenvalues --    1.63205   1.63534   1.63726   1.66135   1.68348
 Alpha virt. eigenvalues --    1.68358   1.68668   1.69714   1.74425   1.76002
 Alpha virt. eigenvalues --    1.77208   1.78049   1.80107   1.80169   1.80726
 Alpha virt. eigenvalues --    1.83191   1.83204   1.83647   1.83808   1.84146
 Alpha virt. eigenvalues --    1.84287   1.85876   1.86066   1.88233   1.91399
 Alpha virt. eigenvalues --    1.92096   1.94148   1.95220   1.97700   1.98173
 Alpha virt. eigenvalues --    1.99767   2.02574   2.04449   2.07258   2.11828
 Alpha virt. eigenvalues --    2.12085   2.14112   2.15217   2.19156   2.21323
 Alpha virt. eigenvalues --    2.22797   2.28564   2.30294   2.34698   2.34978
 Alpha virt. eigenvalues --    2.36221   2.38687   2.39589   2.42390   2.44476
 Alpha virt. eigenvalues --    2.46185   2.46694   2.49392   2.52934   2.53821
 Alpha virt. eigenvalues --    2.54344   2.56712   2.57848   2.58297   2.59658
 Alpha virt. eigenvalues --    2.59822   2.61619   2.62160   2.63557   2.63830
 Alpha virt. eigenvalues --    2.64786   2.65137   2.65239   2.65337   2.68050
 Alpha virt. eigenvalues --    2.68611   2.70972   2.71415   2.73351   2.74828
 Alpha virt. eigenvalues --    2.76302   2.78925   2.79747   2.82969   2.83073
 Alpha virt. eigenvalues --    2.84906   2.86343   2.92134   2.96982   2.99528
 Alpha virt. eigenvalues --    3.00084   3.05320   3.11202   3.11538   3.13093
 Alpha virt. eigenvalues --    3.21119   3.24061   3.26805   3.28267   3.30798
 Alpha virt. eigenvalues --    3.32805   3.33606   3.43412   3.45915   3.46725
 Alpha virt. eigenvalues --    3.48658   3.50229   3.56578   3.65409   3.66994
 Alpha virt. eigenvalues --    3.67461   3.94190   3.94607   3.95126   3.96243
 Alpha virt. eigenvalues --    4.04026   4.06945   4.07560   4.12536   4.35675
 Alpha virt. eigenvalues --    4.61659   4.69897   4.71674  23.45333  23.60591
 Alpha virt. eigenvalues --   23.82312  23.85837  23.88003  23.89369  23.90465
 Alpha virt. eigenvalues --   23.92297  23.97953  23.99687  23.99827  24.00237
 Alpha virt. eigenvalues --   24.10586  24.10681
          Condensed to atoms (all electrons):
               1          2          3          4          5          6
     1  C    8.550621   0.373090  -0.559174   1.909129  -0.013890  -0.094947
     2  C    0.373090   7.097352   0.365613  -1.041680  -0.024018  -0.014859
     3  C   -0.559174   0.365613   6.585319   0.749960  -0.121610   0.016956
     4  C    1.909129  -1.041680   0.749960  10.891714  -0.328254  -0.121598
     5  C   -0.013890  -0.024018  -0.121610  -0.328254  10.891890   0.749945
     6  C   -0.094947  -0.014859   0.016956  -0.121598   0.749945   6.585320
     7  C   -0.022422   0.002861  -0.014859  -0.024029  -1.041636   0.365580
     8  C    0.406265  -0.022402  -0.094945  -0.013963   1.909278  -0.559179
     9  C   -1.224016  -0.786143   0.289096  -0.248779  -0.248564   0.289101
    10  C   -1.253120   0.239306  -0.356309  -2.561428  -2.561437  -0.356249
    11  C    0.269325  -0.933740   1.019004  -0.237165  -1.498114  -0.176969
    12  C   -1.941090   1.313912  -1.377232  -1.515501  -0.326869  -0.200392
    13  C    0.176635  -0.240501  -0.176957  -1.498061  -0.237153   1.018936
    14  C   -1.071636  -0.202467  -0.200397  -0.326704  -1.515937  -1.377170
    15  H    0.365567  -0.104130  -0.001776   0.026709   0.005906   0.001100
    16  H   -0.019493   0.378162  -0.016134   0.013699  -0.001552  -0.000329
    17  H   -0.023525  -0.016809   0.374544  -0.067063   0.000313   0.000396
    18  H    0.049142   0.003001  -0.085044   0.454976   0.007113  -0.005008
    19  H   -0.046852  -0.007586   0.050895  -0.070107  -0.070122   0.050892
    20  H    0.007417   0.001988  -0.005008   0.007111   0.454978  -0.085045
    21  H   -0.001323  -0.000399   0.000396   0.000314  -0.067063   0.374543
    22  H    0.000702   0.000361  -0.000329  -0.001552   0.013703  -0.016137
    23  H    0.005859  -0.002703   0.001101   0.005906   0.026709  -0.001776
    24  H    0.032112   0.014333  -0.001487  -0.012286  -0.012287  -0.001488
    25  H    0.032112   0.014333  -0.001487  -0.012286  -0.012287  -0.001488
               7          8          9         10         11         12
     1  C   -0.022422   0.406265  -1.224016  -1.253120   0.269325  -1.941090
     2  C    0.002861  -0.022402  -0.786143   0.239306  -0.933740   1.313912
     3  C   -0.014859  -0.094945   0.289096  -0.356309   1.019004  -1.377232
     4  C   -0.024029  -0.013963  -0.248779  -2.561428  -0.237165  -1.515501
     5  C   -1.041636   1.909278  -0.248564  -2.561437  -1.498114  -0.326869
     6  C    0.365580  -0.559179   0.289101  -0.356249  -0.176969  -0.200392
     7  C    7.097158   0.373081  -0.786098   0.239257  -0.240406  -0.202431
     8  C    0.373081   8.550486  -1.223782  -1.253146   0.176792  -1.071516
     9  C   -0.786098  -1.223782   9.633356   0.253810   1.704352  -1.976447
    10  C    0.239257  -1.253146   0.253810   9.222295  -0.523011   2.433824
    11  C   -0.240406   0.176792   1.704352  -0.523011  14.594213  -3.815983
    12  C   -0.202431  -1.071516  -1.976447   2.433824  -3.815983  16.057323
    13  C   -0.933645   0.269098   1.704180  -0.522925   1.091011  -4.842505
    14  C    1.313882  -1.941352  -1.976640   2.433975  -4.842340   3.005772
    15  H   -0.002702   0.005859   0.091865  -0.009584  -0.029900  -0.024403
    16  H    0.000361   0.000701   0.004116  -0.009719   0.028477  -0.034902
    17  H   -0.000399  -0.001323  -0.005873   0.020680  -0.028118   0.091210
    18  H    0.001988   0.007416  -0.025297   0.015232  -0.008812  -0.052363
    19  H   -0.007585  -0.046851   0.076200   0.422150   0.077471  -0.065082
    20  H    0.003004   0.049143  -0.025294   0.015227  -0.011752  -0.012915
    21  H   -0.016811  -0.023521  -0.005874   0.020679  -0.006343   0.005292
    22  H    0.378159  -0.019484   0.004121  -0.009720   0.003135  -0.009129
    23  H   -0.104126   0.365574   0.091870  -0.009584   0.001523   0.006677
    24  H    0.014332   0.032107   0.357288   0.005486   0.013320  -0.059742
    25  H    0.014332   0.032107   0.357288   0.005486   0.013320  -0.059742
              13         14         15         16         17         18
     1  C    0.176635  -1.071636   0.365567  -0.019493  -0.023525   0.049142
     2  C   -0.240501  -0.202467  -0.104130   0.378162  -0.016809   0.003001
     3  C   -0.176957  -0.200397  -0.001776  -0.016134   0.374544  -0.085044
     4  C   -1.498061  -0.326704   0.026709   0.013699  -0.067063   0.454976
     5  C   -0.237153  -1.515937   0.005906  -0.001552   0.000313   0.007113
     6  C    1.018936  -1.377170   0.001100  -0.000329   0.000396  -0.005008
     7  C   -0.933645   1.313882  -0.002702   0.000361  -0.000399   0.001988
     8  C    0.269098  -1.941352   0.005859   0.000701  -0.001323   0.007416
     9  C    1.704180  -1.976640   0.091865   0.004116  -0.005873  -0.025297
    10  C   -0.522925   2.433975  -0.009584  -0.009719   0.020680   0.015232
    11  C    1.091011  -4.842340  -0.029900   0.028477  -0.028118  -0.008812
    12  C   -4.842505   3.005772  -0.024403  -0.034902   0.091210  -0.052363
    13  C   14.594720  -3.815905   0.001524   0.003134  -0.006344  -0.011753
    14  C   -3.815905  16.057849   0.006677  -0.009128   0.005292  -0.012911
    15  H    0.001524   0.006677   0.438644  -0.008964   0.001464   0.000194
    16  H    0.003134  -0.009128  -0.008964   0.419289  -0.006641   0.001913
    17  H   -0.006344   0.005292   0.001464  -0.006641   0.422426  -0.010190
    18  H   -0.011753  -0.012911   0.000194   0.001913  -0.010190   0.453165
    19  H    0.077457  -0.065087   0.000298  -0.000533   0.001406  -0.006135
    20  H   -0.008802  -0.052373  -0.000111   0.000015  -0.000142   0.001284
    21  H   -0.028117   0.091210   0.000013  -0.000007   0.000010  -0.000142
    22  H    0.028483  -0.034917  -0.000126   0.000007  -0.000007   0.000015
    23  H   -0.029907  -0.024409   0.000598  -0.000126   0.000013  -0.000111
    24  H    0.013313  -0.059743  -0.000894   0.000628  -0.000141   0.000176
    25  H    0.013313  -0.059743  -0.000894   0.000628  -0.000141   0.000176
              19         20         21         22         23         24
     1  C   -0.046852   0.007417  -0.001323   0.000702   0.005859   0.032112
     2  C   -0.007586   0.001988  -0.000399   0.000361  -0.002703   0.014333
     3  C    0.050895  -0.005008   0.000396  -0.000329   0.001101  -0.001487
     4  C   -0.070107   0.007111   0.000314  -0.001552   0.005906  -0.012286
     5  C   -0.070122   0.454978  -0.067063   0.013703   0.026709  -0.012287
     6  C    0.050892  -0.085045   0.374543  -0.016137  -0.001776  -0.001488
     7  C   -0.007585   0.003004  -0.016811   0.378159  -0.104126   0.014332
     8  C   -0.046851   0.049143  -0.023521  -0.019484   0.365574   0.032107
     9  C    0.076200  -0.025294  -0.005874   0.004121   0.091870   0.357288
    10  C    0.422150   0.015227   0.020679  -0.009720  -0.009584   0.005486
    11  C    0.077471  -0.011752  -0.006343   0.003135   0.001523   0.013320
    12  C   -0.065082  -0.012915   0.005292  -0.009129   0.006677  -0.059742
    13  C    0.077457  -0.008802  -0.028117   0.028483  -0.029907   0.013313
    14  C   -0.065087  -0.052373   0.091210  -0.034917  -0.024409  -0.059743
    15  H    0.000298  -0.000111   0.000013  -0.000126   0.000598  -0.000894
    16  H   -0.000533   0.000015  -0.000007   0.000007  -0.000126   0.000628
    17  H    0.001406  -0.000142   0.000010  -0.000007   0.000013  -0.000141
    18  H   -0.006135   0.001284  -0.000142   0.000015  -0.000111   0.000176
    19  H    0.442622  -0.006136   0.001406  -0.000533   0.000298   0.000612
    20  H   -0.006136   0.453166  -0.010190   0.001913   0.000194   0.000176
    21  H    0.001406  -0.010190   0.422426  -0.006641   0.001464  -0.000141
    22  H   -0.000533   0.001913  -0.006641   0.419288  -0.008964   0.000628
    23  H    0.000298   0.000194   0.001464  -0.008964   0.438644  -0.000894
    24  H    0.000612   0.000176  -0.000141   0.000628  -0.000894   0.494537
    25  H    0.000612   0.000176  -0.000141   0.000628  -0.000894  -0.080465
              25
     1  C    0.032112
     2  C    0.014333
     3  C   -0.001487
     4  C   -0.012286
     5  C   -0.012287
     6  C   -0.001488
     7  C    0.014332
     8  C    0.032107
     9  C    0.357288
    10  C    0.005486
    11  C    0.013320
    12  C   -0.059742
    13  C    0.013313
    14  C   -0.059743
    15  H   -0.000894
    16  H    0.000628
    17  H   -0.000141
    18  H    0.000176
    19  H    0.000612
    20  H    0.000176
    21  H   -0.000141
    22  H    0.000628
    23  H   -0.000894
    24  H   -0.080465
    25  H    0.494537
 Mulliken charges:
               1
     1  C    0.093512
     2  C   -0.406878
     3  C   -0.440137
     4  C    0.020935
     5  C    0.020957
     6  C   -0.440135
     7  C   -0.406847
     8  C    0.093557
     9  C   -0.323836
    10  C    0.098825
    11  C   -0.639290
    12  C    0.674232
    13  C   -0.639232
    14  C    0.674202
    15  H    0.237065
    16  H    0.256397
    17  H    0.248962
    18  H    0.221978
    19  H    0.190290
    20  H    0.221978
    21  H    0.248963
    22  H    0.256397
    23  H    0.237064
    24  H    0.250521
    25  H    0.250521
 Sum of Mulliken charges =   1.00000
 Mulliken charges with hydrogens summed into heavy atoms:
               1
     1  C    0.330577
     2  C   -0.150481
     3  C   -0.191174
     4  C    0.242913
     5  C    0.242935
     6  C   -0.191172
     7  C   -0.150451
     8  C    0.330621
     9  C    0.177205
    10  C    0.289115
    11  C   -0.639290
    12  C    0.674232
    13  C   -0.639232
    14  C    0.674202
 Electronic spatial extent (au):  <R**2>=           2854.6159
 Charge=              1.0000 electrons
 Dipole moment (field-independent basis, Debye):
    X=              0.1843    Y=              0.0000    Z=              0.0000  Tot=              0.1843
 Quadrupole moment (field-independent basis, Debye-Ang):
   XX=            -56.2555   YY=            -31.1405   ZZ=            -84.1412
   XY=             -0.0000   XZ=             -0.0000   YZ=              0.0000
 Traceless Quadrupole moment (field-independent basis, Debye-Ang):
   XX=              0.9235   YY=             26.0386   ZZ=            -26.9621
   XY=             -0.0000   XZ=             -0.0000   YZ=              0.0000
 Octapole moment (field-independent basis, Debye-Ang**2):
  XXX=              5.1718  YYY=              0.0006  ZZZ=              0.0000  XYY=             -5.1724
  XXY=              0.0001  XXZ=              0.0000  XZZ=             -3.0714  YZZ=             -0.0001
  YYZ=              0.0000  XYZ=              0.0000
 Hexadecapole moment (field-independent basis, Debye-Ang**3):
 XXXX=           -608.7848 YYYY=          -2122.0976 ZZZZ=            -99.3193 XXXY=             -0.0014
 XXXZ=             -0.0000 YYYX=             -0.0014 YYYZ=              0.0000 ZZZX=              0.0000
 ZZZY=             -0.0000 XXYY=           -507.4404 XXZZ=           -145.6578 YYZZ=           -590.4694
 XXYZ=             -0.0000 YYXZ=              0.0000 ZZXY=             -0.0004
 N-N= 7.813905036324D+02 E-N=-2.799129194943D+03  KE= 5.375158348857D+02
 Symmetry A'   KE= 5.228686785178D+02
 Symmetry A"   KE= 1.464715636794D+01
 Unable to Open any file for archive entry.
 1\1\GINC-GADI-CPU-CLX-0648\SP\RM062X TD-FC\6-311++G(d,p)\C14H11(1+)\TS
 1578\27-Jul-2022\0\\#n M062X/6-311++G(d,p) TD(NStates=1) EmpiricalDisp
 ersion=GD3 SP\\SP_-50\\1,1\C,0,2.4908,1.3697,0.\C,0,3.70055,0.68105,0.
 \C,0,3.6833,-0.7041,0.\C,0,2.4631,-1.3987,0.\C,0,-2.4631,-1.3987,0.\C,
 0,-3.6833,-0.7041,0.\C,0,-3.70055,0.68105,0.\C,0,-2.4908,1.3697,0.\C,0
 ,0.00005,1.4577,0.\C,0,0.,-1.4203,0.\C,0,1.26195,0.68565,0.\C,0,1.2379
 ,-0.7224,0.\C,0,-1.26195,0.68565,0.\C,0,-1.2379,-0.7224,0.\H,0,2.4859,
 2.45295,0.\H,0,4.63565,1.22115,0.\H,0,4.609,-1.26245,0.\H,0,2.4678,-2.
 48125,0.\H,0,0.,-2.5015,0.\H,0,-2.4678,-2.48125,0.\H,0,-4.609,-1.26245
 ,0.\H,0,-4.63565,1.22115,0.\H,0,-2.4859,2.45295,0.\H,0,0.,2.1535,-0.85
 85\H,0,0.,2.1535,0.8585\\Version=ES64L-G16RevC.01\State=1-A'\HF=-539.7
 601614\RMSD=4.346e-09\PG=CS [SG(C14H9),X(H2)]\\@
 The archive entry for this job was punched.


 ALL MEN WHO EXPLORE
 DEPLORE
 THAT FRUSTRATING HURDLE
 THE GIRDLE.

         -- COLIN FLETCHER
 Job cpu time:       0 days  0 hours 45 minutes 17.6 seconds.
 Elapsed time:       0 days  0 hours  1 minutes 25.5 seconds.
 File lengths (MBytes):  RWF=    460 Int=      0 D2E=      0 Chk=     15 Scr=      1
 Normal termination of Gaussian 16 at Wed Jul 27 10:43:18 2022.
