 Entering Gaussian System, Link 0=g16
 Initial command:
 /apps/gaussian/g16c01/g16/l1.exe "/jobfs/52804872.gadi-pbs/Gau-1713574.inp" -scrdir="/jobfs/52804872.gadi-pbs/"
 Entering Link 1 = /apps/gaussian/g16c01/g16/l1.exe PID=   1713575.
  
 Copyright (c) 1988-2019, Gaussian, Inc.  All Rights Reserved.
  
 This is part of the Gaussian(R) 16 program.  It is based on
 the Gaussian(R) 09 system (copyright 2009, Gaussian, Inc.),
 the Gaussian(R) 03 system (copyright 2003, Gaussian, Inc.),
 the Gaussian(R) 98 system (copyright 1998, Gaussian, Inc.),
 the Gaussian(R) 94 system (copyright 1995, Gaussian, Inc.),
 the Gaussian 92(TM) system (copyright 1992, Gaussian, Inc.),
 the Gaussian 90(TM) system (copyright 1990, Gaussian, Inc.),
 the Gaussian 88(TM) system (copyright 1988, Gaussian, Inc.),
 the Gaussian 86(TM) system (copyright 1986, Carnegie Mellon
 University), and the Gaussian 82(TM) system (copyright 1983,
 Carnegie Mellon University). Gaussian is a federally registered
 trademark of Gaussian, Inc.
  
 This software contains proprietary and confidential information,
 including trade secrets, belonging to Gaussian, Inc.
  
 This software is provided under written license and may be
 used, copied, transmitted, or stored only in accord with that
 written license.
  
 The following legend is applicable only to US Government
 contracts under FAR:
  
                    RESTRICTED RIGHTS LEGEND
  
 Use, reproduction and disclosure by the US Government is
 subject to restrictions as set forth in subparagraphs (a)
 and (c) of the Commercial Computer Software - Restricted
 Rights clause in FAR 52.227-19.
  
 Gaussian, Inc.
 340 Quinnipiac St., Bldg. 40, Wallingford CT 06492
  
  
 ---------------------------------------------------------------
 Warning -- This program may not be used in any manner that
 competes with the business of Gaussian, Inc. or will provide
 assistance to any competitor of Gaussian, Inc.  The licensee
 of this program is prohibited from giving any competitor of
 Gaussian, Inc. access to this program.  By using this program,
 the user acknowledges that Gaussian, Inc. is engaged in the
 business of creating and licensing software in the field of
 computational chemistry and represents and warrants to the
 licensee that it is not a competitor of Gaussian, Inc. and that
 it will not use this program in any manner prohibited above.
 ---------------------------------------------------------------
  

 Cite this work as:
 Gaussian 16, Revision C.01,
 M. J. Frisch, G. W. Trucks, H. B. Schlegel, G. E. Scuseria, 
 M. A. Robb, J. R. Cheeseman, G. Scalmani, V. Barone, 
 G. A. Petersson, H. Nakatsuji, X. Li, M. Caricato, A. V. Marenich, 
 J. Bloino, B. G. Janesko, R. Gomperts, B. Mennucci, H. P. Hratchian, 
 J. V. Ortiz, A. F. Izmaylov, J. L. Sonnenberg, D. Williams-Young, 
 F. Ding, F. Lipparini, F. Egidi, J. Goings, B. Peng, A. Petrone, 
 T. Henderson, D. Ranasinghe, V. G. Zakrzewski, J. Gao, N. Rega, 
 G. Zheng, W. Liang, M. Hada, M. Ehara, K. Toyota, R. Fukuda, 
 J. Hasegawa, M. Ishida, T. Nakajima, Y. Honda, O. Kitao, H. Nakai, 
 T. Vreven, K. Throssell, J. A. Montgomery, Jr., J. E. Peralta, 
 F. Ogliaro, M. J. Bearpark, J. J. Heyd, E. N. Brothers, K. N. Kudin, 
 V. N. Staroverov, T. A. Keith, R. Kobayashi, J. Normand, 
 K. Raghavachari, A. P. Rendell, J. C. Burant, S. S. Iyengar, 
 J. Tomasi, M. Cossi, J. M. Millam, M. Klene, C. Adamo, R. Cammi, 
 J. W. Ochterski, R. L. Martin, K. Morokuma, O. Farkas, 
 J. B. Foresman, and D. J. Fox, Gaussian, Inc., Wallingford CT, 2019.
 
 ******************************************
 Gaussian 16:  ES64L-G16RevC.01  3-Jul-2019
                27-Jul-2022 
 ******************************************
 %NProcShared=32
 Will use up to   32 processors via shared memory.
 %mem = 128GB
 ---------------------------------------------------------------
 #n M062X/6-311++G(d,p) TD(NStates=1) EmpiricalDispersion=GD3 SP
 ---------------------------------------------------------------
 1/38=1,172=1/1;
 2/12=2,17=6,18=5,40=1/2;
 3/5=4,6=6,7=1111,11=9,25=1,30=1,74=-55,124=31/1,2,3,8;
 4//1;
 5/5=2,38=5/2;
 8/6=1,10=2,108=1/1;
 9/41=1,42=1,70=2/14;
 6/7=2,8=2,9=2,10=2/1;
 99/5=1,9=1/99;
 -----
 SP_75
 -----
 Symbolic Z-matrix:
 Charge =  1 Multiplicity = 1
 C                     2.4985    1.3682    0. 
 C                     3.7068    0.68203   0. 
 C                     3.6858   -0.70325   0. 
 C                     2.45943  -1.39688   0. 
 C                    -2.46723  -1.40143   0. 
 C                    -3.6835   -0.70945   0. 
 C                    -3.69858   0.6785    0. 
 C                    -2.49165   1.3685    0. 
 C                     0.00213   1.4676    0. 
 C                    -0.0061   -1.42075   0. 
 C                     1.26138   0.68385   0. 
 C                     1.2345   -0.72143   0. 
 C                    -1.2632    0.68768   0. 
 C                    -1.2395   -0.72203   0. 
 H                     2.4919    2.45138   0. 
 H                     4.6424    1.2209    0. 
 H                     4.60895  -1.26538   0. 
 H                     2.4653   -2.47938   0. 
 H                    -0.00563  -2.50173   0. 
 H                    -2.46895  -2.4838    0. 
 H                    -4.6104   -1.26515   0. 
 H                    -4.63407   1.21803   0. 
 H                    -2.4898    2.4516    0. 
 H                     0.008     2.15575  -0.86098 
 H                     0.008     2.15575   0.86098 
 
                          Input orientation:                          
 ---------------------------------------------------------------------
 Center     Atomic      Atomic             Coordinates (Angstroms)
 Number     Number       Type             X           Y           Z
 ---------------------------------------------------------------------
      1          6           0        2.498500    1.368200    0.000000
      2          6           0        3.706800    0.682025    0.000000
      3          6           0        3.685800   -0.703250    0.000000
      4          6           0        2.459425   -1.396875    0.000000
      5          6           0       -2.467225   -1.401425    0.000000
      6          6           0       -3.683500   -0.709450    0.000000
      7          6           0       -3.698575    0.678500    0.000000
      8          6           0       -2.491650    1.368500    0.000000
      9          6           0        0.002125    1.467600    0.000000
     10          6           0       -0.006100   -1.420750    0.000000
     11          6           0        1.261375    0.683850    0.000000
     12          6           0        1.234500   -0.721425    0.000000
     13          6           0       -1.263200    0.687675    0.000000
     14          6           0       -1.239500   -0.722025    0.000000
     15          1           0        2.491900    2.451375    0.000000
     16          1           0        4.642400    1.220900    0.000000
     17          1           0        4.608950   -1.265375    0.000000
     18          1           0        2.465300   -2.479375    0.000000
     19          1           0       -0.005625   -2.501725    0.000000
     20          1           0       -2.468950   -2.483800    0.000000
     21          1           0       -4.610400   -1.265150    0.000000
     22          1           0       -4.634075    1.218025    0.000000
     23          1           0       -2.489800    2.451600    0.000000
     24          1           0        0.008000    2.155750   -0.860975
     25          1           0        0.008000    2.155750    0.860975
 ---------------------------------------------------------------------
                    Distance matrix (angstroms):
                    1          2          3          4          5
     1  C    0.000000
     2  C    1.389541   0.000000
     3  C    2.387590   1.385434   0.000000
     4  C    2.765351   2.424411   1.408940   0.000000
     5  C    5.685881   6.516084   6.192509   4.926652   0.000000
     6  C    6.521791   7.520155   7.369303   6.181269   1.399341
     7  C    6.235337   7.405376   7.512538   6.498319   2.417087
     8  C    4.990150   6.236348   6.515599   5.671018   2.770033
     9  C    2.498353   3.787050   4.275752   3.774062   3.785366
    10  C    3.748501   4.267000   3.760975   2.465641   2.461201
    11  C    1.413794   2.445426   2.793185   2.400987   4.272099
    12  C    2.442177   2.842875   2.451367   1.398812   3.763664
    13  C    3.822761   4.970003   5.140746   4.266531   2.411227
    14  C    4.282719   5.141716   4.925336   3.759983   1.403172
    15  H    1.083195   2.146295   3.372989   3.848387   6.279888
    16  H    2.148954   1.079691   2.148822   3.408537   7.577820
    17  H    3.374865   2.146216   1.080829   2.153544   7.077483
    18  H    3.847718   3.396435   2.155050   1.082516   5.048938
    19  H    4.609443   4.890640   4.106231   2.701327   2.696319
    20  H    6.285974   6.939909   6.407129   5.046809   1.082376
    21  H    7.580962   8.542090   8.315207   7.071052   2.147503
    22  H    7.134156   8.358079   8.538830   7.560122   3.399523
    23  H    5.104595   6.444319   6.934776   6.269417   3.853091
    24  H    2.750291   4.073606   4.737233   4.401353   4.418315
    25  H    2.750291   4.073606   4.737233   4.401353   4.418315
                    6          7          8          9         10
     6  C    0.000000
     7  C    1.388032   0.000000
     8  C    2.395492   1.390240   0.000000
     9  C    4.280582   3.783895   2.495743   0.000000
    10  C    3.745560   4.247496   3.736024   2.888362   0.000000
    11  C    5.137419   4.959953   3.814963   1.483231   2.456793
    12  C    4.918015   5.127867   4.272234   2.512087   1.424129
    13  C    2.794604   2.435392   1.404497   1.486382   2.454742
    14  C    2.444032   2.829933   2.436837   2.517159   1.417566
    15  H    6.937318   6.439337   5.099842   2.677087   4.607967
    16  H    8.546746   8.358592   7.135577   4.646828   5.346669
    17  H    8.311064   8.531918   7.573362   5.356490   4.617665
    18  H    6.398467   6.925715   6.275149   4.652509   2.688588
    19  H    4.091334   4.873573   4.599887   3.969333   1.080975
    20  H    2.150221   3.392951   3.852367   4.660448   2.682481
    21  H    1.080716   2.146905   3.380120   5.361279   4.606928
    22  H    2.149128   1.079929   2.147703   4.642913   5.327409
    23  H    3.378928   2.145931   1.083102   2.679169   4.600420
    24  H    4.751612   4.081941   2.758494   1.102208   3.678699
    25  H    4.751612   4.081941   2.758494   1.102208   3.678699
                   11         12         13         14         15
    11  C    0.000000
    12  C    1.405532   0.000000
    13  C    2.524578   2.867764   0.000000
    14  C    2.868948   2.474000   1.409899   0.000000
    15  H    2.153680   3.412875   4.148664   4.898348   0.000000
    16  H    3.423412   3.922551   5.929624   6.194490   2.477644
    17  H    3.873724   3.418010   6.188421   5.873636   4.277398
    18  H    3.384587   2.145986   4.892026   4.100466   4.930822
    19  H    3.428291   2.169649   3.428377   2.165590   5.547146
    20  H    4.893805   4.101403   3.392947   2.148348   6.997570
    21  H    6.186788   5.870136   3.875213   3.414374   8.015936
    22  H    5.919601   6.180747   3.412341   3.909851   7.231920
    23  H    4.146837   4.892698   2.148483   3.411033   4.981700
    24  H    2.116298   3.244028   2.124258   3.252556   2.645455
    25  H    2.116298   3.244028   2.124258   3.252556   2.645455
                   16         17         18         19         20
    16  H    0.000000
    17  H    2.486500   0.000000
    18  H    4.293227   2.463540   0.000000
    19  H    5.955004   4.777328   2.471026   0.000000
    20  H    8.018485   7.182007   4.934252   2.463390   0.000000
    21  H    9.580958   9.219350   7.179128   4.767921   2.463923
    22  H    9.276475   9.570830   8.004492   5.937936   4.288505
    23  H    7.237603   8.012999   6.990531   5.541349   4.935444
    24  H    4.805506   5.797768   5.316388   4.736405   5.329351
    25  H    4.805506   5.797768   5.316388   4.736405   5.329351
                   21         22         23         24         25
    21  H    0.000000
    22  H    2.483288   0.000000
    23  H    4.279156   2.473787   0.000000
    24  H    5.811493   4.813467   2.658535   0.000000
    25  H    5.811493   4.813467   2.658535   1.721950   0.000000
 Stoichiometry    C14H11(1+)
 Framework group  CS[SG(C14H9),X(H2)]
 Deg. of freedom    46
 Full point group                 CS      NOp   2
 Largest Abelian subgroup         CS      NOp   2
 Largest concise Abelian subgroup CS      NOp   2
                         Standard orientation:                         
 ---------------------------------------------------------------------
 Center     Atomic      Atomic             Coordinates (Angstroms)
 Number     Number       Type             X           Y           Z
 ---------------------------------------------------------------------
      1          6           0        2.492504   -1.370320    0.000000
      2          6           0        3.703763   -0.689382    0.000000
      3          6           0        3.688759    0.695971    0.000000
      4          6           0        2.465399    1.394899    0.000000
      5          6           0       -2.461186    1.420775    0.000000
      6          6           0       -3.680445    0.734072    0.000000
      7          6           0       -3.701528   -0.653800    0.000000
      8          6           0       -2.497601   -1.349018    0.000000
      9          6           0       -0.004278   -1.458912    0.000000
     10          6           0        0.000000    1.429446    0.000000
     11          6           0        1.258353   -0.680621    0.000000
     12          6           0        1.237561    0.724757    0.000000
     13          6           0       -1.266215   -0.673517    0.000000
     14          6           0       -1.236413    0.736067    0.000000
     15          1           0        2.481215   -2.453456    0.000000
     16          1           0        4.637021   -1.232302    0.000000
     17          1           0        4.614334    1.254095    0.000000
     18          1           0        2.475959    2.477363    0.000000
     19          1           0        0.005154    2.510409    0.000000
     20          1           0       -2.458225    2.503148    0.000000
     21          1           0       -4.604930    1.293779    0.000000
     22          1           0       -4.639355   -1.189270    0.000000
     23          1           0       -2.500440   -2.432116    0.000000
     24          1           0       -0.001382   -2.147081    0.860975
     25          1           0       -0.001382   -2.147081   -0.860975
 ---------------------------------------------------------------------
 Rotational constants (GHZ):           2.1344181           0.4443484           0.3685841
 Standard basis: 6-311++G(d,p) (5D, 7F)
 There are   299 symmetry adapted cartesian basis functions of A'  symmetry.
 There are   100 symmetry adapted cartesian basis functions of A"  symmetry.
 There are   285 symmetry adapted basis functions of A'  symmetry.
 There are   100 symmetry adapted basis functions of A"  symmetry.
   385 basis functions,   603 primitive gaussians,   399 cartesian basis functions
    47 alpha electrons       47 beta electrons
       nuclear repulsion energy       780.9447169146 Hartrees.
 NAtoms=   25 NActive=   25 NUniq=   24 SFac= 1.09D+00 NAtFMM=   60 NAOKFM=F Big=F
 Integral buffers will be    131072 words long.
 Regular integral format.
 Two-electron integral symmetry is turned on.
 Nuclear repulsion after empirical dispersion term =      780.9437373473 Hartrees.
 One-electron integrals computed using PRISM.
 NBasis=   385 RedAO= T EigKep=  1.13D-06  NBF=   285   100
 NBsUse=   379 1.00D-06 EigRej=  8.42D-07 NBFU=   279   100
 ExpMin= 3.60D-02 ExpMax= 4.56D+03 ExpMxC= 6.82D+02 IAcc=3 IRadAn=         5 AccDes= 0.00D+00
 Harris functional with IExCor= 1009 and IRadAn=       5 diagonalized for initial guess.
 HarFok:  IExCor= 1009 AccDes= 0.00D+00 IRadAn=         5 IDoV= 1 UseB2=F ITyADJ=14
 ICtDFT=  3500011 ScaDFX=  1.000000  1.000000  1.000000  1.000000
 FoFCou: FMM=F IPFlag=           0 FMFlag=      100000 FMFlg1=           0
         NFxFlg=           0 DoJE=T BraDBF=F KetDBF=T FulRan=T
         wScrn=  0.000000 ICntrl=       500 IOpCl=  0 I1Cent=   200000004 NGrid=           0
         NMat0=    1 NMatS0=      1 NMatT0=    0 NMatD0=    1 NMtDS0=    0 NMtDT0=    0
 Petite list used in FoFCou.
 Initial guess orbital symmetries:
       Occupied  (A') (A') (A') (A') (A') (A') (A') (A') (A') (A')
                 (A') (A') (A') (A') (A') (A') (A') (A') (A') (A')
                 (A') (A') (A') (A') (A') (A') (A') (A') (A') (A')
                 (A') (A') (A") (A') (A') (A') (A') (A') (A') (A")
                 (A") (A') (A') (A") (A") (A") (A")
       Virtual   (A") (A") (A") (A") (A") (A') (A') (A') (A') (A")
                 (A") (A') (A') (A') (A") (A') (A') (A') (A') (A")
                 (A') (A") (A') (A') (A') (A") (A') (A") (A') (A')
                 (A') (A') (A') (A") (A') (A') (A") (A') (A') (A")
                 (A') (A') (A') (A") (A') (A') (A') (A') (A') (A")
                 (A') (A') (A") (A") (A') (A') (A') (A") (A") (A')
                 (A') (A') (A') (A') (A') (A') (A") (A') (A') (A")
                 (A') (A') (A') (A') (A') (A') (A') (A') (A') (A')
                 (A') (A') (A') (A') (A') (A') (A') (A') (A') (A')
                 (A') (A') (A') (A') (A') (A') (A') (A") (A') (A")
                 (A') (A') (A") (A") (A') (A") (A') (A") (A') (A")
                 (A") (A') (A') (A') (A") (A') (A') (A") (A") (A')
                 (A") (A") (A') (A') (A') (A") (A') (A') (A') (A")
                 (A') (A') (A') (A') (A') (A') (A") (A') (A') (A')
                 (A') (A') (A') (A') (A') (A') (A') (A') (A') (A")
                 (A") (A') (A") (A") (A') (A') (A') (A") (A") (A')
                 (A") (A') (A") (A") (A") (A') (A') (A') (A') (A')
                 (A') (A") (A") (A') (A') (A') (A') (A') (A') (A")
                 (A') (A') (A') (A') (A') (A") (A") (A') (A") (A")
                 (A') (A") (A') (A") (A') (A') (A') (A") (A') (A')
                 (A") (A") (A") (A') (A') (A") (A') (A") (A') (A')
                 (A") (A") (A') (A") (A') (A") (A') (A') (A') (A")
                 (A') (A') (A') (A') (A") (A') (A') (A') (A") (A")
                 (A') (A') (A') (A") (A') (A') (A") (A') (A") (A')
                 (A") (A') (A') (A') (A') (A") (A') (A') (A') (A")
                 (A') (A') (A") (A') (A") (A') (A') (A") (A') (A')
                 (A') (A") (A') (A") (A') (A') (A') (A") (A') (A")
                 (A') (A') (A') (A') (A") (A') (A") (A') (A") (A')
                 (A") (A') (A") (A") (A") (A') (A') (A') (A') (A')
                 (A') (A') (A') (A') (A') (A') (A') (A') (A') (A')
                 (A') (A') (A') (A') (A') (A") (A') (A') (A') (A')
                 (A') (A') (A') (A') (A') (A') (A') (A') (A') (A')
                 (A') (A') (A') (A') (A') (A') (A') (A') (A') (A')
                 (A') (A')
 The electronic state of the initial guess is 1-A'.
 Requested convergence on RMS density matrix=1.00D-08 within 128 cycles.
 Requested convergence on MAX density matrix=1.00D-06.
 Requested convergence on             energy=1.00D-06.
 No special actions if energy rises.
 SCF Done:  E(RM062X) =  -539.760160236     A.U. after   15 cycles
            NFock= 15  Conv=0.46D-08     -V/T= 2.0042
 DoSCS=F DFT=T ScalE2(SS,OS)=  1.000000  1.000000
 ExpMin= 3.60D-02 ExpMax= 4.56D+03 ExpMxC= 6.82D+02 IAcc=3 IRadAn=         5 AccDes= 0.00D+00
 HarFok:  IExCor=  205 AccDes= 0.00D+00 IRadAn=         5 IDoV=-2 UseB2=F ITyADJ=14
 ICtDFT= 12500011 ScaDFX=  1.000000  1.000000  1.000000  1.000000
 Range of M.O.s used for correlation:    15   379
 NBasis=   385 NAE=    47 NBE=    47 NFC=    14 NFV=     0
 NROrb=    365 NOA=    33 NOB=    33 NVA=   332 NVB=   332

 **** Warning!!: The largest alpha MO coefficient is  0.15038327D+03

 Orbital symmetries:
       Occupied  (A') (A') (A') (A') (A') (A') (A') (A') (A') (A')
                 (A') (A') (A') (A') (A') (A') (A') (A') (A') (A')
                 (A') (A') (A') (A') (A') (A') (A') (A') (A') (A')
                 (A') (A') (A") (A') (A') (A') (A') (A") (A") (A')
                 (A') (A') (A') (A") (A") (A") (A")
       Virtual   (A") (A") (A") (A") (A') (A') (A') (A') (A") (A')
                 (A') (A") (A') (A') (A") (A') (A") (A') (A') (A')
                 (A") (A") (A') (A') (A') (A") (A') (A") (A') (A')
                 (A") (A') (A") (A') (A') (A') (A') (A') (A") (A')
                 (A") (A') (A') (A") (A") (A') (A") (A') (A") (A')
                 (A') (A') (A') (A') (A') (A") (A') (A') (A') (A')
                 (A') (A") (A') (A') (A') (A') (A") (A') (A') (A')
                 (A') (A') (A') (A') (A') (A') (A') (A') (A') (A')
                 (A') (A') (A') (A') (A') (A') (A') (A') (A') (A')
                 (A') (A') (A') (A') (A") (A') (A") (A") (A') (A")
                 (A') (A') (A') (A') (A") (A") (A') (A") (A") (A')
                 (A') (A') (A") (A') (A') (A") (A') (A") (A') (A")
                 (A") (A') (A") (A') (A') (A') (A") (A') (A') (A')
                 (A') (A') (A') (A') (A') (A') (A') (A') (A') (A')
                 (A') (A') (A') (A") (A') (A') (A') (A') (A') (A')
                 (A') (A') (A") (A') (A") (A') (A") (A") (A') (A")
                 (A") (A') (A') (A") (A") (A") (A') (A") (A') (A')
                 (A') (A') (A') (A") (A") (A') (A') (A') (A') (A")
                 (A') (A') (A') (A") (A') (A") (A') (A') (A") (A")
                 (A") (A') (A') (A") (A") (A') (A') (A') (A') (A')
                 (A") (A") (A") (A') (A') (A") (A') (A") (A') (A')
                 (A') (A") (A') (A") (A") (A') (A") (A') (A') (A")
                 (A') (A') (A') (A') (A") (A') (A') (A') (A") (A")
                 (A') (A') (A') (A") (A') (A') (A') (A") (A") (A')
                 (A") (A') (A') (A") (A') (A') (A') (A') (A') (A')
                 (A") (A') (A') (A') (A') (A") (A") (A") (A') (A')
                 (A') (A') (A') (A') (A') (A') (A") (A') (A') (A')
                 (A') (A") (A') (A") (A") (A") (A') (A") (A') (A")
                 (A') (A") (A") (A') (A") (A") (A') (A') (A') (A')
                 (A') (A') (A') (A') (A') (A') (A') (A') (A') (A')
                 (A') (A') (A') (A") (A') (A') (A') (A') (A') (A')
                 (A') (A') (A') (A') (A') (A') (A') (A') (A') (A')
                 (A') (A') (A') (A') (A') (A') (A') (A') (A') (A')
                 (A') (A')
     4 initial guesses have been made.
 Convergence on wavefunction:    0.001000000000000
 Iteration     1 Dimension     4 NMult     0 NNew      4
 CISAX will form     4 AO SS matrices at one time.
 Iteration     2 Dimension     6 NMult     4 NNew      2
 Iteration     3 Dimension     8 NMult     6 NNew      2
 Iteration     4 Dimension    10 NMult     8 NNew      2
 Iteration     5 Dimension    12 NMult    10 NNew      2
 Iteration     6 Dimension    14 NMult    12 NNew      2
 ***********************************************************************
 Excited states from <AA,BB:AA,BB> singles matrix:
 ***********************************************************************
 
 Ground to excited state transition densities written to RWF  633
 Ground to excited state transition electric dipole moments (Au):
       state          X           Y           Z        Dip. S.      Osc.
         1         0.0031     -0.6379     -0.0000      0.4069      0.0281
 Ground to excited state transition velocity dipole moments (Au):
       state          X           Y           Z        Dip. S.      Osc.
         1         0.0005      0.0738      0.0000      0.0054      0.0350
 Ground to excited state transition magnetic dipole moments (Au):
       state          X           Y           Z
         1         0.0000     -0.0000      0.0471
 Ground to excited state transition velocity quadrupole moments (Au):
       state          XX          YY          ZZ          XY          XZ          YZ
         1         0.2972      0.0350     -0.0098      0.0182     -0.0000      0.0000
 <0|del|b> * <b|rxdel|0> + <0|del|b> * <b|delr+rdel|0>
 Rotatory Strengths (R) in cgs (10**-40 erg-esu-cm/Gauss)
       state          XX          YY          ZZ    R(velocity)    E-M Angle
         1         0.0000      0.0000     -0.0000     -0.0000       90.00
 1/2[<0|r|b>*<b|rxdel|0> + (<0|rxdel|b>*<b|r|0>)*]
 Rotatory Strengths (R) in cgs (10**-40 erg-esu-cm/Gauss)
       state          XX          YY          ZZ     R(length)
         1        -0.0000     -0.0000      0.0000     -0.0000
  1/2[<0|del|b>*<b|r|0> + (<0|r|b>*<b|del|0>)*] (Au)
       state          X           Y           Z        Dip. S.   Osc.(frdel)
         1         0.0000     -0.0471     -0.0000      0.0471      0.0314

 Excitation energies and oscillator strengths:
 
 Excited State   1:      Singlet-A'     2.8195 eV  439.74 nm  f=0.0281  <S**2>=0.000
      47 -> 48         0.70422
 This state for optimization and/or second-order correction.
 Total Energy, E(TD-HF/TD-DFT) =  -539.656545317    
 Copying the excited state density for this state as the 1-particle RhoCI density.
 SavETr:  write IOETrn=   770 NScale= 10 NData=  16 NLR=1 NState=    1 LETran=      28.

 **********************************************************************

            Population analysis using the SCF Density.

 **********************************************************************

 Orbital symmetries:
       Occupied  (A') (A') (A') (A') (A') (A') (A') (A') (A') (A')
                 (A') (A') (A') (A') (A') (A') (A') (A') (A') (A')
                 (A') (A') (A') (A') (A') (A') (A') (A') (A') (A')
                 (A') (A') (A") (A') (A') (A') (A') (A") (A") (A')
                 (A') (A') (A') (A") (A") (A") (A")
       Virtual   (A") (A") (A") (A") (A') (A') (A') (A') (A") (A')
                 (A') (A") (A') (A') (A") (A') (A") (A') (A') (A')
                 (A") (A") (A') (A') (A') (A") (A') (A") (A') (A')
                 (A") (A') (A") (A') (A') (A') (A') (A') (A") (A')
                 (A") (A') (A') (A") (A") (A') (A") (A') (A") (A')
                 (A') (A') (A') (A') (A') (A") (A') (A') (A') (A')
                 (A') (A") (A') (A') (A') (A') (A") (A') (A') (A')
                 (A') (A') (A') (A') (A') (A') (A') (A') (A') (A')
                 (A') (A') (A') (A') (A') (A') (A') (A') (A') (A')
                 (A') (A') (A') (A') (A") (A') (A") (A") (A') (A")
                 (A') (A') (A') (A') (A") (A") (A') (A") (A") (A')
                 (A') (A') (A") (A') (A') (A") (A') (A") (A') (A")
                 (A") (A') (A") (A') (A') (A') (A") (A') (A') (A')
                 (A') (A') (A') (A') (A') (A') (A') (A') (A') (A')
                 (A') (A') (A') (A") (A') (A') (A') (A') (A') (A')
                 (A') (A') (A") (A') (A") (A') (A") (A") (A') (A")
                 (A") (A') (A') (A") (A") (A") (A') (A") (A') (A')
                 (A') (A') (A') (A") (A") (A') (A') (A') (A') (A")
                 (A') (A') (A') (A") (A') (A") (A') (A') (A") (A")
                 (A") (A') (A') (A") (A") (A') (A') (A') (A') (A')
                 (A") (A") (A") (A') (A') (A") (A') (A") (A') (A')
                 (A') (A") (A') (A") (A") (A') (A") (A') (A') (A")
                 (A') (A') (A') (A') (A") (A') (A') (A') (A") (A")
                 (A') (A') (A') (A") (A') (A') (A') (A") (A") (A')
                 (A") (A') (A') (A") (A') (A') (A') (A') (A') (A')
                 (A") (A') (A') (A') (A') (A") (A") (A") (A') (A')
                 (A') (A') (A') (A') (A') (A') (A") (A') (A') (A')
                 (A') (A") (A') (A") (A") (A") (A') (A") (A') (A")
                 (A') (A") (A") (A') (A") (A") (A') (A') (A') (A')
                 (A') (A') (A') (A') (A') (A') (A') (A') (A') (A')
                 (A') (A') (A') (A") (A') (A') (A') (A') (A') (A')
                 (A') (A') (A') (A') (A') (A') (A') (A') (A') (A')
                 (A') (A') (A') (A') (A') (A') (A') (A') (A') (A')
                 (A') (A')
 The electronic state is 1-A'.
 Alpha  occ. eigenvalues --  -10.77677 -10.73346 -10.73201 -10.72505 -10.72388
 Alpha  occ. eigenvalues --  -10.71441 -10.71303 -10.71128 -10.70998 -10.70871
 Alpha  occ. eigenvalues --  -10.70006 -10.69940 -10.69680 -10.69598  -1.16412
 Alpha  occ. eigenvalues --   -1.12445  -1.06945  -1.05678  -1.01313  -1.00151
 Alpha  occ. eigenvalues --   -0.95782  -0.91042  -0.86415  -0.85889  -0.83807
 Alpha  occ. eigenvalues --   -0.78392  -0.75999  -0.74414  -0.69579  -0.69239
 Alpha  occ. eigenvalues --   -0.68489  -0.68178  -0.68111  -0.64744  -0.64269
 Alpha  occ. eigenvalues --   -0.63009  -0.61859  -0.60054  -0.59651  -0.59099
 Alpha  occ. eigenvalues --   -0.56882  -0.55226  -0.54807  -0.52442  -0.46620
 Alpha  occ. eigenvalues --   -0.46060  -0.44503
 Alpha virt. eigenvalues --   -0.26101  -0.14666  -0.14098  -0.12776  -0.11177
 Alpha virt. eigenvalues --   -0.10082  -0.09231  -0.07982  -0.07976  -0.07475
 Alpha virt. eigenvalues --   -0.07199  -0.07143  -0.05645  -0.05579  -0.05330
 Alpha virt. eigenvalues --   -0.03827  -0.03645  -0.03278  -0.03136  -0.02167
 Alpha virt. eigenvalues --   -0.01365  -0.00929   0.00197   0.00592   0.00643
 Alpha virt. eigenvalues --    0.01054   0.01515   0.01946   0.02214   0.02297
 Alpha virt. eigenvalues --    0.02449   0.02667   0.02743   0.03352   0.03380
 Alpha virt. eigenvalues --    0.04242   0.04500   0.04699   0.05034   0.05366
 Alpha virt. eigenvalues --    0.06037   0.06290   0.06594   0.07033   0.07260
 Alpha virt. eigenvalues --    0.07890   0.08157   0.08355   0.08526   0.08928
 Alpha virt. eigenvalues --    0.09540   0.09559   0.10027   0.10853   0.10997
 Alpha virt. eigenvalues --    0.11122   0.12159   0.12238   0.12904   0.12957
 Alpha virt. eigenvalues --    0.13405   0.13525   0.14006   0.14388   0.16174
 Alpha virt. eigenvalues --    0.16288   0.16399   0.17344   0.17616   0.17796
 Alpha virt. eigenvalues --    0.18112   0.19089   0.19243   0.19621   0.19722
 Alpha virt. eigenvalues --    0.21524   0.21581   0.22716   0.23093   0.23545
 Alpha virt. eigenvalues --    0.23854   0.24600   0.25408   0.26918   0.27594
 Alpha virt. eigenvalues --    0.28828   0.29281   0.29834   0.31343   0.35778
 Alpha virt. eigenvalues --    0.36403   0.38187   0.39272   0.41147   0.41405
 Alpha virt. eigenvalues --    0.41935   0.42222   0.42985   0.43650   0.44291
 Alpha virt. eigenvalues --    0.44959   0.45013   0.46090   0.46156   0.47982
 Alpha virt. eigenvalues --    0.48523   0.48840   0.49038   0.50416   0.51070
 Alpha virt. eigenvalues --    0.51504   0.51669   0.52117   0.52872   0.53968
 Alpha virt. eigenvalues --    0.54092   0.54615   0.55684   0.55759   0.57567
 Alpha virt. eigenvalues --    0.58238   0.58810   0.61430   0.62223   0.62336
 Alpha virt. eigenvalues --    0.63199   0.63487   0.64908   0.65144   0.67177
 Alpha virt. eigenvalues --    0.70437   0.70634   0.71000   0.72394   0.72856
 Alpha virt. eigenvalues --    0.75784   0.76009   0.76268   0.76900   0.77087
 Alpha virt. eigenvalues --    0.77832   0.77844   0.78208   0.79899   0.80385
 Alpha virt. eigenvalues --    0.81217   0.81673   0.82144   0.83003   0.85155
 Alpha virt. eigenvalues --    0.87136   0.88132   0.88565   0.89134   0.90394
 Alpha virt. eigenvalues --    0.91026   0.91268   0.93189   0.94613   0.96424
 Alpha virt. eigenvalues --    0.96649   1.00412   1.01258   1.01698   1.02704
 Alpha virt. eigenvalues --    1.03190   1.03794   1.04732   1.05456   1.08742
 Alpha virt. eigenvalues --    1.19533   1.23283   1.24023   1.25213   1.27917
 Alpha virt. eigenvalues --    1.29739   1.31722   1.34360   1.35742   1.35994
 Alpha virt. eigenvalues --    1.39314   1.40138   1.40924   1.43071   1.43424
 Alpha virt. eigenvalues --    1.43512   1.45020   1.45448   1.46344   1.46667
 Alpha virt. eigenvalues --    1.47638   1.47984   1.51669   1.53610   1.55586
 Alpha virt. eigenvalues --    1.55832   1.56332   1.56592   1.57742   1.61393
 Alpha virt. eigenvalues --    1.63270   1.63523   1.63795   1.66078   1.68241
 Alpha virt. eigenvalues --    1.68358   1.68722   1.69756   1.74341   1.75963
 Alpha virt. eigenvalues --    1.77121   1.78048   1.79899   1.80093   1.80678
 Alpha virt. eigenvalues --    1.83125   1.83217   1.83566   1.83832   1.84191
 Alpha virt. eigenvalues --    1.84256   1.85866   1.86057   1.88207   1.91365
 Alpha virt. eigenvalues --    1.92036   1.94103   1.95160   1.97674   1.98124
 Alpha virt. eigenvalues --    1.99700   2.02237   2.04350   2.07257   2.11791
 Alpha virt. eigenvalues --    2.12012   2.14100   2.15224   2.19033   2.21150
 Alpha virt. eigenvalues --    2.22785   2.28692   2.29981   2.34575   2.34910
 Alpha virt. eigenvalues --    2.36219   2.38680   2.39588   2.42339   2.44917
 Alpha virt. eigenvalues --    2.46137   2.46275   2.49327   2.52869   2.53780
 Alpha virt. eigenvalues --    2.54103   2.56884   2.57830   2.58302   2.59617
 Alpha virt. eigenvalues --    2.59810   2.61576   2.62108   2.63511   2.63748
 Alpha virt. eigenvalues --    2.64770   2.65083   2.65219   2.65303   2.67825
 Alpha virt. eigenvalues --    2.68445   2.70935   2.71411   2.73334   2.74805
 Alpha virt. eigenvalues --    2.76304   2.78593   2.79690   2.82714   2.83038
 Alpha virt. eigenvalues --    2.84848   2.86222   2.92080   2.97031   2.99487
 Alpha virt. eigenvalues --    3.00024   3.04833   3.10889   3.11309   3.13027
 Alpha virt. eigenvalues --    3.20843   3.23204   3.26596   3.28153   3.30726
 Alpha virt. eigenvalues --    3.32798   3.33569   3.43418   3.45898   3.46400
 Alpha virt. eigenvalues --    3.48366   3.50014   3.56353   3.66458   3.66638
 Alpha virt. eigenvalues --    3.67386   3.94183   3.94565   3.95195   3.96180
 Alpha virt. eigenvalues --    4.03989   4.06844   4.07403   4.12556   4.35318
 Alpha virt. eigenvalues --    4.60972   4.69730   4.71574  23.45346  23.60435
 Alpha virt. eigenvalues --   23.82115  23.85178  23.87690  23.89155  23.90590
 Alpha virt. eigenvalues --   23.92365  23.97461  23.99240  23.99893  24.00475
 Alpha virt. eigenvalues --   24.10508  24.10654
          Condensed to atoms (all electrons):
               1          2          3          4          5          6
     1  C    8.693987   0.211818  -0.509008   2.100516  -0.054353  -0.097921
     2  C    0.211818   7.185084   0.329069  -1.134774  -0.007633  -0.014008
     3  C   -0.509008   0.329069   6.591190   0.785182  -0.128835   0.016955
     4  C    2.100516  -1.134774   0.785182  11.091704  -0.407565  -0.124891
     5  C   -0.054353  -0.007633  -0.128835  -0.407565  11.208497   0.769485
     6  C   -0.097921  -0.014008   0.016955  -0.124891   0.769485   6.592515
     7  C   -0.011199   0.000128  -0.014291  -0.015170  -1.105220   0.353976
     8  C    0.402248  -0.015626  -0.095056  -0.042214   2.028493  -0.546492
     9  C   -1.103757  -0.816112   0.299627  -0.215708  -0.152398   0.299758
    10  C   -1.327497   0.272491  -0.361140  -2.563408  -2.620632  -0.337017
    11  C    0.324398  -0.903107   1.015493  -0.308319  -1.521341  -0.179465
    12  C   -2.301705   1.444436  -1.431375  -1.700561  -0.356621  -0.186751
    13  C    0.254910  -0.251080  -0.163355  -1.496261  -0.309475   0.984076
    14  C   -1.083625  -0.172800  -0.210572  -0.323524  -1.701121  -1.407914
    15  H    0.369606  -0.108538  -0.000635   0.028454   0.005394   0.001087
    16  H   -0.018895   0.379270  -0.016690   0.012999  -0.001504  -0.000325
    17  H   -0.027301  -0.014876   0.374321  -0.068593   0.000344   0.000402
    18  H    0.051880   0.002752  -0.084551   0.460234   0.005450  -0.005188
    19  H   -0.047015  -0.007805   0.051712  -0.068194  -0.070913   0.051638
    20  H    0.007024   0.002119  -0.005153   0.005452   0.461968  -0.084463
    21  H   -0.001322  -0.000398   0.000406   0.000298  -0.069116   0.376203
    22  H    0.000782   0.000376  -0.000333  -0.001556   0.013970  -0.018015
    23  H    0.005422  -0.002652   0.001123   0.005660   0.027789  -0.001269
    24  H    0.033081   0.014424  -0.001634  -0.012263  -0.011996  -0.001565
    25  H    0.033081   0.014424  -0.001634  -0.012263  -0.011996  -0.001565
               7          8          9         10         11         12
     1  C   -0.011199   0.402248  -1.103757  -1.327497   0.324398  -2.301705
     2  C    0.000128  -0.015626  -0.816112   0.272491  -0.903107   1.444436
     3  C   -0.014291  -0.095056   0.299627  -0.361140   1.015493  -1.431375
     4  C   -0.015170  -0.042214  -0.215708  -2.563408  -0.308319  -1.700561
     5  C   -1.105220   2.028493  -0.152398  -2.620632  -1.521341  -0.356621
     6  C    0.353976  -0.546492   0.299758  -0.337017  -0.179465  -0.186751
     7  C    7.184063   0.286141  -0.827921   0.246091  -0.237992  -0.203395
     8  C    0.286141   8.606503  -1.106457  -1.301367   0.242131  -1.096550
     9  C   -0.827921  -1.106457   9.546798   0.265574   1.497909  -1.858726
    10  C    0.246091  -1.301367   0.265574   9.089494  -0.387516   2.429850
    11  C   -0.237992   0.242131   1.497909  -0.387516  14.351350  -3.670253
    12  C   -0.203395  -1.096550  -1.858726   2.429850  -3.670253  16.042838
    13  C   -0.875310   0.329227   1.518301  -0.364341   1.105419  -4.766419
    14  C    1.345903  -2.189913  -1.911891   2.418407  -4.751156   3.178033
    15  H   -0.002567   0.005677   0.091516  -0.009833  -0.030937  -0.026372
    16  H    0.000364   0.000693   0.002900  -0.008897   0.025023  -0.031712
    17  H   -0.000405  -0.001297  -0.005663   0.020280  -0.026701   0.093702
    18  H    0.002108   0.007016  -0.024629   0.010768  -0.004590  -0.058294
    19  H   -0.007931  -0.046376   0.075035   0.421691   0.077894  -0.062848
    20  H    0.002997   0.050921  -0.024141   0.009737  -0.012004  -0.015991
    21  H   -0.016980  -0.025496  -0.005432   0.020242  -0.006250   0.005317
    22  H    0.380601  -0.019401   0.002579  -0.009235   0.003077  -0.009240
    23  H   -0.108216   0.369102   0.090439  -0.009359   0.000762   0.006598
    24  H    0.014847   0.034452   0.354935   0.005118   0.012214  -0.060538
    25  H    0.014847   0.034452   0.354935   0.005118   0.012214  -0.060538
              13         14         15         16         17         18
     1  C    0.254910  -1.083625   0.369606  -0.018895  -0.027301   0.051880
     2  C   -0.251080  -0.172800  -0.108538   0.379270  -0.014876   0.002752
     3  C   -0.163355  -0.210572  -0.000635  -0.016690   0.374321  -0.084551
     4  C   -1.496261  -0.323524   0.028454   0.012999  -0.068593   0.460234
     5  C   -0.309475  -1.701121   0.005394  -0.001504   0.000344   0.005450
     6  C    0.984076  -1.407914   0.001087  -0.000325   0.000402  -0.005188
     7  C   -0.875310   1.345903  -0.002567   0.000364  -0.000405   0.002108
     8  C    0.329227  -2.189913   0.005677   0.000693  -0.001297   0.007016
     9  C    1.518301  -1.911891   0.091516   0.002900  -0.005663  -0.024629
    10  C   -0.364341   2.418407  -0.009833  -0.008897   0.020280   0.010768
    11  C    1.105419  -4.751156  -0.030937   0.025023  -0.026701  -0.004590
    12  C   -4.766419   3.178033  -0.026372  -0.031712   0.093702  -0.058294
    13  C   14.388423  -3.776590   0.002254   0.002941  -0.006239  -0.011957
    14  C   -3.776590  16.101772   0.006184  -0.008851   0.005330  -0.014172
    15  H    0.002254   0.006184   0.440191  -0.009078   0.001442   0.000139
    16  H    0.002941  -0.008851  -0.009078   0.420109  -0.006544   0.001929
    17  H   -0.006239   0.005330   0.001442  -0.006544   0.422815  -0.010377
    18  H   -0.011957  -0.014172   0.000139   0.001929  -0.010377   0.454900
    19  H    0.077194  -0.068471   0.000308  -0.000540   0.001391  -0.006382
    20  H   -0.005492  -0.055792  -0.000112   0.000015  -0.000141   0.001247
    21  H   -0.026457   0.092065   0.000014  -0.000007   0.000010  -0.000148
    22  H    0.024868  -0.031242  -0.000128   0.000008  -0.000007   0.000016
    23  H   -0.030325  -0.023068   0.000555  -0.000127   0.000015  -0.000116
    24  H    0.015375  -0.060467  -0.000920   0.000635  -0.000144   0.000194
    25  H    0.015375  -0.060467  -0.000920   0.000635  -0.000144   0.000194
              19         20         21         22         23         24
     1  C   -0.047015   0.007024  -0.001322   0.000782   0.005422   0.033081
     2  C   -0.007805   0.002119  -0.000398   0.000376  -0.002652   0.014424
     3  C    0.051712  -0.005153   0.000406  -0.000333   0.001123  -0.001634
     4  C   -0.068194   0.005452   0.000298  -0.001556   0.005660  -0.012263
     5  C   -0.070913   0.461968  -0.069116   0.013970   0.027789  -0.011996
     6  C    0.051638  -0.084463   0.376203  -0.018015  -0.001269  -0.001565
     7  C   -0.007931   0.002997  -0.016980   0.380601  -0.108216   0.014847
     8  C   -0.046376   0.050921  -0.025496  -0.019401   0.369102   0.034452
     9  C    0.075035  -0.024141  -0.005432   0.002579   0.090439   0.354935
    10  C    0.421691   0.009737   0.020242  -0.009235  -0.009359   0.005118
    11  C    0.077894  -0.012004  -0.006250   0.003077   0.000762   0.012214
    12  C   -0.062848  -0.015991   0.005317  -0.009240   0.006598  -0.060538
    13  C    0.077194  -0.005492  -0.026457   0.024868  -0.030325   0.015375
    14  C   -0.068471  -0.055792   0.092065  -0.031242  -0.023068  -0.060467
    15  H    0.000308  -0.000112   0.000014  -0.000128   0.000555  -0.000920
    16  H   -0.000540   0.000015  -0.000007   0.000008  -0.000127   0.000635
    17  H    0.001391  -0.000141   0.000010  -0.000007   0.000015  -0.000144
    18  H   -0.006382   0.001247  -0.000148   0.000016  -0.000116   0.000194
    19  H    0.442896  -0.006227   0.001475  -0.000558   0.000334   0.000572
    20  H   -0.006227   0.453411  -0.010333   0.001940   0.000165   0.000182
    21  H    0.001475  -0.010333   0.422116  -0.006703   0.001505  -0.000142
    22  H   -0.000558   0.001940  -0.006703   0.419222  -0.009076   0.000634
    23  H    0.000334   0.000165   0.001505  -0.009076   0.438734  -0.000929
    24  H    0.000572   0.000182  -0.000142   0.000634  -0.000929   0.493101
    25  H    0.000572   0.000182  -0.000142   0.000634  -0.000929  -0.078634
              25
     1  C    0.033081
     2  C    0.014424
     3  C   -0.001634
     4  C   -0.012263
     5  C   -0.011996
     6  C   -0.001565
     7  C    0.014847
     8  C    0.034452
     9  C    0.354935
    10  C    0.005118
    11  C    0.012214
    12  C   -0.060538
    13  C    0.015375
    14  C   -0.060467
    15  H   -0.000920
    16  H    0.000635
    17  H   -0.000144
    18  H    0.000194
    19  H    0.000572
    20  H    0.000182
    21  H   -0.000142
    22  H    0.000634
    23  H   -0.000929
    24  H   -0.078634
    25  H    0.493101
 Mulliken charges:
               1
     1  C    0.094845
     2  C   -0.406984
     3  C   -0.440815
     4  C    0.004764
     5  C    0.009329
     6  C   -0.439246
     7  C   -0.405470
     8  C    0.089191
     9  C   -0.347472
    10  C    0.085379
    11  C   -0.628253
    12  C    0.697114
    13  C   -0.635061
    14  C    0.703941
    15  H    0.237221
    16  H    0.255651
    17  H    0.248382
    18  H    0.221578
    19  H    0.190547
    20  H    0.222488
    21  H    0.249276
    22  H    0.256787
    23  H    0.237865
    24  H    0.249471
    25  H    0.249471
 Sum of Mulliken charges =   1.00000
 Mulliken charges with hydrogens summed into heavy atoms:
               1
     1  C    0.332066
     2  C   -0.151333
     3  C   -0.192433
     4  C    0.226343
     5  C    0.231817
     6  C   -0.189970
     7  C   -0.148683
     8  C    0.327055
     9  C    0.151470
    10  C    0.275927
    11  C   -0.628253
    12  C    0.697114
    13  C   -0.635061
    14  C    0.703941
 Electronic spatial extent (au):  <R**2>=           2857.6518
 Charge=              1.0000 electrons
 Dipole moment (field-independent basis, Debye):
    X=             -0.1393    Y=              0.1927    Z=              0.0000  Tot=              0.2378
 Quadrupole moment (field-independent basis, Debye-Ang):
   XX=            -31.0882   YY=            -56.2693   ZZ=            -84.1431
   XY=             -0.1768   XZ=              0.0000   YZ=              0.0000
 Traceless Quadrupole moment (field-independent basis, Debye-Ang):
   XX=             26.0787   YY=              0.8976   ZZ=            -26.9762
   XY=             -0.1768   XZ=              0.0000   YZ=              0.0000
 Octapole moment (field-independent basis, Debye-Ang**2):
  XXX=             -1.5175  YYY=              5.2691  ZZZ=              0.0000  XYY=             -0.2843
  XXY=             -5.1775  XXZ=              0.0000  XZZ=             -0.2169  YZZ=             -3.1099
  YYZ=              0.0000  XYZ=              0.0000
 Hexadecapole moment (field-independent basis, Debye-Ang**3):
 XXXX=          -2123.0124 YYYY=           -609.8714 ZZZZ=            -99.3435 XXXY=              3.1159
 XXXZ=              0.0000 YYYX=              4.8826 YYYZ=             -0.0000 ZZZX=             -0.0000
 ZZZY=             -0.0000 XXYY=           -508.0598 XXZZ=           -591.1217 YYZZ=           -145.7756
 XXYZ=             -0.0000 YYXZ=             -0.0000 ZZXY=              2.3825
 N-N= 7.809437373473D+02 E-N=-2.798220716090D+03  KE= 5.374925327389D+02
 Symmetry A'   KE= 5.228452703280D+02
 Symmetry A"   KE= 1.464726241096D+01
 Unable to Open any file for archive entry.
 1\1\GINC-GADI-CPU-CLX-0648\SP\RM062X TD-FC\6-311++G(d,p)\C14H11(1+)\TS
 1578\27-Jul-2022\0\\#n M062X/6-311++G(d,p) TD(NStates=1) EmpiricalDisp
 ersion=GD3 SP\\SP_75\\1,1\C,0,2.4985,1.3682,0.\C,0,3.7068,0.682025,0.\
 C,0,3.6858,-0.70325,0.\C,0,2.459425,-1.396875,0.\C,0,-2.467225,-1.4014
 25,0.\C,0,-3.6835,-0.70945,0.\C,0,-3.698575,0.6785,0.\C,0,-2.49165,1.3
 685,0.\C,0,0.002125,1.4676,0.\C,0,-0.0061,-1.42075,0.\C,0,1.261375,0.6
 8385,0.\C,0,1.2345,-0.721425,0.\C,0,-1.2632,0.687675,0.\C,0,-1.2395,-0
 .722025,0.\H,0,2.4919,2.451375,0.\H,0,4.6424,1.2209,0.\H,0,4.60895,-1.
 265375,0.\H,0,2.4653,-2.479375,0.\H,0,-0.005625,-2.501725,0.\H,0,-2.46
 895,-2.4838,0.\H,0,-4.6104,-1.26515,0.\H,0,-4.634075,1.218025,0.\H,0,-
 2.4898,2.4516,0.\H,0,0.008,2.15575,-0.860975\H,0,0.008,2.15575,0.86097
 5\\Version=ES64L-G16RevC.01\State=1-A'\HF=-539.7601602\RMSD=4.609e-09\
 PG=CS [SG(C14H9),X(H2)]\\@
 The archive entry for this job was punched.


 A MAN IS NEVER SO BRILLIANT AS WHEN HE TAKES THE WORDS RIGHT OUT
 OF YOUR MOUTH. -- ARNOT SHEPPARD, JR.
 Job cpu time:       0 days  0 hours 46 minutes 55.0 seconds.
 Elapsed time:       0 days  0 hours  1 minutes 33.5 seconds.
 File lengths (MBytes):  RWF=    460 Int=      0 D2E=      0 Chk=     15 Scr=      1
 Normal termination of Gaussian 16 at Wed Jul 27 12:08:38 2022.
