 Entering Gaussian System, Link 0=g16
 Initial command:
 /apps/gaussian/g16c01/g16/l1.exe "/jobfs/52804872.gadi-pbs/Gau-1425694.inp" -scrdir="/jobfs/52804872.gadi-pbs/"
 Entering Link 1 = /apps/gaussian/g16c01/g16/l1.exe PID=   1425695.
  
 Copyright (c) 1988-2019, Gaussian, Inc.  All Rights Reserved.
  
 This is part of the Gaussian(R) 16 program.  It is based on
 the Gaussian(R) 09 system (copyright 2009, Gaussian, Inc.),
 the Gaussian(R) 03 system (copyright 2003, Gaussian, Inc.),
 the Gaussian(R) 98 system (copyright 1998, Gaussian, Inc.),
 the Gaussian(R) 94 system (copyright 1995, Gaussian, Inc.),
 the Gaussian 92(TM) system (copyright 1992, Gaussian, Inc.),
 the Gaussian 90(TM) system (copyright 1990, Gaussian, Inc.),
 the Gaussian 88(TM) system (copyright 1988, Gaussian, Inc.),
 the Gaussian 86(TM) system (copyright 1986, Carnegie Mellon
 University), and the Gaussian 82(TM) system (copyright 1983,
 Carnegie Mellon University). Gaussian is a federally registered
 trademark of Gaussian, Inc.
  
 This software contains proprietary and confidential information,
 including trade secrets, belonging to Gaussian, Inc.
  
 This software is provided under written license and may be
 used, copied, transmitted, or stored only in accord with that
 written license.
  
 The following legend is applicable only to US Government
 contracts under FAR:
  
                    RESTRICTED RIGHTS LEGEND
  
 Use, reproduction and disclosure by the US Government is
 subject to restrictions as set forth in subparagraphs (a)
 and (c) of the Commercial Computer Software - Restricted
 Rights clause in FAR 52.227-19.
  
 Gaussian, Inc.
 340 Quinnipiac St., Bldg. 40, Wallingford CT 06492
  
  
 ---------------------------------------------------------------
 Warning -- This program may not be used in any manner that
 competes with the business of Gaussian, Inc. or will provide
 assistance to any competitor of Gaussian, Inc.  The licensee
 of this program is prohibited from giving any competitor of
 Gaussian, Inc. access to this program.  By using this program,
 the user acknowledges that Gaussian, Inc. is engaged in the
 business of creating and licensing software in the field of
 computational chemistry and represents and warrants to the
 licensee that it is not a competitor of Gaussian, Inc. and that
 it will not use this program in any manner prohibited above.
 ---------------------------------------------------------------
  

 Cite this work as:
 Gaussian 16, Revision C.01,
 M. J. Frisch, G. W. Trucks, H. B. Schlegel, G. E. Scuseria, 
 M. A. Robb, J. R. Cheeseman, G. Scalmani, V. Barone, 
 G. A. Petersson, H. Nakatsuji, X. Li, M. Caricato, A. V. Marenich, 
 J. Bloino, B. G. Janesko, R. Gomperts, B. Mennucci, H. P. Hratchian, 
 J. V. Ortiz, A. F. Izmaylov, J. L. Sonnenberg, D. Williams-Young, 
 F. Ding, F. Lipparini, F. Egidi, J. Goings, B. Peng, A. Petrone, 
 T. Henderson, D. Ranasinghe, V. G. Zakrzewski, J. Gao, N. Rega, 
 G. Zheng, W. Liang, M. Hada, M. Ehara, K. Toyota, R. Fukuda, 
 J. Hasegawa, M. Ishida, T. Nakajima, Y. Honda, O. Kitao, H. Nakai, 
 T. Vreven, K. Throssell, J. A. Montgomery, Jr., J. E. Peralta, 
 F. Ogliaro, M. J. Bearpark, J. J. Heyd, E. N. Brothers, K. N. Kudin, 
 V. N. Staroverov, T. A. Keith, R. Kobayashi, J. Normand, 
 K. Raghavachari, A. P. Rendell, J. C. Burant, S. S. Iyengar, 
 J. Tomasi, M. Cossi, J. M. Millam, M. Klene, C. Adamo, R. Cammi, 
 J. W. Ochterski, R. L. Martin, K. Morokuma, O. Farkas, 
 J. B. Foresman, and D. J. Fox, Gaussian, Inc., Wallingford CT, 2019.
 
 ******************************************
 Gaussian 16:  ES64L-G16RevC.01  3-Jul-2019
                27-Jul-2022 
 ******************************************
 %NProcShared=32
 Will use up to   32 processors via shared memory.
 %mem = 128GB
 ---------------------------------------------------------------
 #n M062X/6-311++G(d,p) TD(NStates=1) EmpiricalDispersion=GD3 SP
 ---------------------------------------------------------------
 1/38=1,172=1/1;
 2/12=2,17=6,18=5,40=1/2;
 3/5=4,6=6,7=1111,11=9,25=1,30=1,74=-55,124=31/1,2,3,8;
 4//1;
 5/5=2,38=5/2;
 8/6=1,10=2,108=1/1;
 9/41=1,42=1,70=2/14;
 6/7=2,8=2,9=2,10=2/1;
 99/5=1,9=1/99;
 ------
 SP_-25
 ------
 Symbolic Z-matrix:
 Charge =  1 Multiplicity = 1
 C                     2.4829    1.3694    0. 
 C                     3.6894    0.67533   0. 
 C                     3.6806   -0.71465   0. 
 C                     2.47493  -1.40578   0. 
 C                    -2.45153  -1.39213   0. 
 C                    -3.6875   -0.69605   0. 
 C                    -3.71408   0.6859    0. 
 C                    -2.50345   1.3685    0. 
 C                    -0.00658   1.4632    0. 
 C                     0.0183   -1.42055   0. 
 C                     1.26487   0.69145   0. 
 C                     1.2449   -0.72293   0. 
 C                    -1.2594    0.67998   0. 
 C                    -1.2299   -0.72113   0. 
 H                     2.4855    2.45248   0. 
 H                     4.6246    1.2159    0. 
 H                     4.61155  -1.26368   0. 
 H                     2.4729   -2.48808   0. 
 H                     0.01688  -2.50163   0. 
 H                    -2.46195  -2.4748    0. 
 H                    -4.6072   -1.26435   0. 
 H                    -4.64958   1.22453   0. 
 H                    -2.4918    2.4518    0. 
 H                    -0.024     2.15475  -0.85988 
 H                    -0.024     2.15475   0.85988 
 
                          Input orientation:                          
 ---------------------------------------------------------------------
 Center     Atomic      Atomic             Coordinates (Angstroms)
 Number     Number       Type             X           Y           Z
 ---------------------------------------------------------------------
      1          6           0        2.482900    1.369400    0.000000
      2          6           0        3.689400    0.675325    0.000000
      3          6           0        3.680600   -0.714650    0.000000
      4          6           0        2.474925   -1.405775    0.000000
      5          6           0       -2.451525   -1.392125    0.000000
      6          6           0       -3.687500   -0.696050    0.000000
      7          6           0       -3.714075    0.685900    0.000000
      8          6           0       -2.503450    1.368500    0.000000
      9          6           0       -0.006575    1.463200    0.000000
     10          6           0        0.018300   -1.420550    0.000000
     11          6           0        1.264875    0.691450    0.000000
     12          6           0        1.244900   -0.722925    0.000000
     13          6           0       -1.259400    0.679975    0.000000
     14          6           0       -1.229900   -0.721125    0.000000
     15          1           0        2.485500    2.452475    0.000000
     16          1           0        4.624600    1.215900    0.000000
     17          1           0        4.611550   -1.263675    0.000000
     18          1           0        2.472900   -2.488075    0.000000
     19          1           0        0.016875   -2.501625    0.000000
     20          1           0       -2.461950   -2.474800    0.000000
     21          1           0       -4.607200   -1.264350    0.000000
     22          1           0       -4.649575    1.224525    0.000000
     23          1           0       -2.491800    2.451800    0.000000
     24          1           0       -0.024000    2.154750   -0.859875
     25          1           0       -0.024000    2.154750    0.859875
 ---------------------------------------------------------------------
                    Distance matrix (angstroms):
                    1          2          3          4          5
     1  C    0.000000
     2  C    1.391899   0.000000
     3  C    2.403695   1.390003   0.000000
     4  C    2.775186   2.409549   1.389714   0.000000
     5  C    5.654606   6.479607   6.169435   4.926469   0.000000
     6  C    6.506913   7.503287   7.368123   6.203160   1.418504
     7  C    6.234555   7.403483   7.526138   6.532903   2.431506
     8  C    4.986350   6.231523   6.525488   5.699195   2.761113
     9  C    2.491242   3.779018   4.282323   3.793265   3.759077
    10  C    3.722643   4.227253   3.729710   2.456669   2.469989
    11  C    1.393987   2.424579   2.795147   2.421275   4.260624
    12  C    2.431145   2.816147   2.435714   1.406857   3.756513
    13  C    3.805275   4.948802   5.133087   4.277328   2.390557
    14  C    4.260889   5.113667   4.910504   3.767555   1.393775
    15  H    1.083078   2.146541   3.385106   3.858264   6.257409
    16  H    2.147194   1.080195   2.148990   3.390322   7.541441
    17  H    3.385888   2.147110   1.080785   2.141345   7.064243
    18  H    3.857488   3.389244   2.145594   1.082302   5.044905
    19  H    4.589784   4.855971   4.076292   2.691263   2.706287
    20  H    6.263339   6.911034   6.389761   5.051292   1.082725
    21  H    7.563475   8.520323   8.306010   7.083537   2.159459
    22  H    7.133946   8.357040   8.552907   7.594536   3.417350
    23  H    5.091093   6.431415   6.937213   6.288819   3.844136
    24  H    2.764183   4.088695   4.764127   4.434112   4.383216
    25  H    2.764183   4.088695   4.764127   4.434112   4.383216
                    6          7          8          9         10
     6  C    0.000000
     7  C    1.382205   0.000000
     8  C    2.379988   1.389804   0.000000
     9  C    4.267502   3.788107   2.498670   0.000000
    10  C    3.775957   4.285762   3.760056   2.883857   0.000000
    11  C    5.143071   4.978953   3.828664   1.487341   2.452446
    12  C    4.932473   5.155213   4.292340   2.518994   1.411109
    13  C    2.790898   2.454682   1.421874   1.477502   2.458602
    14  C    2.457728   2.854968   2.447133   2.503557   1.430803
    15  H    6.929584   6.446357   5.105352   2.681250   4.592102
    16  H    8.529159   8.355501   7.129683   4.637773   5.307435
    17  H    8.318439   8.550841   7.586275   5.363108   4.595928
    18  H    6.415753   6.953616   6.295811   4.664801   2.676690
    19  H    4.120982   4.907169   4.618431   3.964894   1.081076
    20  H    2.160075   3.399683   3.843524   4.640766   2.695011
    21  H    1.081117   2.145029   3.370113   5.348390   4.628137
    22  H    2.148068   1.079480   2.150949   4.649131   5.365210
    23  H    3.367292   2.147640   1.083363   2.674635   4.614726
    24  H    4.720983   4.063688   2.739570   1.103599   3.677492
    25  H    4.720983   4.063688   2.739570   1.103599   3.677492
                   11         12         13         14         15
    11  C    0.000000
    12  C    1.414516   0.000000
    13  C    2.524301   2.870479   0.000000
    14  C    2.866927   2.474801   1.401411   0.000000
    15  H    2.142693   3.409143   4.143191   4.886301   0.000000
    16  H    3.400412   3.896333   5.908356   6.166623   2.470803
    17  H    3.875919   3.409801   6.184321   5.866592   4.281339
    18  H    3.401280   2.150288   4.895570   4.102784   4.940566
    19  H    3.428299   2.161439   3.428040   2.173621   5.535090
    20  H    4.890231   4.099976   3.376201   2.143204   6.982500
    21  H    6.189218   5.877092   3.871455   3.420709   8.007570
    22  H    5.938425   6.207850   3.433631   3.934429   7.239969
    23  H    4.148667   4.903244   2.158280   3.414651   4.977300
    24  H    2.131157   3.260446   2.107264   3.234847   2.669385
    25  H    2.131157   3.260446   2.107264   3.234847   2.669385
                   16         17         18         19         20
    16  H    0.000000
    17  H    2.479609   0.000000
    18  H    4.283602   2.464342   0.000000
    19  H    5.920399   4.758525   2.456062   0.000000
    20  H    7.990022   7.176435   4.934868   2.478970   0.000000
    21  H    9.559172   9.218750   7.185076   4.786744   2.463186
    22  H    9.274179   9.589556   8.032002   5.971595   4.297756
    23  H    7.222922   8.016379   7.003614   5.552465   4.926690
    24  H    4.819783   5.823516   5.341322   4.735281   5.302426
    25  H    4.819783   5.823516   5.341322   4.735281   5.302426
                   21         22         23         24         25
    21  H    0.000000
    22  H    2.489236   0.000000
    23  H    4.276060   2.482377   0.000000
    24  H    5.782331   4.795899   2.630145   0.000000
    25  H    5.782331   4.795899   2.630145   1.719750   0.000000
 Stoichiometry    C14H11(1+)
 Framework group  CS[SG(C14H9),X(H2)]
 Deg. of freedom    46
 Full point group                 CS      NOp   2
 Largest Abelian subgroup         CS      NOp   2
 Largest concise Abelian subgroup CS      NOp   2
                         Standard orientation:                         
 ---------------------------------------------------------------------
 Center     Atomic      Atomic             Coordinates (Angstroms)
 Number     Number       Type             X           Y           Z
 ---------------------------------------------------------------------
      1          6           0       -2.368954   -1.551055    0.000000
      2          6           0       -2.324091   -2.942231    0.000000
      3          6           0       -1.093405   -3.588388    0.000000
      4          6           0        0.083677   -2.849616    0.000000
      5          6           0        2.389312    1.504019    0.000000
      6          6           0        2.356552    2.922145    0.000000
      7          6           0        1.149589    3.595743    0.000000
      8          6           0       -0.022299    2.848593    0.000000
      9          6           0       -1.280535    0.689845    0.000000
     10          6           0        1.252450   -0.688784    0.000000
     11          6           0       -1.197687   -0.795187    0.000000
     12          6           0        0.059788   -1.442963    0.000000
     13          6           0        0.000000    1.426893    0.000000
     14          6           0        1.222485    0.741705    0.000000
     15          1           0       -3.325907   -1.043810    0.000000
     16          1           0       -3.241078   -3.513156    0.000000
     17          1           0       -1.046904   -4.668172    0.000000
     18          1           0        1.039676   -3.357005    0.000000
     19          1           0        2.207086   -1.196126    0.000000
     20          1           0        3.349594    1.003867    0.000000
     21          1           0        3.290712    3.466349    0.000000
     22          1           0        1.114406    4.674649    0.000000
     23          1           0       -0.983709    3.347958    0.000000
     24          1           0       -1.882578    1.030565    0.859875
     25          1           0       -1.882578    1.030565   -0.859875
 ---------------------------------------------------------------------
 Rotational constants (GHZ):           2.1359146           0.4445531           0.3687675
 Standard basis: 6-311++G(d,p) (5D, 7F)
 There are   299 symmetry adapted cartesian basis functions of A'  symmetry.
 There are   100 symmetry adapted cartesian basis functions of A"  symmetry.
 There are   285 symmetry adapted basis functions of A'  symmetry.
 There are   100 symmetry adapted basis functions of A"  symmetry.
   385 basis functions,   603 primitive gaussians,   399 cartesian basis functions
    47 alpha electrons       47 beta electrons
       nuclear repulsion energy       781.1504367749 Hartrees.
 NAtoms=   25 NActive=   25 NUniq=   24 SFac= 1.09D+00 NAtFMM=   60 NAOKFM=F Big=F
 Integral buffers will be    131072 words long.
 Regular integral format.
 Two-electron integral symmetry is turned on.
 Nuclear repulsion after empirical dispersion term =      781.1494573263 Hartrees.
 One-electron integrals computed using PRISM.
 NBasis=   385 RedAO= T EigKep=  1.12D-06  NBF=   285   100
 NBsUse=   379 1.00D-06 EigRej=  8.39D-07 NBFU=   279   100
 ExpMin= 3.60D-02 ExpMax= 4.56D+03 ExpMxC= 6.82D+02 IAcc=3 IRadAn=         5 AccDes= 0.00D+00
 Harris functional with IExCor= 1009 and IRadAn=       5 diagonalized for initial guess.
 HarFok:  IExCor= 1009 AccDes= 0.00D+00 IRadAn=         5 IDoV= 1 UseB2=F ITyADJ=14
 ICtDFT=  3500011 ScaDFX=  1.000000  1.000000  1.000000  1.000000
 FoFCou: FMM=F IPFlag=           0 FMFlag=      100000 FMFlg1=           0
         NFxFlg=           0 DoJE=T BraDBF=F KetDBF=T FulRan=T
         wScrn=  0.000000 ICntrl=       500 IOpCl=  0 I1Cent=   200000004 NGrid=           0
         NMat0=    1 NMatS0=      1 NMatT0=    0 NMatD0=    1 NMtDS0=    0 NMtDT0=    0
 Petite list used in FoFCou.
 Initial guess orbital symmetries:
       Occupied  (A') (A') (A') (A') (A') (A') (A') (A') (A') (A')
                 (A') (A') (A') (A') (A') (A') (A') (A') (A') (A')
                 (A') (A') (A') (A') (A') (A') (A') (A') (A') (A')
                 (A') (A') (A") (A') (A') (A') (A') (A') (A') (A")
                 (A") (A') (A') (A") (A") (A") (A")
       Virtual   (A") (A") (A") (A") (A") (A') (A') (A') (A') (A")
                 (A") (A') (A') (A') (A") (A') (A') (A') (A') (A")
                 (A') (A") (A') (A') (A') (A") (A') (A") (A') (A')
                 (A') (A') (A') (A") (A') (A') (A") (A') (A') (A")
                 (A') (A') (A') (A") (A') (A') (A') (A') (A') (A")
                 (A') (A') (A") (A") (A') (A') (A') (A") (A") (A')
                 (A') (A') (A') (A') (A') (A') (A") (A') (A') (A")
                 (A') (A') (A') (A') (A') (A') (A') (A') (A') (A')
                 (A') (A') (A') (A') (A') (A') (A') (A') (A') (A')
                 (A') (A') (A') (A') (A') (A') (A') (A") (A') (A")
                 (A') (A') (A") (A") (A') (A") (A') (A") (A') (A")
                 (A") (A') (A') (A') (A") (A') (A') (A") (A") (A')
                 (A") (A") (A') (A') (A') (A") (A') (A') (A') (A")
                 (A') (A') (A') (A') (A') (A') (A") (A') (A') (A')
                 (A') (A') (A') (A') (A') (A') (A') (A') (A') (A")
                 (A") (A') (A") (A") (A') (A') (A') (A") (A") (A')
                 (A") (A') (A") (A") (A") (A') (A') (A') (A') (A')
                 (A') (A") (A") (A') (A') (A') (A') (A') (A') (A")
                 (A') (A') (A') (A') (A') (A") (A") (A') (A") (A")
                 (A') (A") (A') (A") (A') (A') (A') (A") (A') (A')
                 (A") (A") (A") (A') (A') (A") (A') (A") (A') (A')
                 (A") (A") (A') (A") (A') (A") (A') (A') (A') (A")
                 (A') (A') (A') (A') (A") (A') (A') (A') (A") (A")
                 (A') (A') (A') (A") (A') (A') (A") (A') (A") (A')
                 (A") (A') (A') (A') (A') (A") (A') (A') (A') (A")
                 (A') (A') (A") (A') (A") (A') (A') (A") (A') (A')
                 (A') (A") (A') (A") (A') (A') (A') (A") (A') (A")
                 (A') (A') (A') (A') (A") (A') (A") (A') (A") (A')
                 (A") (A') (A") (A") (A") (A') (A') (A') (A') (A')
                 (A') (A') (A') (A') (A') (A') (A') (A') (A') (A')
                 (A') (A') (A') (A') (A') (A") (A') (A') (A') (A')
                 (A') (A') (A') (A') (A') (A') (A') (A') (A') (A')
                 (A') (A') (A') (A') (A') (A') (A') (A') (A') (A')
                 (A') (A')
 The electronic state of the initial guess is 1-A'.
 Requested convergence on RMS density matrix=1.00D-08 within 128 cycles.
 Requested convergence on MAX density matrix=1.00D-06.
 Requested convergence on             energy=1.00D-06.
 No special actions if energy rises.
 SCF Done:  E(RM062X) =  -539.759246064     A.U. after   15 cycles
            NFock= 15  Conv=0.66D-08     -V/T= 2.0042
 DoSCS=F DFT=T ScalE2(SS,OS)=  1.000000  1.000000
 ExpMin= 3.60D-02 ExpMax= 4.56D+03 ExpMxC= 6.82D+02 IAcc=3 IRadAn=         5 AccDes= 0.00D+00
 HarFok:  IExCor=  205 AccDes= 0.00D+00 IRadAn=         5 IDoV=-2 UseB2=F ITyADJ=14
 ICtDFT= 12500011 ScaDFX=  1.000000  1.000000  1.000000  1.000000
 Range of M.O.s used for correlation:    15   379
 NBasis=   385 NAE=    47 NBE=    47 NFC=    14 NFV=     0
 NROrb=    365 NOA=    33 NOB=    33 NVA=   332 NVB=   332

 **** Warning!!: The largest alpha MO coefficient is  0.13979358D+03

 Orbital symmetries:
       Occupied  (A') (A') (A') (A') (A') (A') (A') (A') (A') (A')
                 (A') (A') (A') (A') (A') (A') (A') (A') (A') (A')
                 (A') (A') (A') (A') (A') (A') (A') (A') (A') (A')
                 (A') (A') (A") (A') (A') (A') (A') (A") (A") (A')
                 (A') (A') (A') (A") (A") (A") (A")
       Virtual   (A") (A") (A") (A") (A') (A') (A') (A') (A") (A')
                 (A') (A") (A') (A') (A") (A') (A") (A') (A') (A')
                 (A") (A") (A') (A') (A') (A") (A') (A") (A') (A')
                 (A") (A') (A") (A') (A') (A') (A') (A') (A") (A')
                 (A") (A') (A') (A") (A") (A') (A") (A') (A") (A')
                 (A') (A') (A') (A') (A') (A") (A') (A') (A') (A')
                 (A') (A") (A') (A') (A') (A") (A') (A') (A') (A')
                 (A') (A') (A') (A') (A') (A') (A') (A') (A') (A')
                 (A') (A') (A') (A') (A') (A') (A') (A') (A') (A')
                 (A') (A') (A') (A') (A") (A') (A") (A") (A') (A")
                 (A') (A') (A') (A') (A") (A") (A') (A") (A") (A')
                 (A') (A') (A") (A') (A') (A") (A') (A") (A') (A")
                 (A") (A') (A") (A') (A') (A') (A") (A') (A') (A')
                 (A') (A') (A') (A') (A') (A') (A') (A') (A') (A')
                 (A') (A') (A') (A") (A') (A') (A') (A') (A') (A')
                 (A') (A') (A") (A') (A") (A') (A") (A") (A') (A")
                 (A") (A') (A') (A") (A") (A") (A') (A") (A') (A')
                 (A') (A') (A') (A") (A") (A') (A') (A') (A') (A")
                 (A') (A') (A') (A") (A') (A") (A') (A') (A") (A")
                 (A") (A') (A') (A") (A") (A') (A') (A') (A') (A')
                 (A") (A") (A") (A') (A') (A") (A') (A") (A') (A')
                 (A') (A") (A') (A") (A") (A') (A") (A') (A') (A")
                 (A') (A') (A') (A') (A") (A') (A') (A') (A") (A")
                 (A') (A') (A') (A") (A') (A') (A') (A") (A") (A')
                 (A") (A') (A') (A") (A') (A') (A') (A') (A') (A')
                 (A") (A') (A') (A') (A') (A") (A") (A") (A') (A')
                 (A') (A') (A') (A') (A') (A') (A") (A') (A') (A')
                 (A') (A") (A') (A") (A") (A") (A') (A") (A') (A")
                 (A') (A") (A") (A') (A") (A") (A') (A') (A') (A')
                 (A') (A') (A') (A') (A') (A') (A') (A') (A') (A')
                 (A') (A') (A') (A") (A') (A') (A') (A') (A') (A')
                 (A') (A') (A') (A') (A') (A') (A') (A') (A') (A')
                 (A') (A') (A') (A') (A') (A') (A') (A') (A') (A')
                 (A') (A')
     4 initial guesses have been made.
 Convergence on wavefunction:    0.001000000000000
 Iteration     1 Dimension     4 NMult     0 NNew      4
 CISAX will form     4 AO SS matrices at one time.
 Iteration     2 Dimension     6 NMult     4 NNew      2
 Iteration     3 Dimension     8 NMult     6 NNew      2
 Iteration     4 Dimension    10 NMult     8 NNew      2
 Iteration     5 Dimension    12 NMult    10 NNew      2
 Iteration     6 Dimension    14 NMult    12 NNew      2
 ***********************************************************************
 Excited states from <AA,BB:AA,BB> singles matrix:
 ***********************************************************************
 
 Ground to excited state transition densities written to RWF  633
 Ground to excited state transition electric dipole moments (Au):
       state          X           Y           Z        Dip. S.      Osc.
         1        -0.5365      0.3068     -0.0000      0.3819      0.0261
 Ground to excited state transition velocity dipole moments (Au):
       state          X           Y           Z        Dip. S.      Osc.
         1         0.0626     -0.0332      0.0000      0.0050      0.0326
 Ground to excited state transition magnetic dipole moments (Au):
       state          X           Y           Z
         1         0.0000     -0.0000     -0.1185
 Ground to excited state transition velocity quadrupole moments (Au):
       state          XX          YY          ZZ          XY          XZ          YZ
         1         0.1300      0.1855     -0.0094      0.1321     -0.0000      0.0000
 <0|del|b> * <b|rxdel|0> + <0|del|b> * <b|delr+rdel|0>
 Rotatory Strengths (R) in cgs (10**-40 erg-esu-cm/Gauss)
       state          XX          YY          ZZ    R(velocity)    E-M Angle
         1         0.0000     -0.0000      0.0000      0.0000       90.00
 1/2[<0|r|b>*<b|rxdel|0> + (<0|rxdel|b>*<b|r|0>)*]
 Rotatory Strengths (R) in cgs (10**-40 erg-esu-cm/Gauss)
       state          XX          YY          ZZ     R(length)
         1         0.0000      0.0000     -0.0000      0.0000
  1/2[<0|del|b>*<b|r|0> + (<0|r|b>*<b|del|0>)*] (Au)
       state          X           Y           Z        Dip. S.   Osc.(frdel)
         1        -0.0336     -0.0102     -0.0000      0.0438      0.0292

 Excitation energies and oscillator strengths:
 
 Excited State   1:      Singlet-A'     2.7920 eV  444.07 nm  f=0.0261  <S**2>=0.000
      47 -> 48         0.70396
 This state for optimization and/or second-order correction.
 Total Energy, E(TD-HF/TD-DFT) =  -539.656642682    
 Copying the excited state density for this state as the 1-particle RhoCI density.
 SavETr:  write IOETrn=   770 NScale= 10 NData=  16 NLR=1 NState=    1 LETran=      28.

 **********************************************************************

            Population analysis using the SCF Density.

 **********************************************************************

 Orbital symmetries:
       Occupied  (A') (A') (A') (A') (A') (A') (A') (A') (A') (A')
                 (A') (A') (A') (A') (A') (A') (A') (A') (A') (A')
                 (A') (A') (A') (A') (A') (A') (A') (A') (A') (A')
                 (A') (A') (A") (A') (A') (A') (A') (A") (A") (A')
                 (A') (A') (A') (A") (A") (A") (A")
       Virtual   (A") (A") (A") (A") (A') (A') (A') (A') (A") (A')
                 (A') (A") (A') (A') (A") (A') (A") (A') (A') (A')
                 (A") (A") (A') (A') (A') (A") (A') (A") (A') (A')
                 (A") (A') (A") (A') (A') (A') (A') (A') (A") (A')
                 (A") (A') (A') (A") (A") (A') (A") (A') (A") (A')
                 (A') (A') (A') (A') (A') (A") (A') (A') (A') (A')
                 (A') (A") (A') (A') (A') (A") (A') (A') (A') (A')
                 (A') (A') (A') (A') (A') (A') (A') (A') (A') (A')
                 (A') (A') (A') (A') (A') (A') (A') (A') (A') (A')
                 (A') (A') (A') (A') (A") (A') (A") (A") (A') (A")
                 (A') (A') (A') (A') (A") (A") (A') (A") (A") (A')
                 (A') (A') (A") (A') (A') (A") (A') (A") (A') (A")
                 (A") (A') (A") (A') (A') (A') (A") (A') (A') (A')
                 (A') (A') (A') (A') (A') (A') (A') (A') (A') (A')
                 (A') (A') (A') (A") (A') (A') (A') (A') (A') (A')
                 (A') (A') (A") (A') (A") (A') (A") (A") (A') (A")
                 (A") (A') (A') (A") (A") (A") (A') (A") (A') (A')
                 (A') (A') (A') (A") (A") (A') (A') (A') (A') (A")
                 (A') (A') (A') (A") (A') (A") (A') (A') (A") (A")
                 (A") (A') (A') (A") (A") (A') (A') (A') (A') (A')
                 (A") (A") (A") (A') (A') (A") (A') (A") (A') (A')
                 (A') (A") (A') (A") (A") (A') (A") (A') (A') (A")
                 (A') (A') (A') (A') (A") (A') (A') (A') (A") (A")
                 (A') (A') (A') (A") (A') (A') (A') (A") (A") (A')
                 (A") (A') (A') (A") (A') (A') (A') (A') (A') (A')
                 (A") (A') (A') (A') (A') (A") (A") (A") (A') (A')
                 (A') (A') (A') (A') (A') (A') (A") (A') (A') (A')
                 (A') (A") (A') (A") (A") (A") (A') (A") (A') (A")
                 (A') (A") (A") (A') (A") (A") (A') (A') (A') (A')
                 (A') (A') (A') (A') (A') (A') (A') (A') (A') (A')
                 (A') (A') (A') (A") (A') (A') (A') (A') (A') (A')
                 (A') (A') (A') (A') (A') (A') (A') (A') (A') (A')
                 (A') (A') (A') (A') (A') (A') (A') (A') (A') (A')
                 (A') (A')
 The electronic state is 1-A'.
 Alpha  occ. eigenvalues --  -10.77657 -10.73462 -10.73028 -10.72607 -10.72257
 Alpha  occ. eigenvalues --  -10.71572 -10.71395 -10.71160 -10.70984 -10.70623
 Alpha  occ. eigenvalues --  -10.70070 -10.69874 -10.69754 -10.69509  -1.16451
 Alpha  occ. eigenvalues --   -1.12463  -1.06944  -1.05737  -1.01309  -1.00215
 Alpha  occ. eigenvalues --   -0.95747  -0.91049  -0.86422  -0.85897  -0.83809
 Alpha  occ. eigenvalues --   -0.78387  -0.76040  -0.74409  -0.69602  -0.69256
 Alpha  occ. eigenvalues --   -0.68468  -0.68169  -0.68101  -0.64842  -0.64266
 Alpha  occ. eigenvalues --   -0.62990  -0.61823  -0.60126  -0.59565  -0.59104
 Alpha  occ. eigenvalues --   -0.56903  -0.55233  -0.54780  -0.52439  -0.46742
 Alpha  occ. eigenvalues --   -0.46078  -0.44368
 Alpha virt. eigenvalues --   -0.26093  -0.14668  -0.14094  -0.12773  -0.11180
 Alpha virt. eigenvalues --   -0.10087  -0.09235  -0.07979  -0.07964  -0.07477
 Alpha virt. eigenvalues --   -0.07203  -0.07143  -0.05644  -0.05580  -0.05335
 Alpha virt. eigenvalues --   -0.03831  -0.03649  -0.03278  -0.03133  -0.02164
 Alpha virt. eigenvalues --   -0.01364  -0.00934   0.00192   0.00593   0.00656
 Alpha virt. eigenvalues --    0.01059   0.01512   0.01940   0.02204   0.02294
 Alpha virt. eigenvalues --    0.02450   0.02670   0.02753   0.03302   0.03395
 Alpha virt. eigenvalues --    0.04238   0.04503   0.04701   0.05033   0.05369
 Alpha virt. eigenvalues --    0.06032   0.06294   0.06593   0.07044   0.07258
 Alpha virt. eigenvalues --    0.07894   0.08147   0.08359   0.08554   0.08925
 Alpha virt. eigenvalues --    0.09530   0.09571   0.10026   0.10859   0.11014
 Alpha virt. eigenvalues --    0.11119   0.12157   0.12246   0.12861   0.12994
 Alpha virt. eigenvalues --    0.13420   0.13525   0.14009   0.14374   0.16115
 Alpha virt. eigenvalues --    0.16365   0.16368   0.17342   0.17598   0.17798
 Alpha virt. eigenvalues --    0.18121   0.19069   0.19272   0.19625   0.19766
 Alpha virt. eigenvalues --    0.21533   0.21606   0.22714   0.23116   0.23557
 Alpha virt. eigenvalues --    0.23839   0.24572   0.25359   0.26923   0.27605
 Alpha virt. eigenvalues --    0.28845   0.29286   0.29866   0.31355   0.35804
 Alpha virt. eigenvalues --    0.36430   0.38188   0.39276   0.41139   0.41386
 Alpha virt. eigenvalues --    0.41961   0.42191   0.42983   0.43680   0.44309
 Alpha virt. eigenvalues --    0.44900   0.45063   0.46031   0.46233   0.47944
 Alpha virt. eigenvalues --    0.48507   0.48848   0.49030   0.50439   0.51132
 Alpha virt. eigenvalues --    0.51455   0.51801   0.52120   0.52874   0.54001
 Alpha virt. eigenvalues --    0.54095   0.54632   0.55675   0.55790   0.57502
 Alpha virt. eigenvalues --    0.58237   0.58836   0.61449   0.62209   0.62356
 Alpha virt. eigenvalues --    0.63201   0.63488   0.64950   0.65152   0.67275
 Alpha virt. eigenvalues --    0.70410   0.70579   0.71055   0.72424   0.72873
 Alpha virt. eigenvalues --    0.75734   0.76029   0.76312   0.76867   0.77102
 Alpha virt. eigenvalues --    0.77845   0.77894   0.78239   0.79891   0.80393
 Alpha virt. eigenvalues --    0.81240   0.81626   0.82194   0.83007   0.85188
 Alpha virt. eigenvalues --    0.87137   0.88167   0.88512   0.89157   0.90453
 Alpha virt. eigenvalues --    0.91068   0.91286   0.93209   0.94621   0.96396
 Alpha virt. eigenvalues --    0.96709   1.00368   1.01277   1.01662   1.02733
 Alpha virt. eigenvalues --    1.03207   1.03615   1.04758   1.05658   1.08781
 Alpha virt. eigenvalues --    1.19556   1.23214   1.24074   1.25060   1.28177
 Alpha virt. eigenvalues --    1.29625   1.31847   1.34313   1.35761   1.35995
 Alpha virt. eigenvalues --    1.39341   1.40062   1.40934   1.43016   1.43488
 Alpha virt. eigenvalues --    1.43508   1.44678   1.45911   1.46360   1.46661
 Alpha virt. eigenvalues --    1.47649   1.48035   1.51726   1.53631   1.55737
 Alpha virt. eigenvalues --    1.55814   1.56337   1.56577   1.57778   1.61439
 Alpha virt. eigenvalues --    1.63222   1.63419   1.63895   1.66101   1.68303
 Alpha virt. eigenvalues --    1.68347   1.68699   1.69755   1.74385   1.75988
 Alpha virt. eigenvalues --    1.77162   1.78055   1.79965   1.80102   1.80732
 Alpha virt. eigenvalues --    1.83091   1.83208   1.83605   1.83829   1.84172
 Alpha virt. eigenvalues --    1.84327   1.85741   1.86179   1.88244   1.91387
 Alpha virt. eigenvalues --    1.92077   1.94111   1.95213   1.97703   1.98148
 Alpha virt. eigenvalues --    1.99744   2.02389   2.04418   2.07266   2.11791
 Alpha virt. eigenvalues --    2.12069   2.14131   2.15229   2.19085   2.21225
 Alpha virt. eigenvalues --    2.22782   2.28608   2.30152   2.34605   2.34915
 Alpha virt. eigenvalues --    2.36245   2.38666   2.39607   2.42357   2.44694
 Alpha virt. eigenvalues --    2.46152   2.46464   2.49330   2.52908   2.53795
 Alpha virt. eigenvalues --    2.54220   2.56814   2.57851   2.58321   2.59587
 Alpha virt. eigenvalues --    2.59847   2.61586   2.62132   2.63539   2.63776
 Alpha virt. eigenvalues --    2.64786   2.65101   2.65162   2.65402   2.67928
 Alpha virt. eigenvalues --    2.68499   2.70948   2.71422   2.73347   2.74815
 Alpha virt. eigenvalues --    2.76300   2.78683   2.79703   2.82878   2.83080
 Alpha virt. eigenvalues --    2.84871   2.86275   2.92107   2.97027   2.99489
 Alpha virt. eigenvalues --    3.00069   3.05039   3.10693   3.11375   3.13332
 Alpha virt. eigenvalues --    3.20906   3.23310   3.26653   3.28325   3.30665
 Alpha virt. eigenvalues --    3.32792   3.33851   3.43494   3.45961   3.46589
 Alpha virt. eigenvalues --    3.48456   3.50100   3.56450   3.65967   3.66816
 Alpha virt. eigenvalues --    3.67503   3.94135   3.94387   3.95277   3.96252
 Alpha virt. eigenvalues --    4.03993   4.06808   4.07522   4.12544   4.35450
 Alpha virt. eigenvalues --    4.61222   4.69702   4.71549  23.45322  23.60434
 Alpha virt. eigenvalues --   23.81840  23.84833  23.87293  23.89103  23.90839
 Alpha virt. eigenvalues --   23.93278  23.96955  23.98420  24.00729  24.01997
 Alpha virt. eigenvalues --   24.10644  24.11053
          Condensed to atoms (all electrons):
               1          2          3          4          5          6
     1  C    8.491169   0.404659  -0.591825   1.891532  -0.017904  -0.091265
     2  C    0.404659   7.152312   0.385977  -1.044038  -0.027447  -0.014846
     3  C   -0.591825   0.385977   6.593647   0.744818  -0.119142   0.016920
     4  C    1.891532  -1.044038   0.744818  11.224587  -0.373915  -0.130558
     5  C   -0.017904  -0.027447  -0.119142  -0.373915  10.883231   0.790817
     6  C   -0.091265  -0.014846   0.016920  -0.130558   0.790817   6.587685
     7  C   -0.024131   0.001141  -0.013961  -0.005367  -1.131836   0.312906
     8  C    0.404456  -0.011015  -0.100115  -0.052204   2.110086  -0.482423
     9  C   -1.157945  -0.826115   0.295172  -0.114673  -0.304201   0.294386
    10  C   -1.249881   0.211530  -0.316085  -2.667292  -2.498781  -0.388724
    11  C    0.311904  -0.862998   0.958658  -0.284743  -1.469869  -0.148845
    12  C   -1.963917   1.219967  -1.371152  -1.623475  -0.284032  -0.234926
    13  C    0.204167  -0.226593  -0.197182  -1.544038  -0.286934   1.054399
    14  C   -1.106100  -0.238670  -0.164602  -0.387014  -1.624784  -1.440142
    15  H    0.367252  -0.106108  -0.002202   0.026548   0.006057   0.001158
    16  H   -0.019798   0.380885  -0.018821   0.015056  -0.001610  -0.000341
    17  H   -0.022626  -0.019176   0.377649  -0.068799   0.000241   0.000405
    18  H    0.049049   0.003226  -0.084412   0.461361   0.006171  -0.005047
    19  H   -0.045571  -0.007908   0.051144  -0.074333  -0.066240   0.051352
    20  H    0.007120   0.002041  -0.005155   0.006131   0.456328  -0.084617
    21  H   -0.001278  -0.000409   0.000394   0.000393  -0.067345   0.372118
    22  H    0.000580   0.000347  -0.000316  -0.001465   0.012084  -0.014770
    23  H    0.006105  -0.002524   0.001048   0.005294   0.028585  -0.000344
    24  H    0.035094   0.015133  -0.001451  -0.011842  -0.012634  -0.001659
    25  H    0.035094   0.015133  -0.001451  -0.011842  -0.012634  -0.001659
               7          8          9         10         11         12
     1  C   -0.024131   0.404456  -1.157945  -1.249881   0.311904  -1.963917
     2  C    0.001141  -0.011015  -0.826115   0.211530  -0.862998   1.219967
     3  C   -0.013961  -0.100115   0.295172  -0.316085   0.958658  -1.371152
     4  C   -0.005367  -0.052204  -0.114673  -2.667292  -0.284743  -1.623475
     5  C   -1.131836   2.110086  -0.304201  -2.498781  -1.469869  -0.284032
     6  C    0.312906  -0.482423   0.294386  -0.388724  -0.148845  -0.234926
     7  C    7.152949   0.187155  -0.790826   0.291398  -0.264491  -0.148250
     8  C    0.187155   8.737491  -1.147215  -1.330840   0.236380  -1.061799
     9  C   -0.790826  -1.147215   9.592691   0.259660   1.619962  -2.007605
    10  C    0.291398  -1.330840   0.259660   9.145645  -0.394761   2.409760
    11  C   -0.264491   0.236380   1.619962  -0.394761  14.512548  -3.911104
    12  C   -0.148250  -1.061799  -2.007605   2.409760  -3.911104  16.156775
    13  C   -0.947261   0.301156   1.556567  -0.467966   1.093278  -4.771580
    14  C    1.510824  -2.292899  -1.848016   2.446316  -4.815270   3.106901
    15  H   -0.002769   0.005347   0.089693  -0.008885  -0.029746  -0.019646
    16  H    0.000382   0.000851   0.002834  -0.009817   0.026075  -0.032037
    17  H   -0.000390  -0.001350  -0.005339   0.020290  -0.026694   0.089583
    18  H    0.002068   0.007177  -0.023974   0.010549  -0.007798  -0.051470
    19  H   -0.007528  -0.047668   0.075449   0.421989   0.076950  -0.074216
    20  H    0.002578   0.051888  -0.025423   0.013526  -0.011955  -0.011595
    21  H   -0.013018  -0.027992  -0.006052   0.020521  -0.006284   0.005344
    22  H    0.377048  -0.018417   0.003739  -0.008825   0.002839  -0.008502
    23  H   -0.107086   0.368615   0.093015  -0.010343   0.003770   0.005903
    24  H    0.013867   0.030886   0.356133   0.005345   0.018404  -0.060061
    25  H    0.013867   0.030886   0.356133   0.005345   0.018404  -0.060061
              13         14         15         16         17         18
     1  C    0.204167  -1.106100   0.367252  -0.019798  -0.022626   0.049049
     2  C   -0.226593  -0.238670  -0.106108   0.380885  -0.019176   0.003226
     3  C   -0.197182  -0.164602  -0.002202  -0.018821   0.377649  -0.084412
     4  C   -1.544038  -0.387014   0.026548   0.015056  -0.068799   0.461361
     5  C   -0.286934  -1.624784   0.006057  -0.001610   0.000241   0.006171
     6  C    1.054399  -1.440142   0.001158  -0.000341   0.000405  -0.005047
     7  C   -0.947261   1.510824  -0.002769   0.000382  -0.000390   0.002068
     8  C    0.301156  -2.292899   0.005347   0.000851  -0.001350   0.007177
     9  C    1.556567  -1.848016   0.089693   0.002834  -0.005339  -0.023974
    10  C   -0.467966   2.446316  -0.008885  -0.009817   0.020290   0.010549
    11  C    1.093278  -4.815270  -0.029746   0.026075  -0.026694  -0.007798
    12  C   -4.771580   3.106901  -0.019646  -0.032037   0.089583  -0.051470
    13  C   14.416695  -3.602374  -0.000649   0.003220  -0.006296  -0.012075
    14  C   -3.602374  15.995654   0.007046  -0.009649   0.005271  -0.017034
    15  H   -0.000649   0.007046   0.436959  -0.009000   0.001557   0.000206
    16  H    0.003220  -0.009649  -0.009000   0.418104  -0.006847   0.001942
    17  H   -0.006296   0.005271   0.001557  -0.006847   0.421355  -0.010201
    18  H   -0.012075  -0.017034   0.000206   0.001942  -0.010201   0.451490
    19  H    0.079373  -0.057099   0.000351  -0.000568   0.001544  -0.006001
    20  H   -0.005099  -0.059008  -0.000118   0.000017  -0.000153   0.001260
    21  H   -0.027630   0.094674   0.000015  -0.000007   0.000010  -0.000134
    22  H    0.026555  -0.033429  -0.000126   0.000007  -0.000007   0.000013
    23  H   -0.031563  -0.029525   0.000573  -0.000129   0.000012  -0.000108
    24  H    0.008830  -0.060393  -0.000924   0.000630  -0.000139   0.000165
    25  H    0.008830  -0.060393  -0.000924   0.000630  -0.000139   0.000165
              19         20         21         22         23         24
     1  C   -0.045571   0.007120  -0.001278   0.000580   0.006105   0.035094
     2  C   -0.007908   0.002041  -0.000409   0.000347  -0.002524   0.015133
     3  C    0.051144  -0.005155   0.000394  -0.000316   0.001048  -0.001451
     4  C   -0.074333   0.006131   0.000393  -0.001465   0.005294  -0.011842
     5  C   -0.066240   0.456328  -0.067345   0.012084   0.028585  -0.012634
     6  C    0.051352  -0.084617   0.372118  -0.014770  -0.000344  -0.001659
     7  C   -0.007528   0.002578  -0.013018   0.377048  -0.107086   0.013867
     8  C   -0.047668   0.051888  -0.027992  -0.018417   0.368615   0.030886
     9  C    0.075449  -0.025423  -0.006052   0.003739   0.093015   0.356133
    10  C    0.421989   0.013526   0.020521  -0.008825  -0.010343   0.005345
    11  C    0.076950  -0.011955  -0.006284   0.002839   0.003770   0.018404
    12  C   -0.074216  -0.011595   0.005344  -0.008502   0.005903  -0.060061
    13  C    0.079373  -0.005099  -0.027630   0.026555  -0.031563   0.008830
    14  C   -0.057099  -0.059008   0.094674  -0.033429  -0.029525  -0.060393
    15  H    0.000351  -0.000118   0.000015  -0.000126   0.000573  -0.000924
    16  H   -0.000568   0.000017  -0.000007   0.000007  -0.000129   0.000630
    17  H    0.001544  -0.000153   0.000010  -0.000007   0.000012  -0.000139
    18  H   -0.006001   0.001260  -0.000134   0.000013  -0.000108   0.000165
    19  H    0.442905  -0.006456   0.001293  -0.000514   0.000270   0.000592
    20  H   -0.006456   0.455969  -0.010349   0.001907   0.000130   0.000200
    21  H    0.001293  -0.010349   0.423485  -0.006379   0.001374  -0.000146
    22  H   -0.000514   0.001907  -0.006379   0.420774  -0.009010   0.000633
    23  H    0.000270   0.000130   0.001374  -0.009010   0.441330  -0.000899
    24  H    0.000592   0.000200  -0.000146   0.000633  -0.000899   0.493680
    25  H    0.000592   0.000200  -0.000146   0.000633  -0.000899  -0.079390
              25
     1  C    0.035094
     2  C    0.015133
     3  C   -0.001451
     4  C   -0.011842
     5  C   -0.012634
     6  C   -0.001659
     7  C    0.013867
     8  C    0.030886
     9  C    0.356133
    10  C    0.005345
    11  C    0.018404
    12  C   -0.060061
    13  C    0.008830
    14  C   -0.060393
    15  H   -0.000924
    16  H    0.000630
    17  H   -0.000139
    18  H    0.000165
    19  H    0.000592
    20  H    0.000200
    21  H   -0.000146
    22  H    0.000633
    23  H   -0.000899
    24  H   -0.079390
    25  H    0.493680
 Mulliken charges:
               1
     1  C    0.084058
     2  C   -0.404503
     3  C   -0.437555
     4  C    0.019877
     5  C    0.005710
     6  C   -0.441981
     7  C   -0.409267
     8  C    0.101562
     9  C   -0.338048
    10  C    0.090328
    11  C   -0.644614
    12  C    0.701194
    13  C   -0.625829
    14  C    0.679717
    15  H    0.238337
    16  H    0.257990
    17  H    0.250238
    18  H    0.223408
    19  H    0.190298
    20  H    0.220635
    21  H    0.247547
    22  H    0.254598
    23  H    0.236406
    24  H    0.249947
    25  H    0.249947
 Sum of Mulliken charges =   1.00000
 Mulliken charges with hydrogens summed into heavy atoms:
               1
     1  C    0.322396
     2  C   -0.146513
     3  C   -0.187317
     4  C    0.243285
     5  C    0.226345
     6  C   -0.194434
     7  C   -0.154670
     8  C    0.337967
     9  C    0.161845
    10  C    0.280626
    11  C   -0.644614
    12  C    0.701194
    13  C   -0.625829
    14  C    0.679717
 Electronic spatial extent (au):  <R**2>=           2856.3314
 Charge=              1.0000 electrons
 Dipole moment (field-independent basis, Debye):
    X=             -0.0332    Y=             -0.4583    Z=             -0.0000  Tot=              0.4595
 Quadrupole moment (field-independent basis, Debye-Ang):
   XX=            -50.8640   YY=            -36.4973   ZZ=            -84.1406
   XY=             10.3366   XZ=             -0.0000   YZ=             -0.0000
 Traceless Quadrupole moment (field-independent basis, Debye-Ang):
   XX=              6.3033   YY=             20.6700   ZZ=            -26.9733
   XY=             10.3366   XZ=             -0.0000   YZ=             -0.0000
 Octapole moment (field-independent basis, Debye-Ang**2):
  XXX=             -1.0645  YYY=              1.5542  ZZZ=             -0.0000  XYY=             -1.4480
  XXY=             -6.3405  XXZ=             -0.0000  XZZ=             -3.0164  YZZ=              0.9174
  YYZ=              0.0000  XYZ=             -0.0000
 Hexadecapole moment (field-independent basis, Debye-Ang**3):
 XXXX=           -994.3567 YYYY=          -1844.8776 ZZZZ=            -99.3298 XXXY=           -349.4975
 XXXZ=              0.0000 YYYX=           -276.2040 YYYZ=             -0.0000 ZZZX=              0.0000
 ZZZY=             -0.0000 XXYY=           -454.0771 XXZZ=           -243.1005 YYZZ=           -493.4451
 XXYZ=             -0.0000 YYXZ=              0.0000 ZZXY=           -184.0199
 N-N= 7.811494573263D+02 E-N=-2.798641043659D+03  KE= 5.375065750415D+02
 Symmetry A'   KE= 5.228583923952D+02
 Symmetry A"   KE= 1.464818264627D+01
 Unable to Open any file for archive entry.
 1\1\GINC-GADI-CPU-CLX-0648\SP\RM062X TD-FC\6-311++G(d,p)\C14H11(1+)\TS
 1578\27-Jul-2022\0\\#n M062X/6-311++G(d,p) TD(NStates=1) EmpiricalDisp
 ersion=GD3 SP\\SP_-25\\1,1\C,0,2.4829,1.3694,0.\C,0,3.6894,0.675325,0.
 \C,0,3.6806,-0.71465,0.\C,0,2.474925,-1.405775,0.\C,0,-2.451525,-1.392
 125,0.\C,0,-3.6875,-0.69605,0.\C,0,-3.714075,0.6859,0.\C,0,-2.50345,1.
 3685,0.\C,0,-0.006575,1.4632,0.\C,0,0.0183,-1.42055,0.\C,0,1.264875,0.
 69145,0.\C,0,1.2449,-0.722925,0.\C,0,-1.2594,0.679975,0.\C,0,-1.2299,-
 0.721125,0.\H,0,2.4855,2.452475,0.\H,0,4.6246,1.2159,0.\H,0,4.61155,-1
 .263675,0.\H,0,2.4729,-2.488075,0.\H,0,0.016875,-2.501625,0.\H,0,-2.46
 195,-2.4748,0.\H,0,-4.6072,-1.26435,0.\H,0,-4.649575,1.224525,0.\H,0,-
 2.4918,2.4518,0.\H,0,-0.024,2.15475,-0.859875\H,0,-0.024,2.15475,0.859
 875\\Version=ES64L-G16RevC.01\State=1-A'\HF=-539.7592461\RMSD=6.638e-0
 9\PG=CS [SG(C14H9),X(H2)]\\@
 The archive entry for this job was punched.


 THAT'S WHAT MAKES US A GREAT COUNTRY.
 THE LITTLE THINGS ARE SERIOUS AND THE BIG ONES ARE NOT.
           WILL ROGERS
 Job cpu time:       0 days  0 hours 45 minutes  1.0 seconds.
 Elapsed time:       0 days  0 hours  1 minutes 25.6 seconds.
 File lengths (MBytes):  RWF=    460 Int=      0 D2E=      0 Chk=     15 Scr=      1
 Normal termination of Gaussian 16 at Wed Jul 27 11:06:02 2022.
