 Entering Gaussian System, Link 0=g16
 Initial command:
 /apps/gaussian/g16c01/g16/l1.exe "/jobfs/52804872.gadi-pbs/Gau-1411264.inp" -scrdir="/jobfs/52804872.gadi-pbs/"
 Entering Link 1 = /apps/gaussian/g16c01/g16/l1.exe PID=   1411265.
  
 Copyright (c) 1988-2019, Gaussian, Inc.  All Rights Reserved.
  
 This is part of the Gaussian(R) 16 program.  It is based on
 the Gaussian(R) 09 system (copyright 2009, Gaussian, Inc.),
 the Gaussian(R) 03 system (copyright 2003, Gaussian, Inc.),
 the Gaussian(R) 98 system (copyright 1998, Gaussian, Inc.),
 the Gaussian(R) 94 system (copyright 1995, Gaussian, Inc.),
 the Gaussian 92(TM) system (copyright 1992, Gaussian, Inc.),
 the Gaussian 90(TM) system (copyright 1990, Gaussian, Inc.),
 the Gaussian 88(TM) system (copyright 1988, Gaussian, Inc.),
 the Gaussian 86(TM) system (copyright 1986, Carnegie Mellon
 University), and the Gaussian 82(TM) system (copyright 1983,
 Carnegie Mellon University). Gaussian is a federally registered
 trademark of Gaussian, Inc.
  
 This software contains proprietary and confidential information,
 including trade secrets, belonging to Gaussian, Inc.
  
 This software is provided under written license and may be
 used, copied, transmitted, or stored only in accord with that
 written license.
  
 The following legend is applicable only to US Government
 contracts under FAR:
  
                    RESTRICTED RIGHTS LEGEND
  
 Use, reproduction and disclosure by the US Government is
 subject to restrictions as set forth in subparagraphs (a)
 and (c) of the Commercial Computer Software - Restricted
 Rights clause in FAR 52.227-19.
  
 Gaussian, Inc.
 340 Quinnipiac St., Bldg. 40, Wallingford CT 06492
  
  
 ---------------------------------------------------------------
 Warning -- This program may not be used in any manner that
 competes with the business of Gaussian, Inc. or will provide
 assistance to any competitor of Gaussian, Inc.  The licensee
 of this program is prohibited from giving any competitor of
 Gaussian, Inc. access to this program.  By using this program,
 the user acknowledges that Gaussian, Inc. is engaged in the
 business of creating and licensing software in the field of
 computational chemistry and represents and warrants to the
 licensee that it is not a competitor of Gaussian, Inc. and that
 it will not use this program in any manner prohibited above.
 ---------------------------------------------------------------
  

 Cite this work as:
 Gaussian 16, Revision C.01,
 M. J. Frisch, G. W. Trucks, H. B. Schlegel, G. E. Scuseria, 
 M. A. Robb, J. R. Cheeseman, G. Scalmani, V. Barone, 
 G. A. Petersson, H. Nakatsuji, X. Li, M. Caricato, A. V. Marenich, 
 J. Bloino, B. G. Janesko, R. Gomperts, B. Mennucci, H. P. Hratchian, 
 J. V. Ortiz, A. F. Izmaylov, J. L. Sonnenberg, D. Williams-Young, 
 F. Ding, F. Lipparini, F. Egidi, J. Goings, B. Peng, A. Petrone, 
 T. Henderson, D. Ranasinghe, V. G. Zakrzewski, J. Gao, N. Rega, 
 G. Zheng, W. Liang, M. Hada, M. Ehara, K. Toyota, R. Fukuda, 
 J. Hasegawa, M. Ishida, T. Nakajima, Y. Honda, O. Kitao, H. Nakai, 
 T. Vreven, K. Throssell, J. A. Montgomery, Jr., J. E. Peralta, 
 F. Ogliaro, M. J. Bearpark, J. J. Heyd, E. N. Brothers, K. N. Kudin, 
 V. N. Staroverov, T. A. Keith, R. Kobayashi, J. Normand, 
 K. Raghavachari, A. P. Rendell, J. C. Burant, S. S. Iyengar, 
 J. Tomasi, M. Cossi, J. M. Millam, M. Klene, C. Adamo, R. Cammi, 
 J. W. Ochterski, R. L. Martin, K. Morokuma, O. Farkas, 
 J. B. Foresman, and D. J. Fox, Gaussian, Inc., Wallingford CT, 2019.
 
 ******************************************
 Gaussian 16:  ES64L-G16RevC.01  3-Jul-2019
                27-Jul-2022 
 ******************************************
 %NProcShared=32
 Will use up to   32 processors via shared memory.
 %mem = 128GB
 ---------------------------------------------------------------
 #n M062X/6-311++G(d,p) TD(NStates=1) EmpiricalDispersion=GD3 SP
 ---------------------------------------------------------------
 1/38=1,172=1/1;
 2/12=2,17=6,18=5,40=1/2;
 3/5=4,6=6,7=1111,11=9,25=1,30=1,74=-55,124=31/1,2,3,8;
 4//1;
 5/5=2,38=5/2;
 8/6=1,10=2,108=1/1;
 9/41=1,42=1,70=2/14;
 6/7=2,8=2,9=2,10=2/1;
 99/5=1,9=1/99;
 ------
 SP_-75
 ------
 Symbolic Z-matrix:
 Charge =  1 Multiplicity = 1
 C                     2.4928    1.37      0. 
 C                     3.70395   0.68308   0. 
 C                     3.684    -0.70025   0. 
 C                     2.45913  -1.39628   0. 
 C                    -2.46693  -1.40083   0. 
 C                    -3.6817   -0.70645   0. 
 C                    -3.69573   0.67955   0. 
 C                    -2.48595   1.3703    0. 
 C                     0.00228   1.4544    0. 
 C                    -0.0061   -1.42015   0. 
 C                     1.26093   0.6837    0. 
 C                     1.2357   -0.72233   0. 
 C                    -1.26275   0.68753   0. 
 C                    -1.2407   -0.72293   0. 
 H                     2.4853    2.45332   0. 
 H                     4.63895   1.22315   0. 
 H                     4.60805  -1.26162   0. 
 H                     2.4662   -2.47892   0. 
 H                    -0.00563  -2.50142   0. 
 H                    -2.46985  -2.48335   0. 
 H                    -4.6095   -1.2614    0. 
 H                    -4.63063   1.22027   0. 
 H                    -2.4832    2.45355   0. 
 H                     0.008     2.15275  -0.85768 
 H                     0.008     2.15275   0.85768 
 
                          Input orientation:                          
 ---------------------------------------------------------------------
 Center     Atomic      Atomic             Coordinates (Angstroms)
 Number     Number       Type             X           Y           Z
 ---------------------------------------------------------------------
      1          6           0        2.492800    1.370000    0.000000
      2          6           0        3.703950    0.683075    0.000000
      3          6           0        3.684000   -0.700250    0.000000
      4          6           0        2.459125   -1.396275    0.000000
      5          6           0       -2.466925   -1.400825    0.000000
      6          6           0       -3.681700   -0.706450    0.000000
      7          6           0       -3.695725    0.679550    0.000000
      8          6           0       -2.485950    1.370300    0.000000
      9          6           0        0.002275    1.454400    0.000000
     10          6           0       -0.006100   -1.420150    0.000000
     11          6           0        1.260925    0.683700    0.000000
     12          6           0        1.235700   -0.722325    0.000000
     13          6           0       -1.262750    0.687525    0.000000
     14          6           0       -1.240700   -0.722925    0.000000
     15          1           0        2.485300    2.453325    0.000000
     16          1           0        4.638950    1.223150    0.000000
     17          1           0        4.608050   -1.261625    0.000000
     18          1           0        2.466200   -2.478925    0.000000
     19          1           0       -0.005625   -2.501425    0.000000
     20          1           0       -2.469850   -2.483350    0.000000
     21          1           0       -4.609500   -1.261400    0.000000
     22          1           0       -4.630625    1.220275    0.000000
     23          1           0       -2.483200    2.453550    0.000000
     24          1           0        0.008000    2.152750   -0.857675
     25          1           0        0.008000    2.152750    0.857675
 ---------------------------------------------------------------------
                    Distance matrix (angstroms):
                    1          2          3          4          5
     1  C    0.000000
     2  C    1.392390   0.000000
     3  C    2.388492   1.383469   0.000000
     4  C    2.766480   2.423486   1.408819   0.000000
     5  C    5.681227   6.513243   6.190693   4.926052   0.000000
     6  C    6.514299   7.515225   7.365703   6.179449   1.399227
     7  C    6.226922   7.399676   7.507609   6.495478   2.416177
     8  C    4.978750   6.227932   6.508107   5.666366   2.771190
     9  C    2.491955   3.781182   4.265866   3.763304   3.774819
    10  C    3.745589   4.264742   3.759667   2.465341   2.460901
    11  C    1.410150   2.443025   2.790450   2.400412   4.271078
    12  C    2.440927   2.840318   2.448400   1.396774   3.764279
    13  C    3.817057   4.966702   5.137729   4.265510   2.410652
    14  C    4.280112   5.140661   4.924752   3.760599   1.401134
    15  H    1.083351   2.149161   3.373710   3.849689   6.275269
    16  H    2.151168   1.079771   2.147416   3.407789   7.574873
    17  H    3.376349   2.144587   1.081208   2.153139   7.076344
    18  H    3.849017   3.395625   2.155626   1.082673   5.049557
    19  H    4.607609   4.888966   4.105796   2.701176   2.696167
    20  H    6.283009   6.938448   6.406974   5.047428   1.082529
    21  H    7.574096   8.537824   8.312462   7.069912   2.147107
    22  H    7.124998   8.351870   8.533546   7.557175   3.398788
    23  H    5.092608   6.435480   6.926818   6.264801   3.854409
    24  H    2.742724   4.068857   4.731616   4.397636   4.414607
    25  H    2.742724   4.068857   4.731616   4.397636   4.414607
                    6          7          8          9         10
     6  C    0.000000
     7  C    1.386071   0.000000
     8  C    2.396395   1.393087   0.000000
     9  C    4.270942   3.778306   2.489646   0.000000
    10  C    3.744249   4.245241   3.733131   2.874562   0.000000
    11  C    5.134400   4.956652   3.809264   1.475865   2.455919
    12  C    4.917426   5.126812   4.269632   2.501893   1.424439
    13  C    2.791861   2.432988   1.400857   1.479319   2.453867
    14  C    2.441056   2.827381   2.435619   2.507136   1.417872
    15  H    6.929363   6.430501   5.087855   2.676428   4.605527
    16  H    8.541462   8.352383   7.126419   4.642438   5.344485
    17  H    8.308320   8.527651   7.566496   5.346958   4.616872
    18  H    6.398308   6.924253   6.272186   4.641333   2.689474
    19  H    4.090900   4.871903   4.598072   3.955833   1.081275
    20  H    2.150803   3.392154   3.853684   4.649438   2.683367
    21  H    1.081102   2.145291   3.381613   5.352013   4.606136
    22  H    2.147726   1.080010   2.149916   4.638812   5.325230
    23  H    3.379645   2.148789   1.083253   2.678785   4.597997
    24  H    4.746000   4.077193   2.750931   1.106043   3.674428
    25  H    4.746000   4.077193   2.750931   1.106043   3.674428
                   11         12         13         14         15
    11  C    0.000000
    12  C    1.406251   0.000000
    13  C    2.523678   2.868785   0.000000
    14  C    2.869969   2.476400   1.410622   0.000000
    15  H    2.151898   3.412661   4.143179   4.896084   0.000000
    16  H    3.420827   3.920074   5.925956   6.193343   2.480230
    17  H    3.871374   3.415200   6.185910   5.873506   4.278659
    18  H    3.384507   2.144708   4.891981   4.101785   4.932287
    19  H    3.427706   2.169351   3.427793   2.165288   5.545652
    20  H    4.893760   4.102720   3.392866   2.147069   6.994589
    21  H    6.184279   5.870006   3.872860   3.411564   8.008456
    22  H    5.915934   6.179601   3.409751   3.907380   7.221967
    23  H    4.141357   4.890440   2.146705   3.410836   4.968500
    24  H    2.112708   3.241745   2.120683   3.250287   2.638743
    25  H    2.112708   3.241745   2.120683   3.250287   2.638743
                   16         17         18         19         20
    16  H    0.000000
    17  H    2.484967   0.000000
    18  H    4.292575   2.463603   0.000000
    19  H    5.953531   4.777353   2.471927   0.000000
    20  H    8.017056   7.182568   4.936052   2.464291   0.000000
    21  H    9.576368   9.217550   7.179686   4.767948   2.463993
    22  H    9.269575   9.566240   8.003062   5.936470   4.287865
    23  H    7.227649   8.005520   6.987551   5.539870   4.936918
    24  H    4.800569   5.792583   5.313263   4.732561   5.326234
    25  H    4.800569   5.792583   5.313263   4.732561   5.326234
                   21         22         23         24         25
    21  H    0.000000
    22  H    2.481765   0.000000
    23  H    4.280421   2.476369   0.000000
    24  H    5.806318   4.808530   2.651823   0.000000
    25  H    5.806318   4.808530   2.651823   1.715350   0.000000
 Stoichiometry    C14H11(1+)
 Framework group  CS[SG(C14H9),X(H2)]
 Deg. of freedom    46
 Full point group                 CS      NOp   2
 Largest Abelian subgroup         CS      NOp   2
 Largest concise Abelian subgroup CS      NOp   2
                         Standard orientation:                         
 ---------------------------------------------------------------------
 Center     Atomic      Atomic             Coordinates (Angstroms)
 Number     Number       Type             X           Y           Z
 ---------------------------------------------------------------------
      1          6           0        2.486775   -1.372113    0.000000
      2          6           0        3.700893   -0.690447    0.000000
      3          6           0        3.686943    0.692951    0.000000
      4          6           0        2.465098    1.394282    0.000000
      5          6           0       -2.460886    1.420198    0.000000
      6          6           0       -3.678661    0.731098    0.000000
      7          6           0       -3.698697   -0.654828    0.000000
      8          6           0       -2.491930   -1.350818    0.000000
      9          6           0       -0.004093   -1.445710    0.000000
     10          6           0       -0.000000    1.428849    0.000000
     11          6           0        1.257888   -0.680476    0.000000
     12          6           0        1.238762    0.725645    0.000000
     13          6           0       -1.265780   -0.673355    0.000000
     14          6           0       -1.237612    0.736986    0.000000
     15          1           0        2.474576   -2.455395    0.000000
     16          1           0        4.633541   -1.234573    0.000000
     17          1           0        4.613419    1.250313    0.000000
     18          1           0        2.476869    2.476891    0.000000
     19          1           0        0.005165    2.510112    0.000000
     20          1           0       -2.459115    2.502726    0.000000
     21          1           0       -4.604045    1.290067    0.000000
     22          1           0       -4.635934   -1.191493    0.000000
     23          1           0       -2.493878   -2.434070    0.000000
     24          1           0       -0.001397   -2.144078    0.857675
     25          1           0       -0.001397   -2.144078   -0.857675
 ---------------------------------------------------------------------
 Rotational constants (GHZ):           2.1387399           0.4449931           0.3691504
 Standard basis: 6-311++G(d,p) (5D, 7F)
 There are   299 symmetry adapted cartesian basis functions of A'  symmetry.
 There are   100 symmetry adapted cartesian basis functions of A"  symmetry.
 There are   285 symmetry adapted basis functions of A'  symmetry.
 There are   100 symmetry adapted basis functions of A"  symmetry.
   385 basis functions,   603 primitive gaussians,   399 cartesian basis functions
    47 alpha electrons       47 beta electrons
       nuclear repulsion energy       781.5415649762 Hartrees.
 NAtoms=   25 NActive=   25 NUniq=   24 SFac= 1.09D+00 NAtFMM=   60 NAOKFM=F Big=F
 Integral buffers will be    131072 words long.
 Regular integral format.
 Two-electron integral symmetry is turned on.
 Nuclear repulsion after empirical dispersion term =      781.5405856026 Hartrees.
 One-electron integrals computed using PRISM.
 NBasis=   385 RedAO= T EigKep=  1.11D-06  NBF=   285   100
 NBsUse=   379 1.00D-06 EigRej=  8.33D-07 NBFU=   279   100
 ExpMin= 3.60D-02 ExpMax= 4.56D+03 ExpMxC= 6.82D+02 IAcc=3 IRadAn=         5 AccDes= 0.00D+00
 Harris functional with IExCor= 1009 and IRadAn=       5 diagonalized for initial guess.
 HarFok:  IExCor= 1009 AccDes= 0.00D+00 IRadAn=         5 IDoV= 1 UseB2=F ITyADJ=14
 ICtDFT=  3500011 ScaDFX=  1.000000  1.000000  1.000000  1.000000
 FoFCou: FMM=F IPFlag=           0 FMFlag=      100000 FMFlg1=           0
         NFxFlg=           0 DoJE=T BraDBF=F KetDBF=T FulRan=T
         wScrn=  0.000000 ICntrl=       500 IOpCl=  0 I1Cent=   200000004 NGrid=           0
         NMat0=    1 NMatS0=      1 NMatT0=    0 NMatD0=    1 NMtDS0=    0 NMtDT0=    0
 Petite list used in FoFCou.
 Initial guess orbital symmetries:
       Occupied  (A') (A') (A') (A') (A') (A') (A') (A') (A') (A')
                 (A') (A') (A') (A') (A') (A') (A') (A') (A') (A')
                 (A') (A') (A') (A') (A') (A') (A') (A') (A') (A')
                 (A') (A') (A") (A') (A') (A') (A') (A') (A') (A")
                 (A") (A') (A') (A") (A") (A") (A")
       Virtual   (A") (A") (A") (A") (A") (A') (A') (A') (A') (A")
                 (A") (A') (A') (A') (A") (A') (A') (A') (A') (A")
                 (A') (A") (A') (A') (A') (A") (A') (A") (A') (A')
                 (A') (A') (A') (A") (A') (A') (A") (A') (A') (A")
                 (A') (A') (A') (A") (A') (A') (A') (A') (A') (A")
                 (A') (A') (A") (A") (A') (A') (A') (A") (A") (A')
                 (A') (A') (A') (A') (A') (A") (A') (A') (A') (A")
                 (A') (A') (A') (A') (A') (A') (A') (A') (A') (A')
                 (A') (A') (A') (A') (A') (A') (A') (A') (A') (A')
                 (A') (A') (A') (A') (A') (A') (A') (A") (A') (A")
                 (A') (A') (A") (A") (A') (A") (A") (A') (A') (A")
                 (A") (A') (A') (A') (A") (A') (A') (A") (A") (A')
                 (A") (A") (A') (A') (A') (A") (A') (A') (A') (A")
                 (A') (A') (A') (A') (A') (A') (A") (A') (A') (A')
                 (A') (A') (A') (A') (A') (A') (A') (A') (A') (A")
                 (A") (A') (A") (A") (A') (A') (A') (A") (A") (A')
                 (A") (A') (A") (A") (A") (A') (A') (A') (A') (A')
                 (A') (A") (A") (A') (A') (A') (A') (A') (A') (A")
                 (A') (A') (A') (A') (A') (A") (A") (A') (A") (A")
                 (A') (A") (A') (A") (A') (A') (A') (A") (A') (A')
                 (A") (A") (A") (A') (A') (A") (A') (A") (A') (A')
                 (A") (A") (A') (A") (A') (A") (A') (A') (A") (A')
                 (A') (A') (A') (A') (A") (A') (A') (A') (A") (A")
                 (A') (A') (A') (A") (A') (A') (A") (A') (A") (A')
                 (A") (A') (A') (A') (A') (A') (A") (A') (A') (A")
                 (A') (A') (A") (A') (A") (A') (A') (A") (A') (A')
                 (A') (A') (A") (A") (A') (A') (A') (A") (A") (A')
                 (A') (A') (A') (A') (A") (A') (A") (A') (A") (A')
                 (A") (A') (A") (A") (A") (A') (A') (A') (A') (A')
                 (A') (A') (A') (A') (A') (A') (A') (A') (A') (A')
                 (A') (A') (A') (A") (A') (A') (A') (A') (A') (A')
                 (A') (A') (A') (A') (A') (A') (A') (A') (A') (A')
                 (A') (A') (A') (A') (A') (A') (A') (A') (A') (A')
                 (A') (A')
 The electronic state of the initial guess is 1-A'.
 Requested convergence on RMS density matrix=1.00D-08 within 128 cycles.
 Requested convergence on MAX density matrix=1.00D-06.
 Requested convergence on             energy=1.00D-06.
 No special actions if energy rises.
 SCF Done:  E(RM062X) =  -539.759977633     A.U. after   15 cycles
            NFock= 15  Conv=0.48D-08     -V/T= 2.0042
 DoSCS=F DFT=T ScalE2(SS,OS)=  1.000000  1.000000
 ExpMin= 3.60D-02 ExpMax= 4.56D+03 ExpMxC= 6.82D+02 IAcc=3 IRadAn=         5 AccDes= 0.00D+00
 HarFok:  IExCor=  205 AccDes= 0.00D+00 IRadAn=         5 IDoV=-2 UseB2=F ITyADJ=14
 ICtDFT= 12500011 ScaDFX=  1.000000  1.000000  1.000000  1.000000
 Range of M.O.s used for correlation:    15   379
 NBasis=   385 NAE=    47 NBE=    47 NFC=    14 NFV=     0
 NROrb=    365 NOA=    33 NOB=    33 NVA=   332 NVB=   332

 **** Warning!!: The largest alpha MO coefficient is  0.15287218D+03

 Orbital symmetries:
       Occupied  (A') (A') (A') (A') (A') (A') (A') (A') (A') (A')
                 (A') (A') (A') (A') (A') (A') (A') (A') (A') (A')
                 (A') (A') (A') (A') (A') (A') (A') (A') (A') (A')
                 (A') (A') (A") (A') (A') (A') (A') (A") (A") (A')
                 (A') (A') (A') (A") (A") (A") (A")
       Virtual   (A") (A") (A") (A") (A') (A') (A') (A') (A") (A')
                 (A') (A") (A') (A') (A") (A') (A") (A') (A') (A')
                 (A") (A") (A') (A') (A') (A") (A') (A") (A') (A')
                 (A") (A') (A") (A') (A') (A') (A') (A') (A") (A')
                 (A") (A') (A') (A") (A") (A') (A") (A') (A") (A')
                 (A') (A') (A') (A') (A') (A") (A') (A') (A') (A')
                 (A') (A") (A') (A') (A') (A") (A') (A') (A') (A')
                 (A') (A') (A') (A') (A') (A') (A') (A') (A') (A')
                 (A') (A') (A') (A') (A') (A') (A') (A') (A') (A')
                 (A') (A') (A') (A') (A") (A') (A") (A") (A') (A")
                 (A') (A') (A') (A') (A") (A") (A') (A") (A") (A')
                 (A') (A') (A") (A') (A') (A") (A') (A") (A') (A")
                 (A") (A') (A") (A') (A') (A') (A") (A') (A') (A')
                 (A') (A') (A') (A') (A') (A') (A') (A') (A') (A')
                 (A') (A') (A') (A") (A') (A') (A') (A') (A') (A')
                 (A') (A') (A") (A') (A") (A') (A") (A") (A') (A")
                 (A") (A') (A') (A") (A") (A") (A') (A") (A') (A')
                 (A') (A') (A') (A") (A") (A') (A') (A') (A') (A")
                 (A') (A') (A') (A") (A') (A") (A') (A') (A") (A")
                 (A") (A') (A') (A") (A') (A") (A') (A') (A') (A')
                 (A") (A") (A") (A') (A") (A') (A') (A") (A') (A')
                 (A') (A") (A') (A") (A") (A') (A") (A') (A') (A")
                 (A') (A') (A') (A') (A") (A') (A') (A') (A") (A")
                 (A') (A') (A') (A") (A') (A') (A') (A") (A") (A')
                 (A") (A') (A') (A") (A') (A') (A') (A') (A') (A')
                 (A") (A') (A') (A') (A') (A") (A") (A") (A') (A')
                 (A') (A') (A') (A') (A') (A') (A") (A') (A') (A')
                 (A') (A") (A') (A") (A") (A") (A') (A") (A') (A")
                 (A') (A") (A") (A') (A") (A") (A') (A') (A') (A')
                 (A') (A') (A') (A') (A') (A') (A') (A') (A') (A')
                 (A') (A') (A') (A") (A') (A') (A') (A') (A') (A')
                 (A') (A') (A') (A') (A') (A') (A') (A') (A') (A')
                 (A') (A') (A') (A') (A') (A') (A') (A') (A') (A')
                 (A') (A')
     4 initial guesses have been made.
 Convergence on wavefunction:    0.001000000000000
 Iteration     1 Dimension     4 NMult     0 NNew      4
 CISAX will form     4 AO SS matrices at one time.
 Iteration     2 Dimension     6 NMult     4 NNew      2
 Iteration     3 Dimension     8 NMult     6 NNew      2
 Iteration     4 Dimension    10 NMult     8 NNew      2
 Iteration     5 Dimension    12 NMult    10 NNew      2
 Iteration     6 Dimension    14 NMult    12 NNew      2
 ***********************************************************************
 Excited states from <AA,BB:AA,BB> singles matrix:
 ***********************************************************************
 
 Ground to excited state transition densities written to RWF  633
 Ground to excited state transition electric dipole moments (Au):
       state          X           Y           Z        Dip. S.      Osc.
         1         0.0036     -0.6453     -0.0000      0.4164      0.0287
 Ground to excited state transition velocity dipole moments (Au):
       state          X           Y           Z        Dip. S.      Osc.
         1         0.0004      0.0745     -0.0000      0.0056      0.0358
 Ground to excited state transition magnetic dipole moments (Au):
       state          X           Y           Z
         1         0.0000     -0.0000      0.0419
 Ground to excited state transition velocity quadrupole moments (Au):
       state          XX          YY          ZZ          XY          XZ          YZ
         1         0.2938      0.0341     -0.0098      0.0170     -0.0000      0.0000
 <0|del|b> * <b|rxdel|0> + <0|del|b> * <b|delr+rdel|0>
 Rotatory Strengths (R) in cgs (10**-40 erg-esu-cm/Gauss)
       state          XX          YY          ZZ    R(velocity)    E-M Angle
         1         0.0000     -0.0000     -0.0000     -0.0000       90.00
 1/2[<0|r|b>*<b|rxdel|0> + (<0|rxdel|b>*<b|r|0>)*]
 Rotatory Strengths (R) in cgs (10**-40 erg-esu-cm/Gauss)
       state          XX          YY          ZZ     R(length)
         1        -0.0000     -0.0000      0.0000      0.0000
  1/2[<0|del|b>*<b|r|0> + (<0|r|b>*<b|del|0>)*] (Au)
       state          X           Y           Z        Dip. S.   Osc.(frdel)
         1         0.0000     -0.0481      0.0000      0.0481      0.0321

 Excitation energies and oscillator strengths:
 
 Excited State   1:      Singlet-A'     2.8183 eV  439.92 nm  f=0.0287  <S**2>=0.000
      47 -> 48         0.70422
 This state for optimization and/or second-order correction.
 Total Energy, E(TD-HF/TD-DFT) =  -539.656405331    
 Copying the excited state density for this state as the 1-particle RhoCI density.
 SavETr:  write IOETrn=   770 NScale= 10 NData=  16 NLR=1 NState=    1 LETran=      28.

 **********************************************************************

            Population analysis using the SCF Density.

 **********************************************************************

 Orbital symmetries:
       Occupied  (A') (A') (A') (A') (A') (A') (A') (A') (A') (A')
                 (A') (A') (A') (A') (A') (A') (A') (A') (A') (A')
                 (A') (A') (A') (A') (A') (A') (A') (A') (A') (A')
                 (A') (A') (A") (A') (A') (A') (A') (A") (A") (A')
                 (A') (A') (A') (A") (A") (A") (A")
       Virtual   (A") (A") (A") (A") (A') (A') (A') (A') (A") (A')
                 (A') (A") (A') (A') (A") (A') (A") (A') (A') (A')
                 (A") (A") (A') (A') (A') (A") (A') (A") (A') (A')
                 (A") (A') (A") (A') (A') (A') (A') (A') (A") (A')
                 (A") (A') (A') (A") (A") (A') (A") (A') (A") (A')
                 (A') (A') (A') (A') (A') (A") (A') (A') (A') (A')
                 (A') (A") (A') (A') (A') (A") (A') (A') (A') (A')
                 (A') (A') (A') (A') (A') (A') (A') (A') (A') (A')
                 (A') (A') (A') (A') (A') (A') (A') (A') (A') (A')
                 (A') (A') (A') (A') (A") (A') (A") (A") (A') (A")
                 (A') (A') (A') (A') (A") (A") (A') (A") (A") (A')
                 (A') (A') (A") (A') (A') (A") (A') (A") (A') (A")
                 (A") (A') (A") (A') (A') (A') (A") (A') (A') (A')
                 (A') (A') (A') (A') (A') (A') (A') (A') (A') (A')
                 (A') (A') (A') (A") (A') (A') (A') (A') (A') (A')
                 (A') (A') (A") (A') (A") (A') (A") (A") (A') (A")
                 (A") (A') (A') (A") (A") (A") (A') (A") (A') (A')
                 (A') (A') (A') (A") (A") (A') (A') (A') (A') (A")
                 (A') (A') (A') (A") (A') (A") (A') (A') (A") (A")
                 (A") (A') (A') (A") (A') (A") (A') (A') (A') (A')
                 (A") (A") (A") (A') (A") (A') (A') (A") (A') (A')
                 (A') (A") (A') (A") (A") (A') (A") (A') (A') (A")
                 (A') (A') (A') (A') (A") (A') (A') (A') (A") (A")
                 (A') (A') (A') (A") (A') (A') (A') (A") (A") (A')
                 (A") (A') (A') (A") (A') (A') (A') (A') (A') (A')
                 (A") (A') (A') (A') (A') (A") (A") (A") (A') (A')
                 (A') (A') (A') (A') (A') (A') (A") (A') (A') (A')
                 (A') (A") (A') (A") (A") (A") (A') (A") (A') (A")
                 (A') (A") (A") (A') (A") (A") (A') (A') (A') (A')
                 (A') (A') (A') (A') (A') (A') (A') (A') (A') (A')
                 (A') (A') (A') (A") (A') (A') (A') (A') (A') (A')
                 (A') (A') (A') (A') (A') (A') (A') (A') (A') (A')
                 (A') (A') (A') (A') (A') (A') (A') (A') (A') (A')
                 (A') (A')
 The electronic state is 1-A'.
 Alpha  occ. eigenvalues --  -10.77650 -10.73267 -10.73122 -10.72478 -10.72361
 Alpha  occ. eigenvalues --  -10.71433 -10.71295 -10.71141 -10.70957 -10.70883
 Alpha  occ. eigenvalues --  -10.70003 -10.69938 -10.69659 -10.69577  -1.16489
 Alpha  occ. eigenvalues --   -1.12496  -1.06944  -1.05804  -1.01314  -1.00241
 Alpha  occ. eigenvalues --   -0.95771  -0.91074  -0.86425  -0.85917  -0.83831
 Alpha  occ. eigenvalues --   -0.78405  -0.76071  -0.74422  -0.69544  -0.69257
 Alpha  occ. eigenvalues --   -0.68515  -0.68209  -0.68088  -0.64763  -0.64302
 Alpha  occ. eigenvalues --   -0.63122  -0.61867  -0.59973  -0.59680  -0.59081
 Alpha  occ. eigenvalues --   -0.56922  -0.55206  -0.54864  -0.52433  -0.46665
 Alpha  occ. eigenvalues --   -0.46060  -0.44460
 Alpha virt. eigenvalues --   -0.26072  -0.14674  -0.14094  -0.12770  -0.11182
 Alpha virt. eigenvalues --   -0.10092  -0.09230  -0.07983  -0.07960  -0.07477
 Alpha virt. eigenvalues --   -0.07210  -0.07149  -0.05641  -0.05584  -0.05336
 Alpha virt. eigenvalues --   -0.03827  -0.03648  -0.03281  -0.03130  -0.02163
 Alpha virt. eigenvalues --   -0.01371  -0.00932   0.00184   0.00592   0.00688
 Alpha virt. eigenvalues --    0.01057   0.01510   0.01934   0.02221   0.02272
 Alpha virt. eigenvalues --    0.02450   0.02673   0.02753   0.03255   0.03373
 Alpha virt. eigenvalues --    0.04237   0.04512   0.04691   0.05027   0.05364
 Alpha virt. eigenvalues --    0.06030   0.06303   0.06598   0.07059   0.07248
 Alpha virt. eigenvalues --    0.07895   0.08170   0.08372   0.08557   0.08928
 Alpha virt. eigenvalues --    0.09549   0.09563   0.10051   0.10892   0.11068
 Alpha virt. eigenvalues --    0.11109   0.12192   0.12248   0.12915   0.13008
 Alpha virt. eigenvalues --    0.13415   0.13520   0.14031   0.14372   0.16257
 Alpha virt. eigenvalues --    0.16296   0.16342   0.17349   0.17626   0.17794
 Alpha virt. eigenvalues --    0.18136   0.19049   0.19234   0.19655   0.19759
 Alpha virt. eigenvalues --    0.21589   0.21617   0.22731   0.23132   0.23580
 Alpha virt. eigenvalues --    0.23729   0.24538   0.25240   0.26923   0.27618
 Alpha virt. eigenvalues --    0.28872   0.29312   0.29898   0.31381   0.35872
 Alpha virt. eigenvalues --    0.36467   0.38180   0.39285   0.41166   0.41400
 Alpha virt. eigenvalues --    0.42010   0.42164   0.42981   0.43717   0.44300
 Alpha virt. eigenvalues --    0.44939   0.45041   0.46087   0.46199   0.47896
 Alpha virt. eigenvalues --    0.48533   0.48901   0.49008   0.50439   0.51270
 Alpha virt. eigenvalues --    0.51637   0.51752   0.52113   0.52946   0.53979
 Alpha virt. eigenvalues --    0.54086   0.54699   0.55681   0.55768   0.57341
 Alpha virt. eigenvalues --    0.58244   0.58819   0.61459   0.62157   0.62355
 Alpha virt. eigenvalues --    0.63232   0.63497   0.65046   0.65165   0.67381
 Alpha virt. eigenvalues --    0.70382   0.70556   0.71053   0.72434   0.72891
 Alpha virt. eigenvalues --    0.75760   0.76025   0.76318   0.76902   0.77101
 Alpha virt. eigenvalues --    0.77855   0.77927   0.78278   0.79860   0.80406
 Alpha virt. eigenvalues --    0.81281   0.81628   0.82134   0.83026   0.85225
 Alpha virt. eigenvalues --    0.87192   0.88236   0.88637   0.89112   0.90437
 Alpha virt. eigenvalues --    0.91158   0.91245   0.93197   0.94651   0.96482
 Alpha virt. eigenvalues --    0.96641   1.00363   1.01324   1.01677   1.02721
 Alpha virt. eigenvalues --    1.03206   1.03868   1.04744   1.05390   1.08807
 Alpha virt. eigenvalues --    1.19582   1.23245   1.24099   1.25301   1.28164
 Alpha virt. eigenvalues --    1.29639   1.31822   1.34234   1.35798   1.36013
 Alpha virt. eigenvalues --    1.39400   1.40179   1.40983   1.42944   1.43510
 Alpha virt. eigenvalues --    1.43548   1.45091   1.45518   1.46392   1.46688
 Alpha virt. eigenvalues --    1.47641   1.48059   1.51809   1.53630   1.55807
 Alpha virt. eigenvalues --    1.56039   1.56356   1.56559   1.57824   1.61508
 Alpha virt. eigenvalues --    1.63182   1.63503   1.63740   1.66153   1.68356
 Alpha virt. eigenvalues --    1.68380   1.68657   1.69703   1.74454   1.76015
 Alpha virt. eigenvalues --    1.77238   1.78048   1.80172   1.80192   1.80747
 Alpha virt. eigenvalues --    1.83198   1.83200   1.83674   1.83805   1.84131
 Alpha virt. eigenvalues --    1.84305   1.85849   1.86099   1.88246   1.91412
 Alpha virt. eigenvalues --    1.92120   1.94161   1.95245   1.97712   1.98190
 Alpha virt. eigenvalues --    1.99789   2.02688   2.04486   2.07261   2.11837
 Alpha virt. eigenvalues --    2.12112   2.14122   2.15216   2.19197   2.21379
 Alpha virt. eigenvalues --    2.22798   2.28515   2.30400   2.34736   2.34996
 Alpha virt. eigenvalues --    2.36226   2.38686   2.39594   2.42406   2.44328
 Alpha virt. eigenvalues --    2.46200   2.46839   2.49410   2.52957   2.53834
 Alpha virt. eigenvalues --    2.54428   2.56656   2.57856   2.58299   2.59662
 Alpha virt. eigenvalues --    2.59834   2.61631   2.62178   2.63573   2.63855
 Alpha virt. eigenvalues --    2.64794   2.65154   2.65228   2.65372   2.68125
 Alpha virt. eigenvalues --    2.68663   2.70984   2.71420   2.73358   2.74836
 Alpha virt. eigenvalues --    2.76302   2.79028   2.79764   2.83060   2.83089
 Alpha virt. eigenvalues --    2.84926   2.86383   2.92152   2.96966   2.99540
 Alpha virt. eigenvalues --    3.00107   3.05477   3.11242   3.11607   3.13168
 Alpha virt. eigenvalues --    3.21207   3.24288   3.26876   3.28325   3.30807
 Alpha virt. eigenvalues --    3.32805   3.33664   3.43424   3.45927   3.46845
 Alpha virt. eigenvalues --    3.48750   3.50300   3.56650   3.65047   3.67120
 Alpha virt. eigenvalues --    3.67500   3.94182   3.94580   3.95132   3.96270
 Alpha virt. eigenvalues --    4.04036   4.06964   4.07621   4.12529   4.35780
 Alpha virt. eigenvalues --    4.61874   4.69936   4.71695  23.45325  23.60632
 Alpha virt. eigenvalues --   23.82315  23.85926  23.88031  23.89378  23.90471
 Alpha virt. eigenvalues --   23.92475  23.97930  23.99399  23.99981  24.00750
 Alpha virt. eigenvalues --   24.10616  24.10774
          Condensed to atoms (all electrons):
               1          2          3          4          5          6
     1  C    8.561471   0.378003  -0.552294   1.896372  -0.007877  -0.096036
     2  C    0.378003   7.067775   0.361826  -1.029630  -0.024718  -0.014934
     3  C   -0.552294   0.361826   6.581878   0.747229  -0.121531   0.016957
     4  C    1.896372  -1.029630   0.747229  10.750157  -0.300696  -0.118078
     5  C   -0.007877  -0.024718  -0.121531  -0.300696  10.855924   0.732916
     6  C   -0.096036  -0.014934   0.016957  -0.118078   0.732916   6.585672
     7  C   -0.023164   0.003736  -0.015248  -0.031598  -1.001406   0.384807
     8  C    0.406410  -0.027443  -0.092887   0.001850   1.821370  -0.585987
     9  C   -1.263663  -0.767349   0.284716  -0.303049  -0.240503   0.285199
    10  C   -1.244942   0.245655  -0.370386  -2.520888  -2.574868  -0.346177
    11  C    0.242027  -0.961449   1.041137  -0.223549  -1.506421  -0.186898
    12  C   -1.888218   1.332353  -1.373106  -1.450888  -0.339169  -0.189625
    13  C    0.154409  -0.244501  -0.170677  -1.482613  -0.217482   1.007633
    14  C   -1.056559  -0.192491  -0.212201  -0.302365  -1.447703  -1.351047
    15  H    0.364531  -0.102779  -0.001743   0.026606   0.005904   0.001079
    16  H   -0.019515   0.376999  -0.015030   0.013228  -0.001536  -0.000324
    17  H   -0.023411  -0.016110   0.373419  -0.066191   0.000337   0.000391
    18  H    0.048901   0.002939  -0.085249   0.452227   0.007671  -0.004972
    19  H   -0.047309  -0.007421   0.050672  -0.069037  -0.071676   0.050602
    20  H    0.007569   0.001949  -0.004932   0.007707   0.453736  -0.085251
    21  H   -0.001342  -0.000394   0.000395   0.000277  -0.066607   0.375173
    22  H    0.000738   0.000364  -0.000332  -0.001578   0.014264  -0.016447
    23  H    0.005804  -0.002767   0.001117   0.006127   0.025888  -0.002315
    24  H    0.030801   0.014021  -0.001483  -0.012471  -0.012218  -0.001416
    25  H    0.030801   0.014021  -0.001483  -0.012471  -0.012218  -0.001416
               7          8          9         10         11         12
     1  C   -0.023164   0.406410  -1.263663  -1.244942   0.242027  -1.888218
     2  C    0.003736  -0.027443  -0.767349   0.245655  -0.961449   1.332353
     3  C   -0.015248  -0.092887   0.284716  -0.370386   1.041137  -1.373106
     4  C   -0.031598   0.001850  -0.303049  -2.520888  -0.223549  -1.450888
     5  C   -1.001406   1.821370  -0.240503  -2.574868  -1.506421  -0.339169
     6  C    0.384807  -0.585987   0.285199  -0.346177  -0.186898  -0.189625
     7  C    7.069896   0.445590  -0.779214   0.218779  -0.232956  -0.221486
     8  C    0.445590   8.492721  -1.269228  -1.216327   0.149242  -1.075999
     9  C   -0.779214  -1.269228   9.661905   0.250525   1.758139  -1.976384
    10  C    0.218779  -1.216327   0.250525   9.264414  -0.585357   2.439205
    11  C   -0.232956   0.149242   1.758139  -0.585357  14.664146  -3.796932
    12  C   -0.221486  -1.075999  -1.976384   2.439205  -3.796932  16.025621
    13  C   -0.932576   0.243351   1.780960  -0.557770   1.090124  -4.873920
    14  C    1.239477  -1.784652  -2.028794   2.425268  -4.861590   2.942521
    15  H   -0.002693   0.006059   0.092618  -0.009840  -0.029946  -0.025857
    16  H    0.000352   0.000646   0.004709  -0.009784   0.029837  -0.036266
    17  H   -0.000401  -0.001318  -0.006094   0.020866  -0.028794   0.091411
    18  H    0.001946   0.007526  -0.025847   0.017500  -0.009822  -0.052193
    19  H   -0.007566  -0.046464   0.076559   0.422303   0.078076  -0.061958
    20  H    0.003052   0.047982  -0.025366   0.016591  -0.011677  -0.013028
    21  H   -0.018029  -0.021683  -0.005839   0.020700  -0.006371   0.005247
    22  H    0.378175  -0.019886   0.004446  -0.010098   0.003231  -0.009334
    23  H   -0.102472   0.364183   0.091449  -0.009319   0.000777   0.006899
    24  H    0.014441   0.032281   0.358059   0.005621   0.011536  -0.059604
    25  H    0.014441   0.032281   0.358059   0.005621   0.011536  -0.059604
              13         14         15         16         17         18
     1  C    0.154409  -1.056559   0.364531  -0.019515  -0.023411   0.048901
     2  C   -0.244501  -0.192491  -0.102779   0.376999  -0.016110   0.002939
     3  C   -0.170677  -0.212201  -0.001743  -0.015030   0.373419  -0.085249
     4  C   -1.482613  -0.302365   0.026606   0.013228  -0.066191   0.452227
     5  C   -0.217482  -1.447703   0.005904  -0.001536   0.000337   0.007671
     6  C    1.007633  -1.351047   0.001079  -0.000324   0.000391  -0.004972
     7  C   -0.932576   1.239477  -0.002693   0.000352  -0.000401   0.001946
     8  C    0.243351  -1.784652   0.006059   0.000646  -0.001318   0.007526
     9  C    1.780960  -2.028794   0.092618   0.004709  -0.006094  -0.025847
    10  C   -0.557770   2.425268  -0.009840  -0.009784   0.020866   0.017500
    11  C    1.090124  -4.861590  -0.029946   0.029837  -0.028794  -0.009822
    12  C   -4.873920   2.942521  -0.025857  -0.036266   0.091411  -0.052193
    13  C   14.680399  -3.889468   0.002199   0.003123  -0.006380  -0.011663
    14  C   -3.889468  16.064528   0.006602  -0.008968   0.005297  -0.011228
    15  H    0.002199   0.006602   0.439084  -0.008927   0.001431   0.000197
    16  H    0.003123  -0.008968  -0.008927   0.419608  -0.006570   0.001899
    17  H   -0.006380   0.005297   0.001431  -0.006570   0.422767  -0.010160
    18  H   -0.011663  -0.011228   0.000197   0.001899  -0.010160   0.453583
    19  H    0.076952  -0.067886   0.000276  -0.000519   0.001356  -0.006156
    20  H   -0.010649  -0.049645  -0.000109   0.000014  -0.000138   0.001296
    21  H   -0.028308   0.089580   0.000012  -0.000007   0.000010  -0.000145
    22  H    0.029647  -0.035800  -0.000126   0.000007  -0.000007   0.000015
    23  H   -0.029335  -0.022608   0.000613  -0.000125   0.000013  -0.000112
    24  H    0.014815  -0.059378  -0.000880   0.000627  -0.000142   0.000178
    25  H    0.014815  -0.059378  -0.000880   0.000627  -0.000142   0.000178
              19         20         21         22         23         24
     1  C   -0.047309   0.007569  -0.001342   0.000738   0.005804   0.030801
     2  C   -0.007421   0.001949  -0.000394   0.000364  -0.002767   0.014021
     3  C    0.050672  -0.004932   0.000395  -0.000332   0.001117  -0.001483
     4  C   -0.069037   0.007707   0.000277  -0.001578   0.006127  -0.012471
     5  C   -0.071676   0.453736  -0.066607   0.014264   0.025888  -0.012218
     6  C    0.050602  -0.085251   0.375173  -0.016447  -0.002315  -0.001416
     7  C   -0.007566   0.003052  -0.018029   0.378175  -0.102472   0.014441
     8  C   -0.046464   0.047982  -0.021683  -0.019886   0.364183   0.032281
     9  C    0.076559  -0.025366  -0.005839   0.004446   0.091449   0.358059
    10  C    0.422303   0.016591   0.020700  -0.010098  -0.009319   0.005621
    11  C    0.078076  -0.011677  -0.006371   0.003231   0.000777   0.011536
    12  C   -0.061958  -0.013028   0.005247  -0.009334   0.006899  -0.059604
    13  C    0.076952  -0.010649  -0.028308   0.029647  -0.029335   0.014815
    14  C   -0.067886  -0.049645   0.089580  -0.035800  -0.022608  -0.059378
    15  H    0.000276  -0.000109   0.000012  -0.000126   0.000613  -0.000880
    16  H   -0.000519   0.000014  -0.000007   0.000007  -0.000125   0.000627
    17  H    0.001356  -0.000138   0.000010  -0.000007   0.000013  -0.000142
    18  H   -0.006156   0.001296  -0.000145   0.000015  -0.000112   0.000178
    19  H    0.442559  -0.006008   0.001439  -0.000537   0.000305   0.000626
    20  H   -0.006008   0.452084  -0.010098   0.001911   0.000221   0.000166
    21  H    0.001439  -0.010098   0.422038  -0.006718   0.001489  -0.000139
    22  H   -0.000537   0.001911  -0.006718   0.418713  -0.008921   0.000626
    23  H    0.000305   0.000221   0.001489  -0.008921   0.437645  -0.000886
    24  H    0.000626   0.000166  -0.000139   0.000626  -0.000886   0.495000
    25  H    0.000626   0.000166  -0.000139   0.000626  -0.000886  -0.081066
              25
     1  C    0.030801
     2  C    0.014021
     3  C   -0.001483
     4  C   -0.012471
     5  C   -0.012218
     6  C   -0.001416
     7  C    0.014441
     8  C    0.032281
     9  C    0.358059
    10  C    0.005621
    11  C    0.011536
    12  C   -0.059604
    13  C    0.014815
    14  C   -0.059378
    15  H   -0.000880
    16  H    0.000627
    17  H   -0.000142
    18  H    0.000178
    19  H    0.000626
    20  H    0.000166
    21  H   -0.000139
    22  H    0.000626
    23  H   -0.000886
    24  H   -0.081066
    25  H    0.495000
 Mulliken charges:
               1
     1  C    0.096494
     2  C   -0.407653
     3  C   -0.440763
     4  C    0.023320
     5  C    0.028619
     6  C   -0.439505
     7  C   -0.405882
     8  C    0.090382
     9  C   -0.316014
    10  C    0.102709
    11  C   -0.638046
    12  C    0.660312
    13  C   -0.643087
    14  C    0.668487
    15  H    0.236572
    16  H    0.255896
    17  H    0.248559
    18  H    0.221491
    19  H    0.190185
    20  H    0.222456
    21  H    0.249458
    22  H    0.257023
    23  H    0.237215
    24  H    0.250887
    25  H    0.250887
 Sum of Mulliken charges =   1.00000
 Mulliken charges with hydrogens summed into heavy atoms:
               1
     1  C    0.333065
     2  C   -0.151758
     3  C   -0.192204
     4  C    0.244812
     5  C    0.251074
     6  C   -0.190047
     7  C   -0.148859
     8  C    0.327597
     9  C    0.185760
    10  C    0.292894
    11  C   -0.638046
    12  C    0.660312
    13  C   -0.643087
    14  C    0.668487
 Electronic spatial extent (au):  <R**2>=           2853.6106
 Charge=              1.0000 electrons
 Dipole moment (field-independent basis, Debye):
    X=             -0.1392    Y=              0.1819    Z=             -0.0000  Tot=              0.2291
 Quadrupole moment (field-independent basis, Debye-Ang):
   XX=            -31.1572   YY=            -56.2499   ZZ=            -84.1403
   XY=             -0.1767   XZ=              0.0000   YZ=              0.0000
 Traceless Quadrupole moment (field-independent basis, Debye-Ang):
   XX=             26.0253   YY=              0.9326   ZZ=            -26.9578
   XY=             -0.1767   XZ=              0.0000   YZ=              0.0000
 Octapole moment (field-independent basis, Debye-Ang**2):
  XXX=             -1.5179  YYY=              5.1449  ZZZ=             -0.0000  XYY=             -0.2853
  XXY=             -5.1677  XXZ=             -0.0000  XZZ=             -0.2162  YZZ=             -3.0574
  YYZ=             -0.0000  XYZ=             -0.0000
 Hexadecapole moment (field-independent basis, Debye-Ang**3):
 XXXX=          -2121.7276 YYYY=           -608.4975 ZZZZ=            -99.3108 XXXY=              3.1294
 XXXZ=             -0.0000 YYYX=              4.8899 YYYZ=              0.0000 ZZZX=             -0.0000
 ZZZY=              0.0000 XXYY=           -507.2205 XXZZ=           -590.2339 YYZZ=           -145.6358
 XXYZ=             -0.0000 YYXZ=              0.0000 ZZXY=              2.3851
 N-N= 7.815405856026D+02 E-N=-2.799434715665D+03  KE= 5.375242902805D+02
 Symmetry A'   KE= 5.228769851824D+02
 Symmetry A"   KE= 1.464730509810D+01
 Unable to Open any file for archive entry.
 1\1\GINC-GADI-CPU-CLX-0648\SP\RM062X TD-FC\6-311++G(d,p)\C14H11(1+)\TS
 1578\27-Jul-2022\0\\#n M062X/6-311++G(d,p) TD(NStates=1) EmpiricalDisp
 ersion=GD3 SP\\SP_-75\\1,1\C,0,2.4928,1.37,0.\C,0,3.70395,0.683075,0.\
 C,0,3.684,-0.70025,0.\C,0,2.459125,-1.396275,0.\C,0,-2.466925,-1.40082
 5,0.\C,0,-3.6817,-0.70645,0.\C,0,-3.695725,0.67955,0.\C,0,-2.48595,1.3
 703,0.\C,0,0.002275,1.4544,0.\C,0,-0.0061,-1.42015,0.\C,0,1.260925,0.6
 837,0.\C,0,1.2357,-0.722325,0.\C,0,-1.26275,0.687525,0.\C,0,-1.2407,-0
 .722925,0.\H,0,2.4853,2.453325,0.\H,0,4.63895,1.22315,0.\H,0,4.60805,-
 1.261625,0.\H,0,2.4662,-2.478925,0.\H,0,-0.005625,-2.501425,0.\H,0,-2.
 46985,-2.48335,0.\H,0,-4.6095,-1.2614,0.\H,0,-4.630625,1.220275,0.\H,0
 ,-2.4832,2.45355,0.\H,0,0.008,2.15275,-0.857675\H,0,0.008,2.15275,0.85
 7675\\Version=ES64L-G16RevC.01\State=1-A'\HF=-539.7599776\RMSD=4.804e-
 09\PG=CS [SG(C14H9),X(H2)]\\@
 The archive entry for this job was punched.


 Time has a wonderful way of weeding out the trivial.
                                -- Richard Ben Sapir
 Job cpu time:       0 days  0 hours 46 minutes 12.5 seconds.
 Elapsed time:       0 days  0 hours  1 minutes 27.9 seconds.
 File lengths (MBytes):  RWF=    460 Int=      0 D2E=      0 Chk=     15 Scr=      1
 Normal termination of Gaussian 16 at Wed Jul 27 10:23:29 2022.
