 Entering Gaussian System, Link 0=g16
 Initial command:
 /apps/gaussian/g16c01/g16/l1.exe "/jobfs/52804872.gadi-pbs/Gau-1778794.inp" -scrdir="/jobfs/52804872.gadi-pbs/"
 Entering Link 1 = /apps/gaussian/g16c01/g16/l1.exe PID=   1778795.
  
 Copyright (c) 1988-2019, Gaussian, Inc.  All Rights Reserved.
  
 This is part of the Gaussian(R) 16 program.  It is based on
 the Gaussian(R) 09 system (copyright 2009, Gaussian, Inc.),
 the Gaussian(R) 03 system (copyright 2003, Gaussian, Inc.),
 the Gaussian(R) 98 system (copyright 1998, Gaussian, Inc.),
 the Gaussian(R) 94 system (copyright 1995, Gaussian, Inc.),
 the Gaussian 92(TM) system (copyright 1992, Gaussian, Inc.),
 the Gaussian 90(TM) system (copyright 1990, Gaussian, Inc.),
 the Gaussian 88(TM) system (copyright 1988, Gaussian, Inc.),
 the Gaussian 86(TM) system (copyright 1986, Carnegie Mellon
 University), and the Gaussian 82(TM) system (copyright 1983,
 Carnegie Mellon University). Gaussian is a federally registered
 trademark of Gaussian, Inc.
  
 This software contains proprietary and confidential information,
 including trade secrets, belonging to Gaussian, Inc.
  
 This software is provided under written license and may be
 used, copied, transmitted, or stored only in accord with that
 written license.
  
 The following legend is applicable only to US Government
 contracts under FAR:
  
                    RESTRICTED RIGHTS LEGEND
  
 Use, reproduction and disclosure by the US Government is
 subject to restrictions as set forth in subparagraphs (a)
 and (c) of the Commercial Computer Software - Restricted
 Rights clause in FAR 52.227-19.
  
 Gaussian, Inc.
 340 Quinnipiac St., Bldg. 40, Wallingford CT 06492
  
  
 ---------------------------------------------------------------
 Warning -- This program may not be used in any manner that
 competes with the business of Gaussian, Inc. or will provide
 assistance to any competitor of Gaussian, Inc.  The licensee
 of this program is prohibited from giving any competitor of
 Gaussian, Inc. access to this program.  By using this program,
 the user acknowledges that Gaussian, Inc. is engaged in the
 business of creating and licensing software in the field of
 computational chemistry and represents and warrants to the
 licensee that it is not a competitor of Gaussian, Inc. and that
 it will not use this program in any manner prohibited above.
 ---------------------------------------------------------------
  

 Cite this work as:
 Gaussian 16, Revision C.01,
 M. J. Frisch, G. W. Trucks, H. B. Schlegel, G. E. Scuseria, 
 M. A. Robb, J. R. Cheeseman, G. Scalmani, V. Barone, 
 G. A. Petersson, H. Nakatsuji, X. Li, M. Caricato, A. V. Marenich, 
 J. Bloino, B. G. Janesko, R. Gomperts, B. Mennucci, H. P. Hratchian, 
 J. V. Ortiz, A. F. Izmaylov, J. L. Sonnenberg, D. Williams-Young, 
 F. Ding, F. Lipparini, F. Egidi, J. Goings, B. Peng, A. Petrone, 
 T. Henderson, D. Ranasinghe, V. G. Zakrzewski, J. Gao, N. Rega, 
 G. Zheng, W. Liang, M. Hada, M. Ehara, K. Toyota, R. Fukuda, 
 J. Hasegawa, M. Ishida, T. Nakajima, Y. Honda, O. Kitao, H. Nakai, 
 T. Vreven, K. Throssell, J. A. Montgomery, Jr., J. E. Peralta, 
 F. Ogliaro, M. J. Bearpark, J. J. Heyd, E. N. Brothers, K. N. Kudin, 
 V. N. Staroverov, T. A. Keith, R. Kobayashi, J. Normand, 
 K. Raghavachari, A. P. Rendell, J. C. Burant, S. S. Iyengar, 
 J. Tomasi, M. Cossi, J. M. Millam, M. Klene, C. Adamo, R. Cammi, 
 J. W. Ochterski, R. L. Martin, K. Morokuma, O. Farkas, 
 J. B. Foresman, and D. J. Fox, Gaussian, Inc., Wallingford CT, 2019.
 
 ******************************************
 Gaussian 16:  ES64L-G16RevC.01  3-Jul-2019
                27-Jul-2022 
 ******************************************
 %NProcShared=32
 Will use up to   32 processors via shared memory.
 %mem = 128GB
 ---------------------------------------------------------------
 #n M062X/6-311++G(d,p) TD(NStates=1) EmpiricalDispersion=GD3 SP
 ---------------------------------------------------------------
 1/38=1,172=1/1;
 2/12=2,17=6,18=5,40=1/2;
 3/5=4,6=6,7=1111,11=9,25=1,30=1,74=-55,124=31/1,2,3,8;
 4//1;
 5/5=2,38=5/2;
 8/6=1,10=2,108=1/1;
 9/41=1,42=1,70=2/14;
 6/7=2,8=2,9=2,10=2/1;
 99/5=1,9=1/99;
 ------
 SP_125
 ------
 Symbolic Z-matrix:
 Charge =  1 Multiplicity = 1
 C                     2.49745   1.3676    0. 
 C                     3.70388   0.67983   0. 
 C                     3.6854   -0.7076    0. 
 C                     2.46345  -1.3994    0. 
 C                    -2.46345  -1.3994    0. 
 C                    -3.6854   -0.7076    0. 
 C                    -3.70388   0.67983   0. 
 C                    -2.49745   1.3676    0. 
 C                    -0.00013   1.4731    0. 
 C                     0.       -1.421     0. 
 C                     1.26248   0.68583   0. 
 C                     1.2365   -0.72135   0. 
 C                    -1.26248   0.68583   0. 
 C                    -1.2365   -0.72135   0. 
 H                     2.4936    2.45068   0. 
 H                     4.63968   1.21853   0. 
 H                     4.61005  -1.26683   0. 
 H                     2.46675  -2.48178   0. 
 H                     0.       -2.50185   0. 
 H                    -2.46675  -2.48178   0. 
 H                    -4.61005  -1.26683   0. 
 H                    -4.63968   1.21853   0. 
 H                    -2.4936    2.45068   0. 
 H                     0.        2.157    -0.86235 
 H                     0.        2.157     0.86235 
 
                          Input orientation:                          
 ---------------------------------------------------------------------
 Center     Atomic      Atomic             Coordinates (Angstroms)
 Number     Number       Type             X           Y           Z
 ---------------------------------------------------------------------
      1          6           0        2.497450    1.367600    0.000000
      2          6           0        3.703875    0.679825    0.000000
      3          6           0        3.685400   -0.707600    0.000000
      4          6           0        2.463450   -1.399400    0.000000
      5          6           0       -2.463450   -1.399400    0.000000
      6          6           0       -3.685400   -0.707600    0.000000
      7          6           0       -3.703875    0.679825    0.000000
      8          6           0       -2.497450    1.367600    0.000000
      9          6           0       -0.000125    1.473100    0.000000
     10          6           0        0.000000   -1.421000    0.000000
     11          6           0        1.262475    0.685825    0.000000
     12          6           0        1.236500   -0.721350    0.000000
     13          6           0       -1.262475    0.685825    0.000000
     14          6           0       -1.236500   -0.721350    0.000000
     15          1           0        2.493600    2.450675    0.000000
     16          1           0        4.639675    1.218525    0.000000
     17          1           0        4.610050   -1.266825    0.000000
     18          1           0        2.466750   -2.481775    0.000000
     19          1           0        0.000000   -2.501850    0.000000
     20          1           0       -2.466750   -2.481775    0.000000
     21          1           0       -4.610050   -1.266825    0.000000
     22          1           0       -4.639675    1.218525    0.000000
     23          1           0       -2.493600    2.450675    0.000000
     24          1           0        0.000000    2.157000   -0.862350
     25          1           0        0.000000    2.157000    0.862350
 ---------------------------------------------------------------------
                    Distance matrix (angstroms):
                    1          2          3          4          5
     1  C    0.000000
     2  C    1.388703   0.000000
     3  C    2.391167   1.387548   0.000000
     4  C    2.767209   2.421122   1.404190   0.000000
     5  C    5.680389   6.508385   6.187644   4.926900   0.000000
     6  C    6.521816   7.518400   7.370800   6.187644   1.404190
     7  C    6.239348   7.407750   7.518400   6.508385   2.421122
     8  C    4.994900   6.239348   6.521816   5.680389   2.767209
     9  C    2.499802   3.787994   4.282353   3.784238   3.784075
    10  C    3.743467   4.258187   3.753813   2.463545   2.463545
    11  C    1.410667   2.441407   2.795031   2.406347   4.269740
    12  C    2.440022   2.837469   2.448939   1.401841   3.761566
    13  C    3.821237   4.966354   5.140340   4.269740   2.406347
    14  C    4.278562   5.135231   4.921919   3.761566   1.401841
    15  H    1.083082   2.144918   3.375661   3.850193   6.276577
    16  H    2.147406   1.079777   2.149558   3.404333   7.570199
    17  H    3.376873   2.147231   1.080606   2.150690   7.074742
    18  H    3.849497   3.395025   2.152395   1.082380   5.047614
    19  H    4.605421   4.882801   4.098964   2.698885   2.698885
    20  H    6.281797   6.933421   6.402862   5.047614   1.082380
    21  H    7.580023   8.538782   8.314278   7.074742   2.150690
    22  H    7.138682   8.360922   8.544989   7.570199   3.404333
    23  H    5.107214   6.445511   6.939362   6.276577   3.850193
    24  H    2.757545   4.079753   4.746762   4.411373   4.411373
    25  H    2.757545   4.079753   4.746762   4.411373   4.411373
                    6          7          8          9         10
     6  C    0.000000
     7  C    1.387548   0.000000
     8  C    2.391167   1.388703   0.000000
     9  C    4.282138   3.787750   2.499552   0.000000
    10  C    3.753813   4.258187   3.743467   2.894100   0.000000
    11  C    5.140340   4.966354   3.821237   1.487938   2.456126
    12  C    4.921919   5.135231   4.278562   2.518899   1.420719
    13  C    2.795031   2.441407   1.410667   1.487726   2.456126
    14  C    2.448939   2.837469   2.440022   2.518776   1.420719
    15  H    6.939362   6.445511   5.107214   2.678492   4.605204
    16  H    8.544989   8.360922   7.138682   4.646779   5.337947
    17  H    8.314278   8.538782   7.580023   5.362919   4.612627
    18  H    6.402862   6.933421   6.281797   4.661170   2.685163
    19  H    4.098964   4.882801   4.605421   3.974950   1.080850
    20  H    2.152395   3.395025   3.849497   4.661038   2.685163
    21  H    1.080606   2.147231   3.376873   5.362704   4.612627
    22  H    2.149558   1.079777   2.147406   4.646529   5.337947
    23  H    3.375661   2.144918   1.083082   2.678259   4.605204
    24  H    4.746762   4.079753   2.757545   1.100621   3.680453
    25  H    4.746762   4.079753   2.757545   1.100621   3.680453
                   11         12         13         14         15
    11  C    0.000000
    12  C    1.407415   0.000000
    13  C    2.524950   2.867929   0.000000
    14  C    2.867929   2.473000   1.407415   0.000000
    15  H    2.151828   3.412044   4.150036   4.896467   0.000000
    16  H    3.418954   3.917233   5.926141   6.188097   2.474638
    17  H    3.875448   3.417365   6.188650   5.871941   4.277753
    18  H    3.388800   2.147699   4.892935   4.100385   4.932523
    19  H    3.428573   2.167744   3.428573   2.167744   5.544867
    20  H    4.892935   4.100385   3.388800   2.147699   6.995294
    21  H    6.188650   5.871941   3.875448   3.417365   8.017584
    22  H    5.926141   6.188097   3.418954   3.917233   7.238909
    23  H    4.150036   4.896467   2.151828   3.412044   4.987200
    24  H    2.121756   3.249227   2.121756   3.249227   2.654794
    25  H    2.121756   3.249227   2.121756   3.249227   2.654794
                   16         17         18         19         20
    16  H    0.000000
    17  H    2.485527   0.000000
    18  H    4.291133   2.463704   0.000000
    19  H    5.947081   4.772614   2.466832   0.000000
    20  H    8.012084   7.180334   4.933500   2.466832   0.000000
    21  H    9.577806   9.220100   7.180334   4.772614   2.463704
    22  H    9.279350   9.577806   8.012084   5.947081   4.291133
    23  H    7.238909   8.017584   6.995294   5.544867   4.932523
    24  H    4.811545   5.806788   5.324165   4.737988   5.324165
    25  H    4.811545   5.806788   5.324165   4.737988   5.324165
                   21         22         23         24         25
    21  H    0.000000
    22  H    2.485527   0.000000
    23  H    4.277753   2.474638   0.000000
    24  H    5.806788   4.811545   2.654794   0.000000
    25  H    5.806788   4.811545   2.654794   1.724700   0.000000
 Stoichiometry    C14H11(1+)
 Framework group  CS[SG(C14H9),X(H2)]
 Deg. of freedom    46
 Full point group                 CS      NOp   2
 Largest Abelian subgroup         CS      NOp   2
 Largest concise Abelian subgroup CS      NOp   2
                         Standard orientation:                         
 ---------------------------------------------------------------------
 Center     Atomic      Atomic             Coordinates (Angstroms)
 Number     Number       Type             X           Y           Z
 ---------------------------------------------------------------------
      1          6           0        1.358918    2.497458    0.000000
      2          6           0        0.671143    3.703883    0.000000
      3          6           0       -0.716282    3.685408    0.000000
      4          6           0       -1.408082    2.463458    0.000000
      5          6           0       -1.408082   -2.463442    0.000000
      6          6           0       -0.716282   -3.685392    0.000000
      7          6           0        0.671143   -3.703867    0.000000
      8          6           0        1.358918   -2.497442    0.000000
      9          6           0        1.464418   -0.000117    0.000000
     10          6           0       -1.429682    0.000008    0.000000
     11          6           0        0.677143    1.262483    0.000000
     12          6           0       -0.730032    1.236508    0.000000
     13          6           0        0.677143   -1.262467    0.000000
     14          6           0       -0.730032   -1.236492    0.000000
     15          1           0        2.441993    2.493608    0.000000
     16          1           0        1.209843    4.639683    0.000000
     17          1           0       -1.275507    4.610058    0.000000
     18          1           0       -2.490457    2.466758    0.000000
     19          1           0       -2.510532    0.000008    0.000000
     20          1           0       -2.490457   -2.466742    0.000000
     21          1           0       -1.275507   -4.610042    0.000000
     22          1           0        1.209843   -4.639667    0.000000
     23          1           0        2.441993   -2.493592    0.000000
     24          1           0        2.148318    0.000008    0.862350
     25          1           0        2.148318    0.000008   -0.862350
 ---------------------------------------------------------------------
 Rotational constants (GHZ):           2.1326025           0.4440813           0.3683487
 Standard basis: 6-311++G(d,p) (5D, 7F)
 There are   299 symmetry adapted cartesian basis functions of A'  symmetry.
 There are   100 symmetry adapted cartesian basis functions of A"  symmetry.
 There are   285 symmetry adapted basis functions of A'  symmetry.
 There are   100 symmetry adapted basis functions of A"  symmetry.
   385 basis functions,   603 primitive gaussians,   399 cartesian basis functions
    47 alpha electrons       47 beta electrons
       nuclear repulsion energy       780.6952490824 Hartrees.
 NAtoms=   25 NActive=   25 NUniq=   24 SFac= 1.09D+00 NAtFMM=   60 NAOKFM=F Big=F
 Integral buffers will be    131072 words long.
 Regular integral format.
 Two-electron integral symmetry is turned on.
 Nuclear repulsion after empirical dispersion term =      780.6942694288 Hartrees.
 One-electron integrals computed using PRISM.
 NBasis=   385 RedAO= T EigKep=  1.15D-06  NBF=   285   100
 NBsUse=   379 1.00D-06 EigRej=  8.45D-07 NBFU=   279   100
 ExpMin= 3.60D-02 ExpMax= 4.56D+03 ExpMxC= 6.82D+02 IAcc=3 IRadAn=         5 AccDes= 0.00D+00
 Harris functional with IExCor= 1009 and IRadAn=       5 diagonalized for initial guess.
 HarFok:  IExCor= 1009 AccDes= 0.00D+00 IRadAn=         5 IDoV= 1 UseB2=F ITyADJ=14
 ICtDFT=  3500011 ScaDFX=  1.000000  1.000000  1.000000  1.000000
 FoFCou: FMM=F IPFlag=           0 FMFlag=      100000 FMFlg1=           0
         NFxFlg=           0 DoJE=T BraDBF=F KetDBF=T FulRan=T
         wScrn=  0.000000 ICntrl=       500 IOpCl=  0 I1Cent=   200000004 NGrid=           0
         NMat0=    1 NMatS0=      1 NMatT0=    0 NMatD0=    1 NMtDS0=    0 NMtDT0=    0
 Petite list used in FoFCou.
 Initial guess orbital symmetries:
       Occupied  (A') (A') (A') (A') (A') (A') (A') (A') (A') (A')
                 (A') (A') (A') (A') (A') (A') (A') (A') (A') (A')
                 (A') (A') (A') (A') (A') (A') (A') (A') (A') (A')
                 (A') (A') (A") (A') (A') (A') (A') (A') (A') (A")
                 (A") (A') (A') (A") (A") (A") (A")
       Virtual   (A") (A") (A") (A") (A") (A') (A') (A') (A') (A")
                 (A") (A') (A') (A') (A") (A') (A') (A') (A') (A")
                 (A') (A") (A') (A') (A') (A") (A') (A") (A') (A')
                 (A') (A') (A') (A') (A") (A') (A") (A') (A') (A")
                 (A') (A') (A') (A") (A') (A') (A') (A') (A') (A")
                 (A') (A') (A") (A") (A') (A') (A') (A") (A") (A')
                 (A') (A') (A') (A') (A') (A') (A") (A') (A') (A")
                 (A') (A') (A') (A') (A') (A') (A') (A') (A') (A')
                 (A') (A') (A') (A') (A') (A') (A') (A') (A') (A')
                 (A') (A') (A') (A') (A') (A') (A') (A") (A') (A")
                 (A') (A') (A") (A") (A') (A") (A') (A") (A') (A")
                 (A") (A') (A') (A') (A") (A') (A') (A") (A') (A")
                 (A") (A") (A') (A') (A') (A") (A') (A') (A') (A")
                 (A') (A') (A') (A') (A') (A') (A") (A') (A') (A')
                 (A') (A') (A') (A') (A') (A') (A') (A') (A') (A")
                 (A') (A") (A") (A") (A') (A') (A') (A") (A") (A')
                 (A") (A') (A") (A") (A") (A') (A') (A') (A') (A')
                 (A') (A") (A") (A') (A') (A') (A') (A') (A') (A")
                 (A') (A') (A') (A') (A') (A") (A") (A') (A") (A")
                 (A') (A") (A') (A") (A') (A') (A') (A") (A') (A')
                 (A") (A") (A") (A') (A') (A") (A') (A") (A') (A')
                 (A") (A") (A') (A") (A') (A") (A') (A') (A') (A')
                 (A") (A') (A') (A') (A") (A') (A') (A') (A") (A")
                 (A') (A') (A') (A") (A') (A') (A") (A') (A") (A')
                 (A") (A') (A') (A') (A') (A") (A') (A') (A') (A")
                 (A') (A') (A") (A') (A") (A') (A') (A") (A') (A')
                 (A') (A") (A') (A") (A') (A') (A') (A") (A') (A")
                 (A') (A') (A') (A') (A") (A') (A") (A') (A") (A')
                 (A") (A') (A") (A") (A") (A') (A') (A') (A') (A')
                 (A') (A') (A') (A') (A') (A') (A') (A') (A') (A')
                 (A') (A') (A') (A') (A') (A") (A') (A') (A') (A')
                 (A') (A') (A') (A') (A') (A') (A') (A') (A') (A')
                 (A') (A') (A') (A') (A') (A') (A') (A') (A') (A')
                 (A') (A')
 The electronic state of the initial guess is 1-A'.
 Requested convergence on RMS density matrix=1.00D-08 within 128 cycles.
 Requested convergence on MAX density matrix=1.00D-06.
 Requested convergence on             energy=1.00D-06.
 No special actions if energy rises.
 SCF Done:  E(RM062X) =  -539.760253552     A.U. after   14 cycles
            NFock= 14  Conv=0.99D-08     -V/T= 2.0042
 DoSCS=F DFT=T ScalE2(SS,OS)=  1.000000  1.000000
 ExpMin= 3.60D-02 ExpMax= 4.56D+03 ExpMxC= 6.82D+02 IAcc=3 IRadAn=         5 AccDes= 0.00D+00
 HarFok:  IExCor=  205 AccDes= 0.00D+00 IRadAn=         5 IDoV=-2 UseB2=F ITyADJ=14
 ICtDFT= 12500011 ScaDFX=  1.000000  1.000000  1.000000  1.000000
 Range of M.O.s used for correlation:    15   379
 NBasis=   385 NAE=    47 NBE=    47 NFC=    14 NFV=     0
 NROrb=    365 NOA=    33 NOB=    33 NVA=   332 NVB=   332

 **** Warning!!: The largest alpha MO coefficient is  0.14789226D+03

 Orbital symmetries:
       Occupied  (A') (A') (A') (A') (A') (A') (A') (A') (A') (A')
                 (A') (A') (A') (A') (A') (A') (A') (A') (A') (A')
                 (A') (A') (A') (A') (A') (A') (A') (A') (A') (A')
                 (A') (A') (A") (A') (A') (A') (A') (A") (A") (A')
                 (A') (A') (A') (A") (A") (A") (A")
       Virtual   (A") (A") (A") (A") (A') (A') (A') (A") (A') (A')
                 (A') (A") (A') (A') (A") (A') (A") (A') (A') (A')
                 (A") (A") (A') (A') (A') (A") (A') (A") (A') (A')
                 (A") (A') (A") (A') (A') (A') (A') (A') (A") (A')
                 (A") (A') (A') (A") (A") (A') (A") (A') (A") (A')
                 (A') (A') (A') (A') (A') (A") (A') (A') (A') (A')
                 (A') (A") (A') (A') (A') (A') (A") (A') (A') (A')
                 (A') (A') (A') (A') (A') (A') (A') (A') (A') (A')
                 (A') (A') (A') (A') (A') (A') (A') (A') (A') (A')
                 (A') (A') (A') (A') (A") (A') (A") (A") (A') (A")
                 (A') (A') (A') (A') (A") (A") (A') (A") (A") (A')
                 (A') (A') (A") (A') (A') (A") (A') (A") (A') (A")
                 (A") (A') (A") (A') (A') (A') (A") (A') (A') (A')
                 (A') (A') (A') (A') (A') (A') (A') (A') (A') (A')
                 (A') (A') (A') (A") (A') (A') (A') (A') (A') (A')
                 (A') (A') (A") (A') (A") (A') (A") (A") (A') (A")
                 (A") (A') (A') (A") (A") (A") (A') (A") (A') (A')
                 (A') (A') (A') (A") (A") (A') (A') (A') (A') (A")
                 (A') (A') (A') (A") (A') (A") (A') (A') (A") (A")
                 (A") (A') (A') (A") (A") (A') (A') (A') (A') (A')
                 (A") (A") (A") (A') (A') (A") (A') (A") (A') (A')
                 (A') (A") (A') (A") (A") (A') (A") (A') (A') (A")
                 (A') (A') (A') (A') (A") (A') (A') (A') (A") (A")
                 (A') (A') (A') (A") (A') (A') (A') (A") (A") (A')
                 (A") (A') (A') (A") (A') (A') (A') (A') (A') (A')
                 (A') (A") (A') (A') (A') (A") (A") (A") (A') (A')
                 (A') (A') (A') (A') (A') (A') (A") (A') (A') (A')
                 (A') (A") (A') (A") (A") (A") (A') (A") (A') (A")
                 (A') (A") (A") (A') (A") (A") (A') (A') (A') (A')
                 (A') (A') (A') (A') (A') (A') (A') (A') (A') (A')
                 (A') (A') (A') (A') (A") (A') (A') (A') (A') (A')
                 (A') (A') (A') (A') (A') (A') (A') (A') (A') (A')
                 (A') (A') (A') (A') (A') (A') (A') (A') (A') (A')
                 (A') (A')
     4 initial guesses have been made.
 Convergence on wavefunction:    0.001000000000000
 Iteration     1 Dimension     4 NMult     0 NNew      4
 CISAX will form     4 AO SS matrices at one time.
 Iteration     2 Dimension     6 NMult     4 NNew      2
 Iteration     3 Dimension     8 NMult     6 NNew      2
 Iteration     4 Dimension    10 NMult     8 NNew      2
 Iteration     5 Dimension    12 NMult    10 NNew      2
 Iteration     6 Dimension    14 NMult    12 NNew      2
 ***********************************************************************
 Excited states from <AA,BB:AA,BB> singles matrix:
 ***********************************************************************
 
 Ground to excited state transition densities written to RWF  633
 Ground to excited state transition electric dipole moments (Au):
       state          X           Y           Z        Dip. S.      Osc.
         1         0.6383     -0.0000      0.0000      0.4075      0.0282
 Ground to excited state transition velocity dipole moments (Au):
       state          X           Y           Z        Dip. S.      Osc.
         1        -0.0739      0.0000     -0.0000      0.0055      0.0351
 Ground to excited state transition magnetic dipole moments (Au):
       state          X           Y           Z
         1        -0.0000      0.0000     -0.0001
 Ground to excited state transition velocity quadrupole moments (Au):
       state          XX          YY          ZZ          XY          XZ          YZ
         1         0.0360      0.3004     -0.0099      0.0000     -0.0000      0.0000
 <0|del|b> * <b|rxdel|0> + <0|del|b> * <b|delr+rdel|0>
 Rotatory Strengths (R) in cgs (10**-40 erg-esu-cm/Gauss)
       state          XX          YY          ZZ    R(velocity)    E-M Angle
         1         0.0000     -0.0000      0.0000      0.0000       90.00
 1/2[<0|r|b>*<b|rxdel|0> + (<0|rxdel|b>*<b|r|0>)*]
 Rotatory Strengths (R) in cgs (10**-40 erg-esu-cm/Gauss)
       state          XX          YY          ZZ     R(length)
         1         0.0000      0.0000      0.0000      0.0000
  1/2[<0|del|b>*<b|r|0> + (<0|r|b>*<b|del|0>)*] (Au)
       state          X           Y           Z        Dip. S.   Osc.(frdel)
         1        -0.0472     -0.0000     -0.0000      0.0472      0.0315

 Excitation energies and oscillator strengths:
 
 Excited State   1:      Singlet-A'     2.8236 eV  439.10 nm  f=0.0282  <S**2>=0.000
      47 -> 48         0.70426
 This state for optimization and/or second-order correction.
 Total Energy, E(TD-HF/TD-DFT) =  -539.656487944    
 Copying the excited state density for this state as the 1-particle RhoCI density.
 SavETr:  write IOETrn=   770 NScale= 10 NData=  16 NLR=1 NState=    1 LETran=      28.

 **********************************************************************

            Population analysis using the SCF Density.

 **********************************************************************

 Orbital symmetries:
       Occupied  (A') (A') (A') (A') (A') (A') (A') (A') (A') (A')
                 (A') (A') (A') (A') (A') (A') (A') (A') (A') (A')
                 (A') (A') (A') (A') (A') (A') (A') (A') (A') (A')
                 (A') (A') (A") (A') (A') (A') (A') (A") (A") (A')
                 (A') (A') (A') (A") (A") (A") (A")
       Virtual   (A") (A") (A") (A") (A') (A') (A') (A") (A') (A')
                 (A') (A") (A') (A') (A") (A') (A") (A') (A') (A')
                 (A") (A") (A') (A') (A') (A") (A') (A") (A') (A')
                 (A") (A') (A") (A') (A') (A') (A') (A') (A") (A')
                 (A") (A') (A') (A") (A") (A') (A") (A') (A") (A')
                 (A') (A') (A') (A') (A') (A") (A') (A') (A') (A')
                 (A') (A") (A') (A') (A') (A') (A") (A') (A') (A')
                 (A') (A') (A') (A') (A') (A') (A') (A') (A') (A')
                 (A') (A') (A') (A') (A') (A') (A') (A') (A') (A')
                 (A') (A') (A') (A') (A") (A') (A") (A") (A') (A")
                 (A') (A') (A') (A') (A") (A") (A') (A") (A") (A')
                 (A') (A') (A") (A') (A') (A") (A') (A") (A') (A")
                 (A") (A') (A") (A') (A') (A') (A") (A') (A') (A')
                 (A') (A') (A') (A') (A') (A') (A') (A') (A') (A')
                 (A') (A') (A') (A") (A') (A') (A') (A') (A') (A')
                 (A') (A') (A") (A') (A") (A') (A") (A") (A') (A")
                 (A") (A') (A') (A") (A") (A") (A') (A") (A') (A')
                 (A') (A') (A') (A") (A") (A') (A') (A') (A') (A")
                 (A') (A') (A') (A") (A') (A") (A') (A') (A") (A")
                 (A") (A') (A') (A") (A") (A') (A') (A') (A') (A')
                 (A") (A") (A") (A') (A') (A") (A') (A") (A') (A')
                 (A') (A") (A') (A") (A") (A') (A") (A') (A') (A")
                 (A') (A') (A') (A') (A") (A') (A') (A') (A") (A")
                 (A') (A') (A') (A") (A') (A') (A') (A") (A") (A')
                 (A") (A') (A') (A") (A') (A') (A') (A') (A') (A')
                 (A') (A") (A') (A') (A') (A") (A") (A") (A') (A')
                 (A') (A') (A') (A') (A') (A') (A") (A') (A') (A')
                 (A') (A") (A') (A") (A") (A") (A') (A") (A') (A")
                 (A') (A") (A") (A') (A") (A") (A') (A') (A') (A')
                 (A') (A') (A') (A') (A') (A') (A') (A') (A') (A')
                 (A') (A') (A') (A') (A") (A') (A') (A') (A') (A')
                 (A') (A') (A') (A') (A') (A') (A') (A') (A') (A')
                 (A') (A') (A') (A') (A') (A') (A') (A') (A') (A')
                 (A') (A')
 The electronic state is 1-A'.
 Alpha  occ. eigenvalues --  -10.77689 -10.73307 -10.73306 -10.72459 -10.72457
 Alpha  occ. eigenvalues --  -10.71376 -10.71376 -10.71016 -10.70993 -10.70993
 Alpha  occ. eigenvalues --  -10.69974 -10.69974 -10.69647 -10.69647  -1.16379
 Alpha  occ. eigenvalues --   -1.12424  -1.06946  -1.05623  -1.01313  -1.00110
 Alpha  occ. eigenvalues --   -0.95791  -0.91030  -0.86410  -0.85877  -0.83798
 Alpha  occ. eigenvalues --   -0.78388  -0.75967  -0.74412  -0.69590  -0.69230
 Alpha  occ. eigenvalues --   -0.68482  -0.68167  -0.68122  -0.64724  -0.64257
 Alpha  occ. eigenvalues --   -0.62968  -0.61861  -0.60076  -0.59650  -0.59104
 Alpha  occ. eigenvalues --   -0.56865  -0.55232  -0.54788  -0.52446  -0.46588
 Alpha  occ. eigenvalues --   -0.46056  -0.44537
 Alpha virt. eigenvalues --   -0.26113  -0.14663  -0.14099  -0.12779  -0.11175
 Alpha virt. eigenvalues --   -0.10078  -0.09230  -0.07983  -0.07982  -0.07474
 Alpha virt. eigenvalues --   -0.07195  -0.07140  -0.05647  -0.05578  -0.05327
 Alpha virt. eigenvalues --   -0.03826  -0.03644  -0.03278  -0.03138  -0.02169
 Alpha virt. eigenvalues --   -0.01363  -0.00928   0.00203   0.00591   0.00625
 Alpha virt. eigenvalues --    0.01053   0.01517   0.01951   0.02209   0.02307
 Alpha virt. eigenvalues --    0.02449   0.02665   0.02738   0.03363   0.03410
 Alpha virt. eigenvalues --    0.04245   0.04495   0.04701   0.05036   0.05366
 Alpha virt. eigenvalues --    0.06040   0.06285   0.06592   0.07021   0.07264
 Alpha virt. eigenvalues --    0.07887   0.08154   0.08347   0.08512   0.08928
 Alpha virt. eigenvalues --    0.09538   0.09555   0.10018   0.10837   0.10965
 Alpha virt. eigenvalues --    0.11127   0.12147   0.12233   0.12913   0.12925
 Alpha virt. eigenvalues --    0.13400   0.13527   0.13998   0.14396   0.16154
 Alpha virt. eigenvalues --    0.16258   0.16443   0.17343   0.17611   0.17791
 Alpha virt. eigenvalues --    0.18103   0.19107   0.19243   0.19608   0.19703
 Alpha virt. eigenvalues --    0.21491   0.21571   0.22708   0.23075   0.23528
 Alpha virt. eigenvalues --    0.23891   0.24626   0.25486   0.26918   0.27583
 Alpha virt. eigenvalues --    0.28809   0.29268   0.29807   0.31330   0.35737
 Alpha virt. eigenvalues --    0.36376   0.38194   0.39267   0.41142   0.41408
 Alpha virt. eigenvalues --    0.41905   0.42245   0.42986   0.43619   0.44286
 Alpha virt. eigenvalues --    0.44981   0.44990   0.46091   0.46141   0.48017
 Alpha virt. eigenvalues --    0.48522   0.48815   0.49050   0.50405   0.50986
 Alpha virt. eigenvalues --    0.51462   0.51619   0.52118   0.52843   0.53961
 Alpha virt. eigenvalues --    0.54094   0.54582   0.55687   0.55751   0.57662
 Alpha virt. eigenvalues --    0.58237   0.58803   0.61416   0.62251   0.62323
 Alpha virt. eigenvalues --    0.63188   0.63483   0.64852   0.65135   0.67098
 Alpha virt. eigenvalues --    0.70458   0.70672   0.70971   0.72375   0.72841
 Alpha virt. eigenvalues --    0.75799   0.75999   0.76241   0.76905   0.77083
 Alpha virt. eigenvalues --    0.77806   0.77825   0.78178   0.79916   0.80376
 Alpha virt. eigenvalues --    0.81191   0.81697   0.82140   0.82995   0.85124
 Alpha virt. eigenvalues --    0.87114   0.88088   0.88545   0.89139   0.90370
 Alpha virt. eigenvalues --    0.90971   0.91276   0.93185   0.94598   0.96406
 Alpha virt. eigenvalues --    0.96645   1.00435   1.01229   1.01711   1.02695
 Alpha virt. eigenvalues --    1.03182   1.03790   1.04724   1.05451   1.08713
 Alpha virt. eigenvalues --    1.19509   1.23305   1.23990   1.25203   1.27789
 Alpha virt. eigenvalues --    1.29794   1.31668   1.34408   1.35720   1.35986
 Alpha virt. eigenvalues --    1.39278   1.40135   1.40903   1.43124   1.43384
 Alpha virt. eigenvalues --    1.43500   1.45159   1.45244   1.46323   1.46659
 Alpha virt. eigenvalues --    1.47635   1.47950   1.51609   1.53584   1.55408
 Alpha virt. eigenvalues --    1.55844   1.56313   1.56614   1.57706   1.61342
 Alpha virt. eigenvalues --    1.63307   1.63548   1.63803   1.66048   1.68175
 Alpha virt. eigenvalues --    1.68360   1.68756   1.69777   1.74293   1.75939
 Alpha virt. eigenvalues --    1.77075   1.78044   1.79792   1.80058   1.80645
 Alpha virt. eigenvalues --    1.83096   1.83226   1.83519   1.83845   1.84215
 Alpha virt. eigenvalues --    1.84226   1.85906   1.86009   1.88187   1.91345
 Alpha virt. eigenvalues --    1.92002   1.94080   1.95124   1.97657   1.98097
 Alpha virt. eigenvalues --    1.99655   2.02054   2.04290   2.07255   2.11774
 Alpha virt. eigenvalues --    2.11964   2.14089   2.15227   2.18966   2.21054
 Alpha virt. eigenvalues --    2.22777   2.28765   2.29796   2.34511   2.34876
 Alpha virt. eigenvalues --    2.36213   2.38679   2.39585   2.42310   2.45172
 Alpha virt. eigenvalues --    2.46050   2.46113   2.49295   2.52831   2.53759
 Alpha virt. eigenvalues --    2.53970   2.56978   2.57817   2.58300   2.59604
 Alpha virt. eigenvalues --    2.59796   2.61553   2.62078   2.63484   2.63703
 Alpha virt. eigenvalues --    2.64760   2.65054   2.65246   2.65247   2.67699
 Alpha virt. eigenvalues --    2.68356   2.70915   2.71408   2.73323   2.74793
 Alpha virt. eigenvalues --    2.76305   2.78422   2.79661   2.82560   2.83013
 Alpha virt. eigenvalues --    2.84816   2.86155   2.92049   2.97050   2.99466
 Alpha virt. eigenvalues --    2.99988   3.04561   3.10776   3.11191   3.12931
 Alpha virt. eigenvalues --    3.20710   3.22768   3.26485   3.28064   3.30713
 Alpha virt. eigenvalues --    3.32798   3.33491   3.43411   3.45862   3.46232
 Alpha virt. eigenvalues --    3.48214   3.49899   3.56226   3.66443   3.67031
 Alpha virt. eigenvalues --    3.67329   3.94183   3.94592   3.95203   3.96136
 Alpha virt. eigenvalues --    4.03970   4.06801   4.07306   4.12567   4.35108
 Alpha virt. eigenvalues --    4.60593   4.69656   4.71528  23.45354  23.60363
 Alpha virt. eigenvalues --   23.82063  23.84932  23.87582  23.89119  23.90586
 Alpha virt. eigenvalues --   23.92201  23.97358  23.99620  23.99820  23.99824
 Alpha virt. eigenvalues --   24.10466  24.10569
          Condensed to atoms (all electrons):
               1          2          3          4          5          6
     1  C    8.715321   0.180199  -0.511601   2.149630  -0.067027  -0.097376
     2  C    0.180199   7.230186   0.329255  -1.161594  -0.004746  -0.013777
     3  C   -0.511601   0.329255   6.595470   0.790282  -0.129473   0.016963
     4  C    2.149630  -1.161594   0.790282  11.280687  -0.447833  -0.129507
     5  C   -0.067027  -0.004746  -0.129473  -0.447833  11.280166   0.790323
     6  C   -0.097376  -0.013777   0.016963  -0.129507   0.790323   6.595466
     7  C   -0.008331  -0.001343  -0.013777  -0.004712  -1.161701   0.329330
     8  C    0.397729  -0.008395  -0.097377  -0.066826   2.149151  -0.511587
     9  C   -1.046807  -0.838713   0.304481  -0.152770  -0.153359   0.304460
    10  C   -1.343326   0.269119  -0.344610  -2.602520  -2.602480  -0.344744
    11  C    0.344772  -0.863563   0.988310  -0.356769  -1.514818  -0.168667
    12  C   -2.398756   1.434865  -1.439234  -1.791388  -0.343767  -0.197475
    13  C    0.284171  -0.244726  -0.168704  -1.514970  -0.356725   0.988467
    14  C   -1.100092  -0.180393  -0.197464  -0.344214  -1.790187  -1.439378
    15  H    0.371434  -0.110509  -0.000492   0.028908   0.005305   0.001105
    16  H   -0.019179   0.380996  -0.018042   0.013329  -0.001516  -0.000329
    17  H   -0.027844  -0.015497   0.375667  -0.069701   0.000321   0.000408
    18  H    0.052687   0.002739  -0.084327   0.464325   0.004597  -0.005255
    19  H   -0.046625  -0.008018   0.052101  -0.069236  -0.069193   0.052108
    20  H    0.006815   0.002183  -0.005254   0.004603   0.464316  -0.084323
    21  H   -0.001305  -0.000402   0.000408   0.000320  -0.069700   0.375671
    22  H    0.000760   0.000374  -0.000329  -0.001516   0.013321  -0.018034
    23  H    0.005323  -0.002556   0.001105   0.005306   0.028907  -0.000492
    24  H    0.034663   0.014809  -0.001662  -0.012053  -0.012051  -0.001660
    25  H    0.034663   0.014809  -0.001662  -0.012053  -0.012051  -0.001660
               7          8          9         10         11         12
     1  C   -0.008331   0.397729  -1.046807  -1.343326   0.344772  -2.398756
     2  C   -0.001343  -0.008395  -0.838713   0.269119  -0.863563   1.434865
     3  C   -0.013777  -0.097377   0.304481  -0.344610   0.988310  -1.439234
     4  C   -0.004712  -0.066826  -0.152770  -2.602520  -0.356769  -1.791388
     5  C   -1.161701   2.149151  -0.153359  -2.602480  -1.514818  -0.343767
     6  C    0.329330  -0.511587   0.304460  -0.344744  -0.168667  -0.197475
     7  C    7.230732   0.180194  -0.838826   0.269237  -0.244981  -0.180485
     8  C    0.180194   8.715485  -1.047440  -1.343266   0.283825  -1.100350
     9  C   -0.838826  -1.047440   9.494998   0.273649   1.403521  -1.827620
    10  C    0.269237  -1.343266   0.273649   9.015367  -0.297215   2.410265
    11  C   -0.244981   0.283825   1.403521  -0.297215  14.254887  -3.671057
    12  C   -0.180485  -1.100350  -1.827620   2.410265  -3.671057  16.063844
    13  C   -0.863832   0.345533   1.403977  -0.297419   1.123330  -4.710730
    14  C    1.434939  -2.398026  -1.827129   2.409889  -4.711079   3.260859
    15  H   -0.002557   0.005323   0.090278  -0.009608  -0.030880  -0.024793
    16  H    0.000374   0.000762   0.002026  -0.008731   0.023245  -0.029697
    17  H   -0.000402  -0.001305  -0.005348   0.019993  -0.025677   0.093549
    18  H    0.002183   0.006818  -0.023936   0.007938  -0.003359  -0.059618
    19  H   -0.008019  -0.046625   0.074382   0.421388   0.077576  -0.065973
    20  H    0.002732   0.052682  -0.023946   0.007949  -0.012069  -0.016093
    21  H   -0.015492  -0.027853  -0.005345   0.019993  -0.006189   0.005328
    22  H    0.381006  -0.019205   0.002014  -0.008729   0.002952  -0.008996
    23  H   -0.110519   0.371414   0.090264  -0.009609   0.001404   0.006224
    24  H    0.014812   0.034675   0.353575   0.004925   0.014099  -0.060940
    25  H    0.014812   0.034675   0.353575   0.004925   0.014099  -0.060940
              13         14         15         16         17         18
     1  C    0.284171  -1.100092   0.371434  -0.019179  -0.027844   0.052687
     2  C   -0.244726  -0.180393  -0.110509   0.380996  -0.015497   0.002739
     3  C   -0.168704  -0.197464  -0.000492  -0.018042   0.375667  -0.084327
     4  C   -1.514970  -0.344214   0.028908   0.013329  -0.069701   0.464325
     5  C   -0.356725  -1.790187   0.005305  -0.001516   0.000321   0.004597
     6  C    0.988467  -1.439378   0.001105  -0.000329   0.000408  -0.005255
     7  C   -0.863832   1.434939  -0.002557   0.000374  -0.000402   0.002183
     8  C    0.345533  -2.398026   0.005323   0.000762  -0.001305   0.006818
     9  C    1.403977  -1.827129   0.090278   0.002026  -0.005348  -0.023936
    10  C   -0.297419   2.409889  -0.009608  -0.008731   0.019993   0.007938
    11  C    1.123330  -4.711079  -0.030880   0.023245  -0.025677  -0.003359
    12  C   -4.710730   3.260859  -0.024793  -0.029697   0.093549  -0.059618
    13  C   14.253493  -3.671307   0.001400   0.002954  -0.006188  -0.012069
    14  C   -3.671307  16.062401   0.006223  -0.008998   0.005329  -0.016103
    15  H    0.001400   0.006223   0.439876  -0.009145   0.001479   0.000131
    16  H    0.002954  -0.008998  -0.009145   0.419893  -0.006619   0.001945
    17  H   -0.006188   0.005329   0.001479  -0.006619   0.422484  -0.010437
    18  H   -0.012069  -0.016103   0.000131   0.001945  -0.010437   0.454685
    19  H    0.077607  -0.065966   0.000333  -0.000557   0.001447  -0.006396
    20  H   -0.003382  -0.059590  -0.000116   0.000016  -0.000146   0.001229
    21  H   -0.025678   0.093549   0.000015  -0.000007   0.000011  -0.000146
    22  H    0.023233  -0.029661  -0.000129   0.000008  -0.000007   0.000016
    23  H   -0.030860  -0.024777   0.000533  -0.000129   0.000015  -0.000116
    24  H    0.014117  -0.060938  -0.000942   0.000637  -0.000144   0.000194
    25  H    0.014117  -0.060938  -0.000942   0.000637  -0.000144   0.000194
              19         20         21         22         23         24
     1  C   -0.046625   0.006815  -0.001305   0.000760   0.005323   0.034663
     2  C   -0.008018   0.002183  -0.000402   0.000374  -0.002556   0.014809
     3  C    0.052101  -0.005254   0.000408  -0.000329   0.001105  -0.001662
     4  C   -0.069236   0.004603   0.000320  -0.001516   0.005306  -0.012053
     5  C   -0.069193   0.464316  -0.069700   0.013321   0.028907  -0.012051
     6  C    0.052108  -0.084323   0.375671  -0.018034  -0.000492  -0.001660
     7  C   -0.008019   0.002732  -0.015492   0.381006  -0.110519   0.014812
     8  C   -0.046625   0.052682  -0.027853  -0.019205   0.371414   0.034675
     9  C    0.074382  -0.023946  -0.005345   0.002014   0.090264   0.353575
    10  C    0.421388   0.007949   0.019993  -0.008729  -0.009609   0.004925
    11  C    0.077576  -0.012069  -0.006189   0.002952   0.001404   0.014099
    12  C   -0.065973  -0.016093   0.005328  -0.008996   0.006224  -0.060940
    13  C    0.077607  -0.003382  -0.025678   0.023233  -0.030860   0.014117
    14  C   -0.065966  -0.059590   0.093549  -0.029661  -0.024777  -0.060938
    15  H    0.000333  -0.000116   0.000015  -0.000129   0.000533  -0.000942
    16  H   -0.000557   0.000016  -0.000007   0.000008  -0.000129   0.000637
    17  H    0.001447  -0.000146   0.000011  -0.000007   0.000015  -0.000144
    18  H   -0.006396   0.001229  -0.000146   0.000016  -0.000116   0.000194
    19  H    0.443020  -0.006395   0.001447  -0.000557   0.000333   0.000550
    20  H   -0.006395   0.454682  -0.010438   0.001944   0.000132   0.000194
    21  H    0.001447  -0.010438   0.422484  -0.006618   0.001480  -0.000144
    22  H   -0.000557   0.001944  -0.006618   0.419893  -0.009144   0.000637
    23  H    0.000333   0.000132   0.001480  -0.009144   0.439875  -0.000942
    24  H    0.000550   0.000194  -0.000144   0.000637  -0.000942   0.492304
    25  H    0.000550   0.000194  -0.000144   0.000637  -0.000942  -0.077616
              25
     1  C    0.034663
     2  C    0.014809
     3  C   -0.001662
     4  C   -0.012053
     5  C   -0.012051
     6  C   -0.001660
     7  C    0.014812
     8  C    0.034675
     9  C    0.353575
    10  C    0.004925
    11  C    0.014099
    12  C   -0.060940
    13  C    0.014117
    14  C   -0.060938
    15  H   -0.000942
    16  H    0.000637
    17  H   -0.000144
    18  H    0.000194
    19  H    0.000550
    20  H    0.000194
    21  H   -0.000144
    22  H    0.000637
    23  H   -0.000942
    24  H   -0.077616
    25  H    0.492304
 Mulliken charges:
               1
     1  C    0.090101
     2  C   -0.405300
     3  C   -0.440036
     4  C    0.000272
     5  C    0.000220
     6  C   -0.440039
     7  C   -0.405374
     8  C    0.089988
     9  C   -0.359962
    10  C    0.077617
    11  C   -0.625695
    12  C    0.712979
    13  C   -0.625808
    14  C    0.713051
    15  H    0.237769
    16  H    0.256127
    17  H    0.248758
    18  H    0.222078
    19  H    0.190717
    20  H    0.222078
    21  H    0.248757
    22  H    0.256128
    23  H    0.237772
    24  H    0.248901
    25  H    0.248901
 Sum of Mulliken charges =   1.00000
 Mulliken charges with hydrogens summed into heavy atoms:
               1
     1  C    0.327870
     2  C   -0.149173
     3  C   -0.191278
     4  C    0.222350
     5  C    0.222298
     6  C   -0.191283
     7  C   -0.149247
     8  C    0.327761
     9  C    0.137839
    10  C    0.268334
    11  C   -0.625695
    12  C    0.712979
    13  C   -0.625808
    14  C    0.713051
 Electronic spatial extent (au):  <R**2>=           2859.3369
 Charge=              1.0000 electrons
 Dipole moment (field-independent basis, Debye):
    X=             -0.1967    Y=              0.0000    Z=              0.0000  Tot=              0.1967
 Quadrupole moment (field-independent basis, Debye-Ang):
   XX=            -56.2780   YY=            -31.0612   ZZ=            -84.1443
   XY=              0.0001   XZ=              0.0000   YZ=             -0.0000
 Traceless Quadrupole moment (field-independent basis, Debye-Ang):
   XX=              0.8832   YY=             26.1000   ZZ=            -26.9832
   XY=              0.0001   XZ=              0.0000   YZ=             -0.0000
 Octapole moment (field-independent basis, Debye-Ang**2):
  XXX=             -5.3160  YYY=              0.0015  ZZZ=              0.0000  XYY=              5.1826
  XXY=              0.0003  XXZ=              0.0000  XZZ=              3.1328  YZZ=             -0.0002
  YYZ=             -0.0000  XYZ=             -0.0000
 Hexadecapole moment (field-independent basis, Debye-Ang**3):
 XXXX=           -610.3950 YYYY=          -2123.6103 ZZZZ=            -99.3571 XXXY=              0.0034
 XXXZ=             -0.0000 YYYX=              0.0036 YYYZ=             -0.0000 ZZZX=             -0.0000
 ZZZY=             -0.0000 XXYY=           -508.4243 XXZZ=           -145.8216 YYZZ=           -591.5064
 XXYZ=             -0.0000 YYXZ=             -0.0000 ZZXY=              0.0009
 N-N= 7.806942694288D+02 E-N=-2.797713061076D+03  KE= 5.374790540728D+02
 Symmetry A'   KE= 5.228318433238D+02
 Symmetry A"   KE= 1.464721074894D+01
 Unable to Open any file for archive entry.
 1\1\GINC-GADI-CPU-CLX-0648\SP\RM062X TD-FC\6-311++G(d,p)\C14H11(1+)\TS
 1578\27-Jul-2022\0\\#n M062X/6-311++G(d,p) TD(NStates=1) EmpiricalDisp
 ersion=GD3 SP\\SP_125\\1,1\C,0,2.49745,1.3676,0.\C,0,3.703875,0.679825
 ,0.\C,0,3.6854,-0.7076,0.\C,0,2.46345,-1.3994,0.\C,0,-2.46345,-1.3994,
 0.\C,0,-3.6854,-0.7076,0.\C,0,-3.703875,0.679825,0.\C,0,-2.49745,1.367
 6,0.\C,0,-0.000125,1.4731,0.\C,0,0.,-1.421,0.\C,0,1.262475,0.685825,0.
 \C,0,1.2365,-0.72135,0.\C,0,-1.262475,0.685825,0.\C,0,-1.2365,-0.72135
 ,0.\H,0,2.4936,2.450675,0.\H,0,4.639675,1.218525,0.\H,0,4.61005,-1.266
 825,0.\H,0,2.46675,-2.481775,0.\H,0,0.,-2.50185,0.\H,0,-2.46675,-2.481
 775,0.\H,0,-4.61005,-1.266825,0.\H,0,-4.639675,1.218525,0.\H,0,-2.4936
 ,2.450675,0.\H,0,0.,2.157,-0.86235\H,0,0.,2.157,0.86235\\Version=ES64L
 -G16RevC.01\State=1-A'\HF=-539.7602536\RMSD=9.936e-09\PG=CS [SG(C14H9)
 ,X(H2)]\\@
 The archive entry for this job was punched.


 MYSTERY IS THE WISDOM OF BLOCKHEADS... HORACE WALPOLE 
 Job cpu time:       0 days  0 hours 44 minutes 30.6 seconds.
 Elapsed time:       0 days  0 hours  1 minutes 23.8 seconds.
 File lengths (MBytes):  RWF=    460 Int=      0 D2E=      0 Chk=     15 Scr=      1
 Normal termination of Gaussian 16 at Wed Jul 27 12:46:24 2022.
