 Entering Gaussian System, Link 0=g16
 Initial command:
 /apps/gaussian/g16c01/g16/l1.exe "/jobfs/52804872.gadi-pbs/Gau-1432479.inp" -scrdir="/jobfs/52804872.gadi-pbs/"
 Entering Link 1 = /apps/gaussian/g16c01/g16/l1.exe PID=   1432480.
  
 Copyright (c) 1988-2019, Gaussian, Inc.  All Rights Reserved.
  
 This is part of the Gaussian(R) 16 program.  It is based on
 the Gaussian(R) 09 system (copyright 2009, Gaussian, Inc.),
 the Gaussian(R) 03 system (copyright 2003, Gaussian, Inc.),
 the Gaussian(R) 98 system (copyright 1998, Gaussian, Inc.),
 the Gaussian(R) 94 system (copyright 1995, Gaussian, Inc.),
 the Gaussian 92(TM) system (copyright 1992, Gaussian, Inc.),
 the Gaussian 90(TM) system (copyright 1990, Gaussian, Inc.),
 the Gaussian 88(TM) system (copyright 1988, Gaussian, Inc.),
 the Gaussian 86(TM) system (copyright 1986, Carnegie Mellon
 University), and the Gaussian 82(TM) system (copyright 1983,
 Carnegie Mellon University). Gaussian is a federally registered
 trademark of Gaussian, Inc.
  
 This software contains proprietary and confidential information,
 including trade secrets, belonging to Gaussian, Inc.
  
 This software is provided under written license and may be
 used, copied, transmitted, or stored only in accord with that
 written license.
  
 The following legend is applicable only to US Government
 contracts under FAR:
  
                    RESTRICTED RIGHTS LEGEND
  
 Use, reproduction and disclosure by the US Government is
 subject to restrictions as set forth in subparagraphs (a)
 and (c) of the Commercial Computer Software - Restricted
 Rights clause in FAR 52.227-19.
  
 Gaussian, Inc.
 340 Quinnipiac St., Bldg. 40, Wallingford CT 06492
  
  
 ---------------------------------------------------------------
 Warning -- This program may not be used in any manner that
 competes with the business of Gaussian, Inc. or will provide
 assistance to any competitor of Gaussian, Inc.  The licensee
 of this program is prohibited from giving any competitor of
 Gaussian, Inc. access to this program.  By using this program,
 the user acknowledges that Gaussian, Inc. is engaged in the
 business of creating and licensing software in the field of
 computational chemistry and represents and warrants to the
 licensee that it is not a competitor of Gaussian, Inc. and that
 it will not use this program in any manner prohibited above.
 ---------------------------------------------------------------
  

 Cite this work as:
 Gaussian 16, Revision C.01,
 M. J. Frisch, G. W. Trucks, H. B. Schlegel, G. E. Scuseria, 
 M. A. Robb, J. R. Cheeseman, G. Scalmani, V. Barone, 
 G. A. Petersson, H. Nakatsuji, X. Li, M. Caricato, A. V. Marenich, 
 J. Bloino, B. G. Janesko, R. Gomperts, B. Mennucci, H. P. Hratchian, 
 J. V. Ortiz, A. F. Izmaylov, J. L. Sonnenberg, D. Williams-Young, 
 F. Ding, F. Lipparini, F. Egidi, J. Goings, B. Peng, A. Petrone, 
 T. Henderson, D. Ranasinghe, V. G. Zakrzewski, J. Gao, N. Rega, 
 G. Zheng, W. Liang, M. Hada, M. Ehara, K. Toyota, R. Fukuda, 
 J. Hasegawa, M. Ishida, T. Nakajima, Y. Honda, O. Kitao, H. Nakai, 
 T. Vreven, K. Throssell, J. A. Montgomery, Jr., J. E. Peralta, 
 F. Ogliaro, M. J. Bearpark, J. J. Heyd, E. N. Brothers, K. N. Kudin, 
 V. N. Staroverov, T. A. Keith, R. Kobayashi, J. Normand, 
 K. Raghavachari, A. P. Rendell, J. C. Burant, S. S. Iyengar, 
 J. Tomasi, M. Cossi, J. M. Millam, M. Klene, C. Adamo, R. Cammi, 
 J. W. Ochterski, R. L. Martin, K. Morokuma, O. Farkas, 
 J. B. Foresman, and D. J. Fox, Gaussian, Inc., Wallingford CT, 2019.
 
 ******************************************
 Gaussian 16:  ES64L-G16RevC.01  3-Jul-2019
                27-Jul-2022 
 ******************************************
 %NProcShared=32
 Will use up to   32 processors via shared memory.
 %mem = 128GB
 ---------------------------------------------------------------
 #n M062X/6-311++G(d,p) TD(NStates=1) EmpiricalDispersion=GD3 SP
 ---------------------------------------------------------------
 1/38=1,172=1/1;
 2/12=2,17=6,18=5,40=1/2;
 3/5=4,6=6,7=1111,11=9,25=1,30=1,74=-55,124=31/1,2,3,8;
 4//1;
 5/5=2,38=5/2;
 8/6=1,10=2,108=1/1;
 9/41=1,42=1,70=2/14;
 6/7=2,8=2,9=2,10=2/1;
 99/5=1,9=1/99;
 ------
 SP_-25
 ------
 Symbolic Z-matrix:
 Charge =  1 Multiplicity = 1
 C                     2.47405   1.3694    0. 
 C                     3.67778   0.66978   0. 
 C                     3.6776   -0.7247    0. 
 C                     2.4867   -1.41275   0. 
 C                    -2.4399   -1.38545   0. 
 C                    -3.6914   -0.6875    0. 
 C                    -3.72713   0.69093   0. 
 C                    -2.51515   1.3676    0. 
 C                    -0.01318   1.4665    0. 
 C                     0.0366   -1.4207    0. 
 C                     1.26772   0.69723   0. 
 C                     1.2521   -0.7236    0. 
 C                    -1.25678   0.67428   0. 
 C                    -1.2221   -0.72      0. 
 H                     2.484     2.45233   0. 
 H                     4.61298   1.21103   0. 
 H                     4.61395  -1.26428   0. 
 H                     2.47815  -2.49483   0. 
 H                     0.03375  -2.5017    0. 
 H                    -2.45625  -2.46828   0. 
 H                    -4.60525  -1.26562   0. 
 H                    -4.66293   1.22828   0. 
 H                    -2.4966    2.45098   0. 
 H                    -0.048     2.1555   -0.8607 
 H                    -0.048     2.1555    0.8607 
 
                          Input orientation:                          
 ---------------------------------------------------------------------
 Center     Atomic      Atomic             Coordinates (Angstroms)
 Number     Number       Type             X           Y           Z
 ---------------------------------------------------------------------
      1          6           0        2.474050    1.369400    0.000000
      2          6           0        3.677775    0.669775    0.000000
      3          6           0        3.677600   -0.724700    0.000000
      4          6           0        2.486700   -1.412750    0.000000
      5          6           0       -2.439900   -1.385450    0.000000
      6          6           0       -3.691400   -0.687500    0.000000
      7          6           0       -3.727125    0.690925    0.000000
      8          6           0       -2.515150    1.367600    0.000000
      9          6           0       -0.013175    1.466500    0.000000
     10          6           0        0.036600   -1.420700    0.000000
     11          6           0        1.267725    0.697225    0.000000
     12          6           0        1.252100   -0.723600    0.000000
     13          6           0       -1.256775    0.674275    0.000000
     14          6           0       -1.222100   -0.720000    0.000000
     15          1           0        2.484000    2.452325    0.000000
     16          1           0        4.612975    1.211025    0.000000
     17          1           0        4.613950   -1.264275    0.000000
     18          1           0        2.478150   -2.494825    0.000000
     19          1           0        0.033750   -2.501700    0.000000
     20          1           0       -2.456250   -2.468275    0.000000
     21          1           0       -4.605250   -1.265625    0.000000
     22          1           0       -4.662925    1.228275    0.000000
     23          1           0       -2.496600    2.450975    0.000000
     24          1           0       -0.048000    2.155500   -0.860700
     25          1           0       -0.048000    2.155500    0.860700
 ---------------------------------------------------------------------
                    Distance matrix (angstroms):
                    1          2          3          4          5
     1  C    0.000000
     2  C    1.392275   0.000000
     3  C    2.415323   1.394475   0.000000
     4  C    2.782179   2.399077   1.375375   0.000000
     5  C    5.633481   6.453673   6.153080   4.926676   0.000000
     6  C    6.499509   7.493126   7.369094   6.220523   1.432964
     7  C    6.238181   7.404930   7.538829   6.560264   2.443007
     8  C    4.989200   6.232117   6.536656   5.722661   2.754078
     9  C    2.489120   3.775961   4.292223   3.813064   3.744678
    10  C    3.704837   4.198600   3.706926   2.450113   2.476751
    11  C    1.380956   2.410206   2.798101   2.436780   4.252531
    12  C    2.423595   2.797390   2.425500   1.413918   3.750854
    13  C    3.795030   4.934552   5.128858   4.285940   2.375342
    14  C    4.245835   5.093157   4.899702   3.772943   1.387754
    15  H    1.082971   2.145363   3.393843   3.865076   6.242861
    16  H    2.144780   1.080533   2.149874   3.377165   7.515632
    17  H    3.393437   2.148714   1.080691   2.132425   7.054891
    18  H    3.864227   3.384345   2.138229   1.082109   5.041620
    19  H    4.576077   4.830856   4.054056   2.683799   2.713846
    20  H    6.247848   6.890110   6.376846   5.054393   1.082948
    21  H    7.553797   8.506132   8.300494   7.093476   2.168663
    22  H    7.138370   8.359378   8.566123   7.621821   3.431239
    23  H    5.086960   6.426164   6.943029   6.305684   3.836844
    24  H    2.778398   4.102387   4.787113   4.460708   4.358935
    25  H    2.778398   4.102387   4.787113   4.460708   4.358935
                    6          7          8          9         10
     6  C    0.000000
     7  C    1.378888   0.000000
     8  C    2.367910   1.388082   0.000000
     9  C    4.262517   3.794067   2.503929   0.000000
    10  C    3.799417   4.315621   3.779688   2.887629   0.000000
    11  C    5.148824   4.994854   3.841815   1.494152   2.449750
    12  C    4.943632   5.176250   4.308746   2.529320   1.401210
    13  C    2.789593   2.470406   1.436735   1.474504   2.462060
    14  C    2.469514   2.875041   2.455616   2.498456   1.440592
    15  H    6.927775   6.456052   5.115479   2.684722   4.581494
    16  H    8.518629   8.356301   7.129844   4.633199   5.279127
    17  H    8.325353   8.567166   7.599397   5.372841   4.580022
    18  H    6.428823   6.975274   6.312794   4.679615   2.667379
    19  H    4.143436   4.933258   4.633398   3.968477   1.081004
    20  H    2.167200   3.405241   3.836327   4.631530   2.704018
    21  H    1.081365   2.144573   3.361903   5.343375   4.644440
    22  H    2.148035   1.079105   2.152289   4.655849   5.394683
    23  H    3.358210   2.147549   1.083534   2.671440   4.626767
    24  H    4.700832   4.052375   2.729179   1.103059   3.679289
    25  H    4.700832   4.052375   2.729179   1.103059   3.679289
                   11         12         13         14         15
    11  C    0.000000
    12  C    1.420911   0.000000
    13  C    2.524604   2.872022   0.000000
    14  C    2.864918   2.474203   1.394706   0.000000
    15  H    2.135346   3.406476   4.141843   4.878404   0.000000
    16  H    3.384478   3.877919   5.894240   6.146296   2.464419
    17  H    3.878750   3.405050   6.182507   5.861375   4.283667
    18  H    3.413841   2.154167   4.898251   4.103883   4.947153
    19  H    3.428675   2.155462   3.428159   2.179820   5.526852
    20  H    4.887574   4.098262   3.363683   2.139998   6.972688
    21  H    6.192303   5.882375   3.869819   3.426866   8.005037
    22  H    5.954379   6.228751   3.450909   3.954118   7.250989
    23  H    4.152804   4.912299   2.166525   3.417519   4.980600
    24  H    2.144412   3.274184   2.096657   3.223013   2.690712
    25  H    2.144412   3.274184   2.096657   3.223013   2.690712
                   16         17         18         19         20
    16  H    0.000000
    17  H    2.475300   0.000000
    18  H    4.276775   2.464933   0.000000
    19  H    5.895221   4.744413   2.444410   0.000000
    20  H    7.969391   7.171983   4.934471   2.490224   0.000000
    21  H    9.545128   9.219200   7.189262   4.800854   2.462634
    22  H    9.275916   9.605895   8.053349   5.997622   4.305101
    23  H    7.216892   8.022656   7.014918   5.561624   4.919415
    24  H    4.832962   5.845463   5.361694   4.736771   5.283916
    25  H    4.832962   5.845463   5.361694   4.736771   5.283916
                   21         22         23         24         25
    21  H    0.000000
    22  H    2.494567   0.000000
    23  H    4.273116   2.487561   0.000000
    24  H    5.763109   4.785194   2.612231   0.000000
    25  H    5.763109   4.785194   2.612231   1.721400   0.000000
 Stoichiometry    C14H11(1+)
 Framework group  CS[SG(C14H9),X(H2)]
 Deg. of freedom    46
 Full point group                 CS      NOp   2
 Largest Abelian subgroup         CS      NOp   2
 Largest concise Abelian subgroup CS      NOp   2
                         Standard orientation:                         
 ---------------------------------------------------------------------
 Center     Atomic      Atomic             Coordinates (Angstroms)
 Number     Number       Type             X           Y           Z
 ---------------------------------------------------------------------
      1          6           0       -2.360936   -1.549579    0.000000
      2          6           0       -2.306286   -2.940781    0.000000
      3          6           0       -1.074000   -3.593493    0.000000
      4          6           0        0.091540   -2.863307    0.000000
      5          6           0        2.373957    1.502779    0.000000
      6          6           0        2.343154    2.935412    0.000000
      7          6           0        1.141858    3.612332    0.000000
      8          6           0       -0.023497    2.858198    0.000000
      9          6           0       -1.282266    0.693674    0.000000
     10          6           0        1.245655   -0.702041    0.000000
     11          6           0       -1.202202   -0.798331    0.000000
     12          6           0        0.060600   -1.449727    0.000000
     13          6           0        0.000000    1.421655    0.000000
     14          6           0        1.215793    0.738242    0.000000
     15          1           0       -3.322503   -1.051367    0.000000
     16          1           0       -3.222395   -3.513751    0.000000
     17          1           0       -1.035596   -4.673501    0.000000
     18          1           0        1.051699   -3.362359    0.000000
     19          1           0        2.202196   -1.205626    0.000000
     20          1           0        3.338431    1.010268    0.000000
     21          1           0        3.281851    3.472253    0.000000
     22          1           0        1.105162    4.690813    0.000000
     23          1           0       -0.989488    3.349022    0.000000
     24          1           0       -1.874784    1.047023    0.860700
     25          1           0       -1.874784    1.047023   -0.860700
 ---------------------------------------------------------------------
 Rotational constants (GHZ):           2.1350101           0.4443579           0.3686078
 Standard basis: 6-311++G(d,p) (5D, 7F)
 There are   299 symmetry adapted cartesian basis functions of A'  symmetry.
 There are   100 symmetry adapted cartesian basis functions of A"  symmetry.
 There are   285 symmetry adapted basis functions of A'  symmetry.
 There are   100 symmetry adapted basis functions of A"  symmetry.
   385 basis functions,   603 primitive gaussians,   399 cartesian basis functions
    47 alpha electrons       47 beta electrons
       nuclear repulsion energy       781.0241387631 Hartrees.
 NAtoms=   25 NActive=   25 NUniq=   24 SFac= 1.09D+00 NAtFMM=   60 NAOKFM=F Big=F
 Integral buffers will be    131072 words long.
 Regular integral format.
 Two-electron integral symmetry is turned on.
 Nuclear repulsion after empirical dispersion term =      781.0231594497 Hartrees.
 One-electron integrals computed using PRISM.
 NBasis=   385 RedAO= T EigKep=  1.13D-06  NBF=   285   100
 NBsUse=   379 1.00D-06 EigRej=  8.40D-07 NBFU=   279   100
 ExpMin= 3.60D-02 ExpMax= 4.56D+03 ExpMxC= 6.82D+02 IAcc=3 IRadAn=         5 AccDes= 0.00D+00
 Harris functional with IExCor= 1009 and IRadAn=       5 diagonalized for initial guess.
 HarFok:  IExCor= 1009 AccDes= 0.00D+00 IRadAn=         5 IDoV= 1 UseB2=F ITyADJ=14
 ICtDFT=  3500011 ScaDFX=  1.000000  1.000000  1.000000  1.000000
 FoFCou: FMM=F IPFlag=           0 FMFlag=      100000 FMFlg1=           0
         NFxFlg=           0 DoJE=T BraDBF=F KetDBF=T FulRan=T
         wScrn=  0.000000 ICntrl=       500 IOpCl=  0 I1Cent=   200000004 NGrid=           0
         NMat0=    1 NMatS0=      1 NMatT0=    0 NMatD0=    1 NMtDS0=    0 NMtDT0=    0
 Petite list used in FoFCou.
 Initial guess orbital symmetries:
       Occupied  (A') (A') (A') (A') (A') (A') (A') (A') (A') (A')
                 (A') (A') (A') (A') (A') (A') (A') (A') (A') (A')
                 (A') (A') (A') (A') (A') (A') (A') (A') (A') (A')
                 (A') (A') (A") (A') (A') (A') (A') (A') (A") (A')
                 (A") (A') (A') (A") (A") (A") (A")
       Virtual   (A") (A") (A") (A") (A") (A') (A') (A') (A') (A")
                 (A") (A') (A') (A') (A") (A') (A') (A') (A') (A")
                 (A') (A") (A') (A') (A') (A") (A') (A") (A') (A')
                 (A') (A') (A') (A') (A") (A') (A") (A') (A') (A')
                 (A") (A') (A') (A") (A') (A') (A') (A') (A") (A')
                 (A') (A') (A") (A") (A') (A') (A') (A") (A") (A')
                 (A') (A') (A') (A') (A') (A') (A") (A') (A') (A")
                 (A') (A') (A') (A') (A') (A') (A') (A') (A') (A')
                 (A') (A') (A') (A') (A') (A') (A') (A') (A') (A')
                 (A') (A') (A') (A') (A') (A') (A') (A") (A') (A")
                 (A') (A') (A") (A") (A') (A") (A') (A") (A") (A')
                 (A") (A') (A') (A') (A") (A') (A') (A") (A") (A')
                 (A") (A") (A') (A') (A') (A") (A') (A') (A') (A")
                 (A') (A') (A') (A') (A') (A') (A") (A') (A') (A')
                 (A') (A') (A') (A') (A') (A') (A') (A') (A') (A")
                 (A") (A') (A") (A") (A') (A') (A') (A") (A") (A')
                 (A") (A') (A") (A") (A") (A') (A') (A') (A') (A')
                 (A') (A") (A') (A") (A') (A') (A') (A') (A') (A")
                 (A') (A') (A') (A') (A") (A') (A") (A') (A") (A")
                 (A') (A") (A') (A") (A') (A') (A') (A") (A') (A')
                 (A") (A") (A") (A') (A') (A") (A') (A") (A') (A')
                 (A") (A") (A') (A") (A') (A") (A') (A') (A') (A")
                 (A') (A') (A') (A') (A") (A') (A') (A') (A") (A")
                 (A') (A') (A') (A") (A') (A') (A") (A') (A") (A')
                 (A") (A') (A') (A') (A') (A") (A') (A') (A') (A")
                 (A') (A') (A") (A') (A") (A') (A') (A") (A') (A')
                 (A') (A") (A') (A") (A') (A') (A') (A") (A') (A")
                 (A') (A') (A') (A') (A") (A') (A") (A') (A") (A')
                 (A") (A') (A") (A") (A") (A') (A') (A') (A') (A')
                 (A') (A') (A') (A') (A') (A') (A') (A') (A') (A')
                 (A') (A') (A') (A') (A') (A") (A') (A') (A') (A')
                 (A') (A') (A') (A') (A') (A') (A') (A') (A') (A')
                 (A') (A') (A') (A') (A') (A') (A') (A') (A') (A')
                 (A') (A')
 The electronic state of the initial guess is 1-A'.
 Requested convergence on RMS density matrix=1.00D-08 within 128 cycles.
 Requested convergence on MAX density matrix=1.00D-06.
 Requested convergence on             energy=1.00D-06.
 No special actions if energy rises.
 SCF Done:  E(RM062X) =  -539.756350909     A.U. after   15 cycles
            NFock= 15  Conv=0.89D-08     -V/T= 2.0042
 DoSCS=F DFT=T ScalE2(SS,OS)=  1.000000  1.000000
 ExpMin= 3.60D-02 ExpMax= 4.56D+03 ExpMxC= 6.82D+02 IAcc=3 IRadAn=         5 AccDes= 0.00D+00
 HarFok:  IExCor=  205 AccDes= 0.00D+00 IRadAn=         5 IDoV=-2 UseB2=F ITyADJ=14
 ICtDFT= 12500011 ScaDFX=  1.000000  1.000000  1.000000  1.000000
 Range of M.O.s used for correlation:    15   379
 NBasis=   385 NAE=    47 NBE=    47 NFC=    14 NFV=     0
 NROrb=    365 NOA=    33 NOB=    33 NVA=   332 NVB=   332

 **** Warning!!: The largest alpha MO coefficient is  0.13658875D+03

 Orbital symmetries:
       Occupied  (A') (A') (A') (A') (A') (A') (A') (A') (A') (A')
                 (A') (A') (A') (A') (A') (A') (A') (A') (A') (A')
                 (A') (A') (A') (A') (A') (A') (A') (A') (A') (A')
                 (A') (A') (A") (A') (A') (A') (A') (A") (A") (A')
                 (A') (A') (A') (A") (A") (A") (A")
       Virtual   (A") (A") (A") (A") (A') (A') (A') (A') (A") (A')
                 (A') (A") (A') (A') (A") (A') (A") (A') (A') (A')
                 (A") (A") (A') (A') (A') (A") (A') (A") (A') (A')
                 (A") (A') (A") (A') (A') (A') (A') (A') (A") (A')
                 (A") (A') (A') (A") (A") (A') (A") (A') (A") (A')
                 (A') (A') (A') (A') (A') (A") (A') (A') (A') (A')
                 (A') (A") (A') (A') (A') (A") (A') (A') (A') (A')
                 (A') (A') (A') (A') (A') (A') (A') (A') (A') (A')
                 (A') (A') (A') (A') (A') (A') (A') (A') (A') (A')
                 (A') (A') (A') (A') (A") (A') (A") (A") (A') (A")
                 (A') (A') (A') (A') (A") (A") (A') (A") (A") (A')
                 (A') (A') (A") (A') (A') (A") (A') (A") (A') (A")
                 (A") (A') (A") (A') (A') (A') (A") (A') (A') (A')
                 (A') (A') (A') (A') (A') (A') (A') (A') (A') (A')
                 (A') (A') (A') (A") (A') (A') (A') (A') (A') (A')
                 (A') (A') (A") (A') (A") (A') (A") (A") (A') (A")
                 (A") (A') (A') (A") (A") (A') (A") (A") (A') (A')
                 (A') (A') (A') (A") (A") (A') (A') (A') (A') (A")
                 (A') (A') (A') (A") (A") (A') (A') (A") (A') (A")
                 (A") (A') (A') (A") (A") (A') (A') (A') (A') (A')
                 (A") (A") (A") (A') (A') (A") (A') (A") (A') (A')
                 (A') (A") (A') (A") (A") (A') (A") (A') (A') (A")
                 (A') (A') (A') (A') (A") (A') (A') (A') (A") (A")
                 (A') (A') (A') (A") (A') (A') (A') (A") (A") (A')
                 (A") (A') (A') (A") (A') (A') (A') (A') (A') (A')
                 (A") (A') (A') (A') (A') (A") (A") (A") (A') (A')
                 (A') (A') (A') (A') (A') (A') (A") (A') (A') (A')
                 (A') (A") (A') (A") (A") (A") (A') (A") (A') (A")
                 (A') (A") (A") (A') (A") (A") (A') (A') (A') (A')
                 (A') (A') (A') (A') (A') (A') (A') (A') (A') (A')
                 (A') (A') (A') (A") (A') (A') (A') (A') (A') (A')
                 (A') (A') (A') (A') (A') (A') (A') (A') (A') (A')
                 (A') (A') (A') (A') (A') (A') (A') (A') (A') (A')
                 (A') (A')
     4 initial guesses have been made.
 Convergence on wavefunction:    0.001000000000000
 Iteration     1 Dimension     4 NMult     0 NNew      4
 CISAX will form     4 AO SS matrices at one time.
 Iteration     2 Dimension     6 NMult     4 NNew      2
 Iteration     3 Dimension     8 NMult     6 NNew      2
 Iteration     4 Dimension    10 NMult     8 NNew      2
 Iteration     5 Dimension    12 NMult    10 NNew      2
 Iteration     6 Dimension    14 NMult    12 NNew      2
 ***********************************************************************
 Excited states from <AA,BB:AA,BB> singles matrix:
 ***********************************************************************
 
 Ground to excited state transition densities written to RWF  633
 Ground to excited state transition electric dipole moments (Au):
       state          X           Y           Z        Dip. S.      Osc.
         1        -0.4838      0.3003     -0.0000      0.3242      0.0216
 Ground to excited state transition velocity dipole moments (Au):
       state          X           Y           Z        Dip. S.      Osc.
         1         0.0561     -0.0303      0.0000      0.0041      0.0271
 Ground to excited state transition magnetic dipole moments (Au):
       state          X           Y           Z
         1         0.0000     -0.0000     -0.1732
 Ground to excited state transition velocity quadrupole moments (Au):
       state          XX          YY          ZZ          XY          XZ          YZ
         1         0.1419      0.1408     -0.0086      0.1378     -0.0000     -0.0000
 <0|del|b> * <b|rxdel|0> + <0|del|b> * <b|delr+rdel|0>
 Rotatory Strengths (R) in cgs (10**-40 erg-esu-cm/Gauss)
       state          XX          YY          ZZ    R(velocity)    E-M Angle
         1        -0.0000     -0.0000      0.0000      0.0000       90.00
 1/2[<0|r|b>*<b|rxdel|0> + (<0|rxdel|b>*<b|r|0>)*]
 Rotatory Strengths (R) in cgs (10**-40 erg-esu-cm/Gauss)
       state          XX          YY          ZZ     R(length)
         1         0.0000      0.0000     -0.0000     -0.0000
  1/2[<0|del|b>*<b|r|0> + (<0|r|b>*<b|del|0>)*] (Au)
       state          X           Y           Z        Dip. S.   Osc.(frdel)
         1        -0.0271     -0.0091     -0.0000      0.0362      0.0242

 Excitation energies and oscillator strengths:
 
 Excited State   1:      Singlet-A'     2.7162 eV  456.45 nm  f=0.0216  <S**2>=0.000
      47 -> 48         0.70362
 This state for optimization and/or second-order correction.
 Total Energy, E(TD-HF/TD-DFT) =  -539.656530833    
 Copying the excited state density for this state as the 1-particle RhoCI density.
 SavETr:  write IOETrn=   770 NScale= 10 NData=  16 NLR=1 NState=    1 LETran=      28.

 **********************************************************************

            Population analysis using the SCF Density.

 **********************************************************************

 Orbital symmetries:
       Occupied  (A') (A') (A') (A') (A') (A') (A') (A') (A') (A')
                 (A') (A') (A') (A') (A') (A') (A') (A') (A') (A')
                 (A') (A') (A') (A') (A') (A') (A') (A') (A') (A')
                 (A') (A') (A") (A') (A') (A') (A') (A") (A") (A')
                 (A') (A') (A') (A") (A") (A") (A")
       Virtual   (A") (A") (A") (A") (A') (A') (A') (A') (A") (A')
                 (A') (A") (A') (A') (A") (A') (A") (A') (A') (A')
                 (A") (A") (A') (A') (A') (A") (A') (A") (A') (A')
                 (A") (A') (A") (A') (A') (A') (A') (A') (A") (A')
                 (A") (A') (A') (A") (A") (A') (A") (A') (A") (A')
                 (A') (A') (A') (A') (A') (A") (A') (A') (A') (A')
                 (A') (A") (A') (A') (A') (A") (A') (A') (A') (A')
                 (A') (A') (A') (A') (A') (A') (A') (A') (A') (A')
                 (A') (A') (A') (A') (A') (A') (A') (A') (A') (A')
                 (A') (A') (A') (A') (A") (A') (A") (A") (A') (A")
                 (A') (A') (A') (A') (A") (A") (A') (A") (A") (A')
                 (A') (A') (A") (A') (A') (A") (A') (A") (A') (A")
                 (A") (A') (A") (A') (A') (A') (A") (A') (A') (A')
                 (A') (A') (A') (A') (A') (A') (A') (A') (A') (A')
                 (A') (A') (A') (A") (A') (A') (A') (A') (A') (A')
                 (A') (A') (A") (A') (A") (A') (A") (A") (A') (A")
                 (A") (A') (A') (A") (A") (A') (A") (A") (A') (A')
                 (A') (A') (A') (A") (A") (A') (A') (A') (A') (A")
                 (A') (A') (A') (A") (A") (A') (A') (A") (A') (A")
                 (A") (A') (A') (A") (A") (A') (A') (A') (A') (A')
                 (A") (A") (A") (A') (A') (A") (A') (A") (A') (A')
                 (A') (A") (A') (A") (A") (A') (A") (A') (A') (A")
                 (A') (A') (A') (A') (A") (A') (A') (A') (A") (A")
                 (A') (A') (A') (A") (A') (A') (A') (A") (A") (A')
                 (A") (A') (A') (A") (A') (A') (A') (A') (A') (A')
                 (A") (A') (A') (A') (A') (A") (A") (A") (A') (A')
                 (A') (A') (A') (A') (A') (A') (A") (A') (A') (A')
                 (A') (A") (A') (A") (A") (A") (A') (A") (A') (A")
                 (A') (A") (A") (A') (A") (A") (A') (A') (A') (A')
                 (A') (A') (A') (A') (A') (A') (A') (A') (A') (A')
                 (A') (A') (A') (A") (A') (A') (A') (A') (A') (A')
                 (A') (A') (A') (A') (A') (A') (A') (A') (A') (A')
                 (A') (A') (A') (A') (A') (A') (A') (A') (A') (A')
                 (A') (A')
 The electronic state is 1-A'.
 Alpha  occ. eigenvalues --  -10.77624 -10.73693 -10.72826 -10.72769 -10.72071
 Alpha  occ. eigenvalues --  -10.71794 -10.71764 -10.70997 -10.70946 -10.70253
 Alpha  occ. eigenvalues --  -10.70169 -10.69880 -10.69777 -10.69391  -1.16480
 Alpha  occ. eigenvalues --   -1.12454  -1.06941  -1.05765  -1.01296  -1.00302
 Alpha  occ. eigenvalues --   -0.95648  -0.91030  -0.86431  -0.85886  -0.83786
 Alpha  occ. eigenvalues --   -0.78354  -0.76076  -0.74382  -0.69713  -0.69288
 Alpha  occ. eigenvalues --   -0.68371  -0.68102  -0.68101  -0.65082  -0.64236
 Alpha  occ. eigenvalues --   -0.62821  -0.61687  -0.60344  -0.59372  -0.59141
 Alpha  occ. eigenvalues --   -0.56916  -0.55259  -0.54634  -0.52443  -0.47053
 Alpha  occ. eigenvalues --   -0.46111  -0.44041
 Alpha virt. eigenvalues --   -0.26108  -0.14666  -0.14085  -0.12769  -0.11185
 Alpha virt. eigenvalues --   -0.10088  -0.09248  -0.07968  -0.07948  -0.07480
 Alpha virt. eigenvalues --   -0.07205  -0.07137  -0.05646  -0.05576  -0.05343
 Alpha virt. eigenvalues --   -0.03841  -0.03657  -0.03275  -0.03134  -0.02161
 Alpha virt. eigenvalues --   -0.01354  -0.00946   0.00193   0.00593   0.00637
 Alpha virt. eigenvalues --    0.01061   0.01508   0.01938   0.02169   0.02305
 Alpha virt. eigenvalues --    0.02449   0.02670   0.02774   0.03278   0.03444
 Alpha virt. eigenvalues --    0.04229   0.04495   0.04716   0.05038   0.05381
 Alpha virt. eigenvalues --    0.06029   0.06288   0.06584   0.07043   0.07268
 Alpha virt. eigenvalues --    0.07899   0.08102   0.08350   0.08598   0.08916
 Alpha virt. eigenvalues --    0.09500   0.09583   0.09987   0.10825   0.10968
 Alpha virt. eigenvalues --    0.11127   0.12116   0.12246   0.12749   0.13015
 Alpha virt. eigenvalues --    0.13448   0.13525   0.13986   0.14348   0.15942
 Alpha virt. eigenvalues --    0.16394   0.16433   0.17332   0.17513   0.17791
 Alpha virt. eigenvalues --    0.18118   0.19073   0.19339   0.19627   0.19847
 Alpha virt. eigenvalues --    0.21484   0.21624   0.22675   0.23154   0.23555
 Alpha virt. eigenvalues --    0.23920   0.24564   0.25446   0.26935   0.27607
 Alpha virt. eigenvalues --    0.28839   0.29259   0.29886   0.31345   0.35762
 Alpha virt. eigenvalues --    0.36435   0.38206   0.39276   0.41083   0.41330
 Alpha virt. eigenvalues --    0.41950   0.42158   0.42983   0.43683   0.44356
 Alpha virt. eigenvalues --    0.44816   0.45105   0.45935   0.46338   0.47934
 Alpha virt. eigenvalues --    0.48441   0.48796   0.49043   0.50485   0.51058
 Alpha virt. eigenvalues --    0.51282   0.51951   0.52134   0.52792   0.54085
 Alpha virt. eigenvalues --    0.54113   0.54593   0.55654   0.55883   0.57596
 Alpha virt. eigenvalues --    0.58226   0.58907   0.61474   0.62256   0.62390
 Alpha virt. eigenvalues --    0.63171   0.63478   0.64901   0.65152   0.67338
 Alpha virt. eigenvalues --    0.70381   0.70521   0.71146   0.72469   0.72887
 Alpha virt. eigenvalues --    0.75632   0.76044   0.76379   0.76785   0.77115
 Alpha virt. eigenvalues --    0.77854   0.77949   0.78251   0.79917   0.80388
 Alpha virt. eigenvalues --    0.81230   0.81567   0.82339   0.82991   0.85203
 Alpha virt. eigenvalues --    0.87066   0.88141   0.88268   0.89258   0.90560
 Alpha virt. eigenvalues --    0.91025   0.91375   0.93263   0.94596   0.96299
 Alpha virt. eigenvalues --    0.96844   1.00263   1.01262   1.01577   1.02797
 Alpha virt. eigenvalues --    1.03162   1.03244   1.04828   1.06178   1.08827
 Alpha virt. eigenvalues --    1.19561   1.23052   1.24126   1.24534   1.28607
 Alpha virt. eigenvalues --    1.29426   1.32089   1.34323   1.35742   1.35972
 Alpha virt. eigenvalues --    1.39310   1.39786   1.40877   1.42997   1.43450
 Alpha virt. eigenvalues --    1.43520   1.44280   1.46351   1.46569   1.46614
 Alpha virt. eigenvalues --    1.47682   1.48115   1.51724   1.53652   1.55639
 Alpha virt. eigenvalues --    1.55790   1.56302   1.56588   1.57787   1.61433
 Alpha virt. eigenvalues --    1.63079   1.63392   1.64114   1.66073   1.68307
 Alpha virt. eigenvalues --    1.68314   1.68729   1.69822   1.74378   1.75998
 Alpha virt. eigenvalues --    1.77142   1.78073   1.79820   1.80015   1.80805
 Alpha virt. eigenvalues --    1.82915   1.83202   1.83583   1.83812   1.84193
 Alpha virt. eigenvalues --    1.84491   1.85539   1.86348   1.88312   1.91400
 Alpha virt. eigenvalues --    1.92106   1.94063   1.95274   1.97747   1.98137
 Alpha virt. eigenvalues --    1.99760   2.02287   2.04461   2.07296   2.11733
 Alpha virt. eigenvalues --    2.12111   2.14207   2.15256   2.19036   2.21159
 Alpha virt. eigenvalues --    2.22751   2.28556   2.30145   2.34485   2.34817
 Alpha virt. eigenvalues --    2.36314   2.38616   2.39655   2.42326   2.44761
 Alpha virt. eigenvalues --    2.46114   2.46344   2.49226   2.52916   2.53773
 Alpha virt. eigenvalues --    2.54174   2.56895   2.57884   2.58385   2.59469
 Alpha virt. eigenvalues --    2.59893   2.61542   2.62121   2.63544   2.63720
 Alpha virt. eigenvalues --    2.64809   2.65067   2.65079   2.65530   2.67861
 Alpha virt. eigenvalues --    2.68385   2.70925   2.71449   2.73358   2.74804
 Alpha virt. eigenvalues --    2.76289   2.78408   2.79650   2.82936   2.83152
 Alpha virt. eigenvalues --    2.84843   2.86232   2.92097   2.97093   2.99430
 Alpha virt. eigenvalues --    3.00102   3.04843   3.09826   3.11210   3.13850
 Alpha virt. eigenvalues --    3.20631   3.22371   3.26348   3.28517   3.30607
 Alpha virt. eigenvalues --    3.32786   3.34436   3.43751   3.46113   3.46622
 Alpha virt. eigenvalues --    3.48267   3.49996   3.56367   3.66223   3.66782
 Alpha virt. eigenvalues --    3.67724   3.93864   3.94114   3.95376   3.96390
 Alpha virt. eigenvalues --    4.03939   4.06566   4.07576   4.12542   4.35228
 Alpha virt. eigenvalues --    4.60810   4.69320   4.71298  23.45268  23.60166
 Alpha virt. eigenvalues --   23.80688  23.83165  23.85827  23.89049  23.91590
 Alpha virt. eigenvalues --   23.94891  23.95912  23.97635  24.02405  24.04514
 Alpha virt. eigenvalues --   24.11058  24.12181
          Condensed to atoms (all electrons):
               1          2          3          4          5          6
     1  C    8.421639   0.452796  -0.627493   1.848444  -0.016794  -0.087601
     2  C    0.452796   7.199589   0.406601  -1.031769  -0.032795  -0.014891
     3  C   -0.627493   0.406601   6.603902   0.732131  -0.115627   0.016902
     4  C    1.848444  -1.031769   0.732131  11.522612  -0.405154  -0.139522
     5  C   -0.016794  -0.032795  -0.115627  -0.405154  10.821367   0.827830
     6  C   -0.087601  -0.014891   0.016902  -0.139522   0.827830   6.597559
     7  C   -0.027422  -0.000380  -0.013185   0.012824  -1.210102   0.255704
     8  C    0.404741  -0.000995  -0.104760  -0.089250   2.278646  -0.399859
     9  C   -1.111551  -0.862515   0.297964   0.013359  -0.366991   0.297447
    10  C   -1.235317   0.180206  -0.275307  -2.763660  -2.422071  -0.421298
    11  C    0.342799  -0.798406   0.902074  -0.341650  -1.436886  -0.120329
    12  C   -1.939353   1.114501  -1.361138  -1.699834  -0.242553  -0.271615
    13  C    0.217393  -0.214428  -0.216640  -1.583939  -0.333180   1.087811
    14  C   -1.136644  -0.276302  -0.128482  -0.442637  -1.691652  -1.501773
    15  H    0.368241  -0.107326  -0.002707   0.026049   0.006235   0.001214
    16  H   -0.020101   0.383138  -0.021170   0.016376  -0.001668  -0.000354
    17  H   -0.021366  -0.021491   0.380581  -0.070232   0.000171   0.000414
    18  H    0.048523   0.003541  -0.083716   0.467284   0.005522  -0.005079
    19  H   -0.044339  -0.008242   0.051392  -0.079080  -0.062646   0.051815
    20  H    0.006894   0.002071  -0.005280   0.005541   0.456658  -0.084294
    21  H   -0.001241  -0.000417   0.000389   0.000444  -0.067055   0.369319
    22  H    0.000463   0.000328  -0.000302  -0.001354   0.010541  -0.013235
    23  H    0.006402  -0.002327   0.000998   0.004619   0.030036   0.001145
    24  H    0.037541   0.015810  -0.001382  -0.011362  -0.013011  -0.001801
    25  H    0.037541   0.015810  -0.001382  -0.011362  -0.013011  -0.001801
               7          8          9         10         11         12
     1  C   -0.027422   0.404741  -1.111551  -1.235317   0.342799  -1.939353
     2  C   -0.000380  -0.000995  -0.862515   0.180206  -0.798406   1.114501
     3  C   -0.013185  -0.104760   0.297964  -0.275307   0.902074  -1.361138
     4  C    0.012824  -0.089250   0.013359  -2.763660  -0.341650  -1.699834
     5  C   -1.210102   2.278646  -0.366991  -2.422071  -1.436886  -0.242553
     6  C    0.255704  -0.399859   0.297447  -0.421298  -0.120329  -0.271615
     7  C    7.211708   0.001209  -0.793467   0.339215  -0.293753  -0.092319
     8  C    0.001209   8.956010  -1.096925  -1.391993   0.296571  -1.062403
     9  C   -0.793467  -1.096925   9.582621   0.259083   1.557888  -2.049247
    10  C    0.339215  -1.391993   0.259083   9.084000  -0.295026   2.385679
    11  C   -0.293753   0.296571   1.557888  -0.295026  14.492717  -4.021771
    12  C   -0.092319  -1.062403  -2.049247   2.385679  -4.021771  16.273889
    13  C   -0.962674   0.311569   1.437463  -0.433529   1.085203  -4.699875
    14  C    1.706838  -2.610338  -1.729752   2.452986  -4.794986   3.165768
    15  H   -0.002847   0.004882   0.087777  -0.008158  -0.029722  -0.014759
    16  H    0.000401   0.001001   0.001666  -0.010039   0.024232  -0.029555
    17  H   -0.000378  -0.001388  -0.004834   0.020016  -0.025418   0.087451
    18  H    0.002148   0.006953  -0.022690   0.006639  -0.007610  -0.050324
    19  H   -0.007531  -0.048146   0.074702   0.422115   0.077043  -0.083175
    20  H    0.001941   0.054293  -0.025620   0.012913  -0.012097  -0.009818
    21  H   -0.008881  -0.032176  -0.006204   0.020201  -0.006214   0.005320
    22  H    0.375219  -0.017152   0.003532  -0.007991   0.002504  -0.007831
    23  H   -0.109432   0.371238   0.094364  -0.010988   0.006283   0.004902
    24  H    0.013312   0.029349   0.355516   0.005295   0.023079  -0.060210
    25  H    0.013312   0.029349   0.355516   0.005295   0.023079  -0.060210
              13         14         15         16         17         18
     1  C    0.217393  -1.136644   0.368241  -0.020101  -0.021366   0.048523
     2  C   -0.214428  -0.276302  -0.107326   0.383138  -0.021491   0.003541
     3  C   -0.216640  -0.128482  -0.002707  -0.021170   0.380581  -0.083716
     4  C   -1.583939  -0.442637   0.026049   0.016376  -0.070232   0.467284
     5  C   -0.333180  -1.691652   0.006235  -0.001668   0.000171   0.005522
     6  C    1.087811  -1.501773   0.001214  -0.000354   0.000414  -0.005079
     7  C   -0.962674   1.706838  -0.002847   0.000401  -0.000378   0.002148
     8  C    0.311569  -2.610338   0.004882   0.001001  -0.001388   0.006953
     9  C    1.437463  -1.729752   0.087777   0.001666  -0.004834  -0.022690
    10  C   -0.433529   2.452986  -0.008158  -0.010039   0.020016   0.006639
    11  C    1.085203  -4.794986  -0.029722   0.024232  -0.025418  -0.007610
    12  C   -4.699875   3.165768  -0.014759  -0.029555   0.087451  -0.050324
    13  C   14.251931  -3.373146  -0.002746   0.003344  -0.006281  -0.012361
    14  C   -3.373146  15.905058   0.007448  -0.010188   0.005268  -0.020783
    15  H   -0.002746   0.007448   0.435193  -0.008977   0.001643   0.000217
    16  H    0.003344  -0.010188  -0.008977   0.416775  -0.007022   0.001969
    17  H   -0.006281   0.005268   0.001643  -0.007022   0.420252  -0.010180
    18  H   -0.012361  -0.020783   0.000217   0.001969  -0.010180   0.449676
    19  H    0.081055  -0.049378   0.000400  -0.000600   0.001684  -0.005879
    20  H   -0.002157  -0.065161  -0.000125   0.000019  -0.000164   0.001246
    21  H   -0.026768   0.097120   0.000017  -0.000007   0.000010  -0.000125
    22  H    0.025035  -0.032166  -0.000125   0.000008  -0.000007   0.000012
    23  H   -0.033349  -0.034675   0.000554  -0.000131   0.000011  -0.000105
    24  H    0.004235  -0.060522  -0.000947   0.000630  -0.000136   0.000153
    25  H    0.004235  -0.060522  -0.000947   0.000630  -0.000136   0.000153
              19         20         21         22         23         24
     1  C   -0.044339   0.006894  -0.001241   0.000463   0.006402   0.037541
     2  C   -0.008242   0.002071  -0.000417   0.000328  -0.002327   0.015810
     3  C    0.051392  -0.005280   0.000389  -0.000302   0.000998  -0.001382
     4  C   -0.079080   0.005541   0.000444  -0.001354   0.004619  -0.011362
     5  C   -0.062646   0.456658  -0.067055   0.010541   0.030036  -0.013011
     6  C    0.051815  -0.084294   0.369319  -0.013235   0.001145  -0.001801
     7  C   -0.007531   0.001941  -0.008881   0.375219  -0.109432   0.013312
     8  C   -0.048146   0.054293  -0.032176  -0.017152   0.371238   0.029349
     9  C    0.074702  -0.025620  -0.006204   0.003532   0.094364   0.355516
    10  C    0.422115   0.012913   0.020201  -0.007991  -0.010988   0.005295
    11  C    0.077043  -0.012097  -0.006214   0.002504   0.006283   0.023079
    12  C   -0.083175  -0.009818   0.005320  -0.007831   0.004902  -0.060210
    13  C    0.081055  -0.002157  -0.026768   0.025035  -0.033349   0.004235
    14  C   -0.049378  -0.065161   0.097120  -0.032166  -0.034675  -0.060522
    15  H    0.000400  -0.000125   0.000017  -0.000125   0.000554  -0.000947
    16  H   -0.000600   0.000019  -0.000007   0.000008  -0.000131   0.000630
    17  H    0.001684  -0.000164   0.000010  -0.000007   0.000011  -0.000136
    18  H   -0.005879   0.001246  -0.000125   0.000012  -0.000105   0.000153
    19  H    0.443520  -0.006790   0.001182  -0.000494   0.000245   0.000579
    20  H   -0.006790   0.458568  -0.010436   0.001897   0.000064   0.000222
    21  H    0.001182  -0.010436   0.424448  -0.006072   0.001271  -0.000150
    22  H   -0.000494   0.001897  -0.006072   0.422055  -0.008985   0.000636
    23  H    0.000245   0.000064   0.001271  -0.008985   0.443951  -0.000891
    24  H    0.000579   0.000222  -0.000150   0.000636  -0.000891   0.493001
    25  H    0.000579   0.000222  -0.000150   0.000636  -0.000891  -0.078662
              25
     1  C    0.037541
     2  C    0.015810
     3  C   -0.001382
     4  C   -0.011362
     5  C   -0.013011
     6  C   -0.001801
     7  C    0.013312
     8  C    0.029349
     9  C    0.355516
    10  C    0.005295
    11  C    0.023079
    12  C   -0.060210
    13  C    0.004235
    14  C   -0.060522
    15  H   -0.000947
    16  H    0.000630
    17  H   -0.000136
    18  H    0.000153
    19  H    0.000579
    20  H    0.000222
    21  H   -0.000150
    22  H    0.000636
    23  H   -0.000891
    24  H   -0.078662
    25  H    0.493001
 Mulliken charges:
               1
     1  C    0.075803
     2  C   -0.402108
     3  C   -0.434365
     4  C    0.021124
     5  C   -0.005810
     6  C   -0.443709
     7  C   -0.411458
     8  C    0.109575
     9  C   -0.349101
    10  C    0.081734
    11  C   -0.649602
    12  C    0.718480
    13  C   -0.608202
    14  C    0.678621
    15  H    0.239515
    16  H    0.259622
    17  H    0.251532
    18  H    0.224816
    19  H    0.189987
    20  H    0.219394
    21  H    0.246174
    22  H    0.252848
    23  H    0.235693
    24  H    0.249719
    25  H    0.249719
 Sum of Mulliken charges =   1.00000
 Mulliken charges with hydrogens summed into heavy atoms:
               1
     1  C    0.315317
     2  C   -0.142486
     3  C   -0.182833
     4  C    0.245940
     5  C    0.213584
     6  C   -0.197535
     7  C   -0.158610
     8  C    0.345269
     9  C    0.150336
    10  C    0.271721
    11  C   -0.649602
    12  C    0.718480
    13  C   -0.608202
    14  C    0.678621
 Electronic spatial extent (au):  <R**2>=           2857.4386
 Charge=              1.0000 electrons
 Dipole moment (field-independent basis, Debye):
    X=             -0.2322    Y=             -0.8257    Z=             -0.0000  Tot=              0.8577
 Quadrupole moment (field-independent basis, Debye-Ang):
   XX=            -51.0803   YY=            -36.2264   ZZ=            -84.1365
   XY=             10.2189   XZ=              0.0000   YZ=             -0.0000
 Traceless Quadrupole moment (field-independent basis, Debye-Ang):
   XX=              6.0675   YY=             20.9213   ZZ=            -26.9888
   XY=             10.2189   XZ=              0.0000   YZ=             -0.0000
 Octapole moment (field-independent basis, Debye-Ang**2):
  XXX=             -2.6146  YYY=             -2.0039  ZZZ=             -0.0000  XYY=             -2.4123
  XXY=             -7.5360  XXZ=             -0.0000  XZZ=             -3.3154  YZZ=              0.3785
  YYZ=             -0.0000  XYZ=              0.0000
 Hexadecapole moment (field-independent basis, Debye-Ang**3):
 XXXX=           -987.0261 YYYY=          -1850.8030 ZZZZ=            -99.3305 XXXY=           -347.4914
 XXXZ=              0.0000 YYYX=           -273.2846 YYYZ=             -0.0000 ZZZX=              0.0000
 ZZZY=             -0.0000 XXYY=           -455.0542 XXZZ=           -241.1012 YYZZ=           -495.6722
 XXYZ=             -0.0000 YYXZ=              0.0000 ZZXY=           -182.6600
 N-N= 7.810231594497D+02 E-N=-2.798390724361D+03  KE= 5.375107520046D+02
 Symmetry A'   KE= 5.228595235446D+02
 Symmetry A"   KE= 1.465122845995D+01
 Unable to Open any file for archive entry.
 1\1\GINC-GADI-CPU-CLX-0648\SP\RM062X TD-FC\6-311++G(d,p)\C14H11(1+)\TS
 1578\27-Jul-2022\0\\#n M062X/6-311++G(d,p) TD(NStates=1) EmpiricalDisp
 ersion=GD3 SP\\SP_-25\\1,1\C,0,2.47405,1.3694,0.\C,0,3.677775,0.669775
 ,0.\C,0,3.6776,-0.7247,0.\C,0,2.4867,-1.41275,0.\C,0,-2.4399,-1.38545,
 0.\C,0,-3.6914,-0.6875,0.\C,0,-3.727125,0.690925,0.\C,0,-2.51515,1.367
 6,0.\C,0,-0.013175,1.4665,0.\C,0,0.0366,-1.4207,0.\C,0,1.267725,0.6972
 25,0.\C,0,1.2521,-0.7236,0.\C,0,-1.256775,0.674275,0.\C,0,-1.2221,-0.7
 2,0.\H,0,2.484,2.452325,0.\H,0,4.612975,1.211025,0.\H,0,4.61395,-1.264
 275,0.\H,0,2.47815,-2.494825,0.\H,0,0.03375,-2.5017,0.\H,0,-2.45625,-2
 .468275,0.\H,0,-4.60525,-1.265625,0.\H,0,-4.662925,1.228275,0.\H,0,-2.
 4966,2.450975,0.\H,0,-0.048,2.1555,-0.8607\H,0,-0.048,2.1555,0.8607\\V
 ersion=ES64L-G16RevC.01\State=1-A'\HF=-539.7563509\RMSD=8.873e-09\PG=C
 S [SG(C14H9),X(H2)]\\@
 The archive entry for this job was punched.


 IF IT HAPPENS, IT MUST BE POSSIBLE.

 -- THE UNNAMED LAW FROM PAUL DICKSON'S 
    "THE OFFICIAL RULES"
 Job cpu time:       0 days  0 hours 44 minutes 49.5 seconds.
 Elapsed time:       0 days  0 hours  1 minutes 25.0 seconds.
 File lengths (MBytes):  RWF=    460 Int=      0 D2E=      0 Chk=     15 Scr=      1
 Normal termination of Gaussian 16 at Wed Jul 27 11:10:16 2022.
