 Entering Gaussian System, Link 0=g16
 Initial command:
 /apps/gaussian/g16c01/g16/l1.exe "/jobfs/52804872.gadi-pbs/Gau-1398666.inp" -scrdir="/jobfs/52804872.gadi-pbs/"
 Entering Link 1 = /apps/gaussian/g16c01/g16/l1.exe PID=   1398679.
  
 Copyright (c) 1988-2019, Gaussian, Inc.  All Rights Reserved.
  
 This is part of the Gaussian(R) 16 program.  It is based on
 the Gaussian(R) 09 system (copyright 2009, Gaussian, Inc.),
 the Gaussian(R) 03 system (copyright 2003, Gaussian, Inc.),
 the Gaussian(R) 98 system (copyright 1998, Gaussian, Inc.),
 the Gaussian(R) 94 system (copyright 1995, Gaussian, Inc.),
 the Gaussian 92(TM) system (copyright 1992, Gaussian, Inc.),
 the Gaussian 90(TM) system (copyright 1990, Gaussian, Inc.),
 the Gaussian 88(TM) system (copyright 1988, Gaussian, Inc.),
 the Gaussian 86(TM) system (copyright 1986, Carnegie Mellon
 University), and the Gaussian 82(TM) system (copyright 1983,
 Carnegie Mellon University). Gaussian is a federally registered
 trademark of Gaussian, Inc.
  
 This software contains proprietary and confidential information,
 including trade secrets, belonging to Gaussian, Inc.
  
 This software is provided under written license and may be
 used, copied, transmitted, or stored only in accord with that
 written license.
  
 The following legend is applicable only to US Government
 contracts under FAR:
  
                    RESTRICTED RIGHTS LEGEND
  
 Use, reproduction and disclosure by the US Government is
 subject to restrictions as set forth in subparagraphs (a)
 and (c) of the Commercial Computer Software - Restricted
 Rights clause in FAR 52.227-19.
  
 Gaussian, Inc.
 340 Quinnipiac St., Bldg. 40, Wallingford CT 06492
  
  
 ---------------------------------------------------------------
 Warning -- This program may not be used in any manner that
 competes with the business of Gaussian, Inc. or will provide
 assistance to any competitor of Gaussian, Inc.  The licensee
 of this program is prohibited from giving any competitor of
 Gaussian, Inc. access to this program.  By using this program,
 the user acknowledges that Gaussian, Inc. is engaged in the
 business of creating and licensing software in the field of
 computational chemistry and represents and warrants to the
 licensee that it is not a competitor of Gaussian, Inc. and that
 it will not use this program in any manner prohibited above.
 ---------------------------------------------------------------
  

 Cite this work as:
 Gaussian 16, Revision C.01,
 M. J. Frisch, G. W. Trucks, H. B. Schlegel, G. E. Scuseria, 
 M. A. Robb, J. R. Cheeseman, G. Scalmani, V. Barone, 
 G. A. Petersson, H. Nakatsuji, X. Li, M. Caricato, A. V. Marenich, 
 J. Bloino, B. G. Janesko, R. Gomperts, B. Mennucci, H. P. Hratchian, 
 J. V. Ortiz, A. F. Izmaylov, J. L. Sonnenberg, D. Williams-Young, 
 F. Ding, F. Lipparini, F. Egidi, J. Goings, B. Peng, A. Petrone, 
 T. Henderson, D. Ranasinghe, V. G. Zakrzewski, J. Gao, N. Rega, 
 G. Zheng, W. Liang, M. Hada, M. Ehara, K. Toyota, R. Fukuda, 
 J. Hasegawa, M. Ishida, T. Nakajima, Y. Honda, O. Kitao, H. Nakai, 
 T. Vreven, K. Throssell, J. A. Montgomery, Jr., J. E. Peralta, 
 F. Ogliaro, M. J. Bearpark, J. J. Heyd, E. N. Brothers, K. N. Kudin, 
 V. N. Staroverov, T. A. Keith, R. Kobayashi, J. Normand, 
 K. Raghavachari, A. P. Rendell, J. C. Burant, S. S. Iyengar, 
 J. Tomasi, M. Cossi, J. M. Millam, M. Klene, C. Adamo, R. Cammi, 
 J. W. Ochterski, R. L. Martin, K. Morokuma, O. Farkas, 
 J. B. Foresman, and D. J. Fox, Gaussian, Inc., Wallingford CT, 2019.
 
 ******************************************
 Gaussian 16:  ES64L-G16RevC.01  3-Jul-2019
                27-Jul-2022 
 ******************************************
 %NProcShared=32
 Will use up to   32 processors via shared memory.
 %mem = 128GB
 ---------------------------------------------------------------
 #n M062X/6-311++G(d,p) TD(NStates=1) EmpiricalDispersion=GD3 SP
 ---------------------------------------------------------------
 1/38=1,172=1/1;
 2/12=2,17=6,18=5,40=1/2;
 3/5=4,6=6,7=1111,11=9,25=1,30=1,74=-55,124=31/1,2,3,8;
 4//1;
 5/5=2,38=5/2;
 8/6=1,10=2,108=1/1;
 9/41=1,42=1,70=2/14;
 6/7=2,8=2,9=2,10=2/1;
 99/5=1,9=1/99;
 ------
 SP_-75
 ------
 Symbolic Z-matrix:
 Charge =  1 Multiplicity = 1
 C                     2.49575   1.37      0. 
 C                     3.70783   0.68493   0. 
 C                     3.685    -0.6969    0. 
 C                     2.4552   -1.39395   0. 
 C                    -2.4708   -1.40305   0. 
 C                    -3.6804   -0.7093    0. 
 C                    -3.69137   0.67788   0. 
 C                    -2.48205   1.3706    0. 
 C                     0.00448   1.4533    0. 
 C                    -0.0122   -1.4201    0. 
 C                     1.25998   0.68178   0. 
 C                     1.2333   -0.7221    0. 
 C                    -1.26363   0.68943   0. 
 C                    -1.2433   -0.7233    0. 
 H                     2.4858    2.45338   0. 
 H                     4.64283   1.22477   0. 
 H                     4.60725  -1.26143   0. 
 H                     2.46445  -2.47667   0. 
 H                    -0.01125  -2.5014    0. 
 H                    -2.47175  -2.48552   0. 
 H                    -4.61015  -1.26098   0. 
 H                    -4.62617   1.21903   0. 
 H                    -2.4816    2.45383   0. 
 H                     0.016     2.1525   -0.8574 
 H                     0.016     2.1525    0.8574 
 
                          Input orientation:                          
 ---------------------------------------------------------------------
 Center     Atomic      Atomic             Coordinates (Angstroms)
 Number     Number       Type             X           Y           Z
 ---------------------------------------------------------------------
      1          6           0        2.495750    1.370000    0.000000
      2          6           0        3.707825    0.684925    0.000000
      3          6           0        3.685000   -0.696900    0.000000
      4          6           0        2.455200   -1.393950    0.000000
      5          6           0       -2.470800   -1.403050    0.000000
      6          6           0       -3.680400   -0.709300    0.000000
      7          6           0       -3.691375    0.677875    0.000000
      8          6           0       -2.482050    1.370600    0.000000
      9          6           0        0.004475    1.453300    0.000000
     10          6           0       -0.012200   -1.420100    0.000000
     11          6           0        1.259975    0.681775    0.000000
     12          6           0        1.233300   -0.722100    0.000000
     13          6           0       -1.263625    0.689425    0.000000
     14          6           0       -1.243300   -0.723300    0.000000
     15          1           0        2.485800    2.453375    0.000000
     16          1           0        4.642825    1.224775    0.000000
     17          1           0        4.607250   -1.261425    0.000000
     18          1           0        2.464450   -2.476675    0.000000
     19          1           0       -0.011250   -2.501400    0.000000
     20          1           0       -2.471750   -2.485525    0.000000
     21          1           0       -4.610150   -1.260975    0.000000
     22          1           0       -4.626175    1.219025    0.000000
     23          1           0       -2.481600    2.453825    0.000000
     24          1           0        0.016000    2.152500   -0.857400
     25          1           0        0.016000    2.152500    0.857400
 ---------------------------------------------------------------------
                    Distance matrix (angstroms):
                    1          2          3          4          5
     1  C    0.000000
     2  C    1.392284   0.000000
     3  C    2.384616   1.382013   0.000000
     4  C    2.764247   2.427095   1.413608   0.000000
     5  C    5.688271   6.521890   6.196170   4.926008   0.000000
     6  C    6.516772   7.518626   7.365410   6.173681   1.394425
     7  C    6.225717   7.399203   7.503394   6.486358   2.412478
     8  C    4.977800   6.227737   6.504388   5.658549   2.773673
     9  C    2.492667   3.782222   4.262584   3.756712   3.779646
    10  C    3.751596   4.274309   3.767268   2.467539   2.458659
    11  C    1.414494   2.447852   2.789532   2.395245   4.273778
    12  C    2.443494   2.846576   2.451830   1.394425   3.766172
    13  C    3.820482   4.971452   5.139143   4.262641   2.415724
    14  C    4.285137   5.147498   4.928371   3.758813   1.403145
    15  H    1.083421   2.149595   3.370803   3.847447   6.280119
    16  H    2.151981   1.079659   2.147152   3.412246   7.583477
    17  H    3.373845   2.144118   1.081311   2.156127   7.079467
    18  H    3.846802   3.397307   2.158087   1.082765   5.050679
    19  H    4.612243   4.897365   4.113209   2.703668   2.693652
    20  H    6.288174   6.945423   6.411299   5.046422   1.082475
    21  H    7.577324   8.542554   8.314307   7.066601   2.144062
    22  H    7.123525   8.351097   8.529150   7.548080   3.394248
    23  H    5.093986   6.437235   6.924884   6.259183   3.856890
    24  H    2.737992   4.064294   4.723958   4.388865   4.422810
    25  H    2.737992   4.064294   4.723958   4.388865   4.422810
                    6          7          8          9         10
     6  C    0.000000
     7  C    1.387218   0.000000
     8  C    2.400422   1.393677   0.000000
     9  C    4.272604   3.776320   2.487900   0.000000
    10  C    3.736433   4.235307   3.726683   2.873448   0.000000
    11  C    5.132484   4.951352   3.804896   1.473612   2.456890
    12  C    4.913717   5.119800   4.264179   2.498475   1.427751
    13  C    2.792353   2.427777   1.395908   1.480399   2.452786
    14  C    2.437140   2.820702   2.432883   2.508890   1.414616
    15  H    6.929974   6.427277   5.084480   2.675280   4.609101
    16  H    8.544982   8.352125   7.126367   4.643976   5.353935
    17  H    8.306021   8.522210   7.562125   5.343713   4.622174
    18  H    6.393966   6.917035   6.266529   4.636397   2.692610
    19  H    4.083416   4.863241   4.593173   3.954731   1.081300
    20  H    2.148444   3.390366   3.856139   4.652530   2.680395
    21  H    1.081101   2.145527   3.384375   5.353695   4.600703
    22  H    2.147773   1.080136   2.149476   4.636572   5.315425
    23  H    3.382674   2.148849   1.083225   2.679854   4.594043
    24  H    4.752726   4.080966   2.754407   1.106412   3.674153
    25  H    4.752726   4.080966   2.754407   1.106412   3.674153
                   11         12         13         14         15
    11  C    0.000000
    12  C    1.404128   0.000000
    13  C    2.523612   2.868281   0.000000
    14  C    2.870648   2.476600   1.412871   0.000000
    15  H    2.154348   3.413561   4.143635   4.898719   0.000000
    16  H    3.426153   3.926217   5.930662   6.200118   2.482381
    17  H    3.870436   3.416784   6.186517   5.875246   4.277884
    18  H    3.380320   2.143423   4.891087   4.101431   4.930096
    19  H    3.427625   2.171362   3.427799   2.163235   5.548428
    20  H    4.894646   4.103299   3.397039   2.148145   6.997859
    21  H    6.183255   5.868245   3.873408   3.409512   8.009301
    22  H    5.910618   6.172634   3.404000   3.900829   7.218297
    23  H    4.139993   4.887431   2.143961   3.409914   4.967400
    24  H    2.108469   3.237326   2.124421   3.254412   2.631648
    25  H    2.108469   3.237326   2.124421   3.254412   2.631648
                   16         17         18         19         20
    16  H    0.000000
    17  H    2.486455   0.000000
    18  H    4.294886   2.463417   0.000000
    19  H    5.961946   4.782058   2.475823   0.000000
    20  H    8.023933   7.184056   4.936208   2.460551   0.000000
    21  H    9.581049   9.217400   7.178293   4.763248   2.464199
    22  H    9.269002   9.560793   7.995947   5.927824   4.285468
    23  H    7.229661   8.003429   6.983784   5.536866   4.939360
    24  H    4.796177   5.785291   5.306534   4.732300   5.332477
    25  H    4.796177   5.785291   5.306534   4.732300   5.332477
                   21         22         23         24         25
    21  H    0.000000
    22  H    2.480052   0.000000
    23  H    4.281409   2.474658   0.000000
    24  H    5.812763   4.812099   2.657807   0.000000
    25  H    5.812763   4.812099   2.657807   1.714800   0.000000
 Stoichiometry    C14H11(1+)
 Framework group  CS[SG(C14H9),X(H2)]
 Deg. of freedom    46
 Full point group                 CS      NOp   2
 Largest Abelian subgroup         CS      NOp   2
 Largest concise Abelian subgroup CS      NOp   2
                         Standard orientation:                         
 ---------------------------------------------------------------------
 Center     Atomic      Atomic             Coordinates (Angstroms)
 Number     Number       Type             X           Y           Z
 ---------------------------------------------------------------------
      1          6           0        0.024665    2.842602    0.000000
      2          6           0       -1.150756    3.588818    0.000000
      3          6           0       -2.358774    2.917510    0.000000
      4          6           0       -2.394038    1.504342    0.000000
      5          6           0       -0.080716   -2.844693    0.000000
      6          6           0        1.101190   -3.584638    0.000000
      7          6           0        2.329854   -2.940620    0.000000
      8          6           0        2.370953   -1.547549    0.000000
      9          6           0        1.272134    0.684545    0.000000
     10          6           0       -1.254355   -0.684235    0.000000
     11          6           0        0.000000    1.428323    0.000000
     12          6           0       -1.225651    0.743228    0.000000
     13          6           0        1.195979   -0.793894    0.000000
     14          6           0       -0.059627   -1.441706    0.000000
     15          1           0        0.984894    3.344360    0.000000
     16          1           0       -1.115220    4.667892    0.000000
     17          1           0       -3.291291    3.464908    0.000000
     18          1           0       -3.353364    1.002273    0.000000
     19          1           0       -2.208512   -1.192953    0.000000
     20          1           0       -1.035015   -3.355640    0.000000
     21          1           0        1.052750   -4.664653    0.000000
     22          1           0        3.247669   -3.510102    0.000000
     23          1           0        3.326148   -1.036689    0.000000
     24          1           0        1.883399    1.024204    0.857400
     25          1           0        1.883399    1.024204   -0.857400
 ---------------------------------------------------------------------
 Rotational constants (GHZ):           2.1391187           0.4450431           0.3691956
 Standard basis: 6-311++G(d,p) (5D, 7F)
 There are   299 symmetry adapted cartesian basis functions of A'  symmetry.
 There are   100 symmetry adapted cartesian basis functions of A"  symmetry.
 There are   285 symmetry adapted basis functions of A'  symmetry.
 There are   100 symmetry adapted basis functions of A"  symmetry.
   385 basis functions,   603 primitive gaussians,   399 cartesian basis functions
    47 alpha electrons       47 beta electrons
       nuclear repulsion energy       781.5938694167 Hartrees.
 NAtoms=   25 NActive=   25 NUniq=   24 SFac= 1.09D+00 NAtFMM=   60 NAOKFM=F Big=F
 Integral buffers will be    131072 words long.
 Regular integral format.
 Two-electron integral symmetry is turned on.
 Nuclear repulsion after empirical dispersion term =      781.5928900800 Hartrees.
 One-electron integrals computed using PRISM.
 NBasis=   385 RedAO= T EigKep=  1.11D-06  NBF=   285   100
 NBsUse=   379 1.00D-06 EigRej=  8.32D-07 NBFU=   279   100
 ExpMin= 3.60D-02 ExpMax= 4.56D+03 ExpMxC= 6.82D+02 IAcc=3 IRadAn=         5 AccDes= 0.00D+00
 Harris functional with IExCor= 1009 and IRadAn=       5 diagonalized for initial guess.
 HarFok:  IExCor= 1009 AccDes= 0.00D+00 IRadAn=         5 IDoV= 1 UseB2=F ITyADJ=14
 ICtDFT=  3500011 ScaDFX=  1.000000  1.000000  1.000000  1.000000
 FoFCou: FMM=F IPFlag=           0 FMFlag=      100000 FMFlg1=           0
         NFxFlg=           0 DoJE=T BraDBF=F KetDBF=T FulRan=T
         wScrn=  0.000000 ICntrl=       500 IOpCl=  0 I1Cent=   200000004 NGrid=           0
         NMat0=    1 NMatS0=      1 NMatT0=    0 NMatD0=    1 NMtDS0=    0 NMtDT0=    0
 Petite list used in FoFCou.
 Initial guess orbital symmetries:
       Occupied  (A') (A') (A') (A') (A') (A') (A') (A') (A') (A')
                 (A') (A') (A') (A') (A') (A') (A') (A') (A') (A')
                 (A') (A') (A') (A') (A') (A') (A') (A') (A') (A')
                 (A') (A') (A") (A') (A') (A') (A') (A') (A') (A")
                 (A") (A') (A') (A") (A") (A") (A")
       Virtual   (A") (A") (A") (A") (A") (A') (A') (A') (A') (A")
                 (A") (A') (A') (A') (A") (A') (A') (A') (A') (A")
                 (A') (A") (A') (A') (A') (A") (A') (A") (A') (A')
                 (A') (A') (A') (A") (A') (A') (A") (A') (A') (A")
                 (A') (A') (A') (A") (A') (A') (A') (A') (A') (A")
                 (A') (A') (A") (A") (A') (A') (A') (A") (A") (A')
                 (A') (A') (A') (A') (A') (A") (A') (A') (A') (A")
                 (A') (A') (A') (A') (A') (A') (A') (A') (A') (A')
                 (A') (A') (A') (A') (A') (A') (A') (A') (A') (A')
                 (A') (A') (A') (A') (A') (A') (A') (A") (A') (A")
                 (A') (A') (A") (A") (A') (A") (A') (A") (A') (A")
                 (A") (A') (A') (A') (A") (A') (A') (A") (A") (A')
                 (A") (A") (A') (A') (A') (A") (A') (A') (A') (A")
                 (A') (A') (A') (A') (A') (A') (A") (A') (A') (A')
                 (A') (A') (A') (A') (A') (A') (A') (A') (A') (A")
                 (A") (A') (A") (A") (A') (A') (A') (A") (A") (A')
                 (A") (A') (A") (A") (A") (A') (A') (A') (A') (A')
                 (A') (A") (A') (A") (A') (A') (A') (A') (A') (A")
                 (A') (A') (A') (A') (A") (A') (A") (A') (A") (A")
                 (A') (A") (A') (A") (A') (A') (A') (A") (A') (A')
                 (A") (A") (A") (A') (A') (A") (A') (A") (A') (A')
                 (A") (A") (A') (A") (A') (A") (A') (A') (A") (A')
                 (A') (A') (A') (A') (A") (A') (A') (A') (A") (A")
                 (A') (A') (A') (A") (A') (A') (A") (A') (A") (A')
                 (A") (A') (A') (A') (A') (A') (A") (A') (A') (A")
                 (A') (A') (A") (A') (A") (A') (A') (A") (A') (A')
                 (A') (A') (A") (A") (A') (A') (A') (A") (A") (A')
                 (A') (A') (A') (A') (A") (A') (A") (A') (A") (A')
                 (A") (A') (A") (A") (A") (A') (A') (A') (A') (A')
                 (A') (A') (A') (A') (A') (A') (A') (A') (A') (A')
                 (A') (A') (A') (A") (A') (A') (A') (A') (A') (A')
                 (A') (A') (A') (A') (A') (A') (A') (A') (A') (A')
                 (A') (A') (A') (A') (A') (A') (A') (A') (A') (A')
                 (A') (A')
 The electronic state of the initial guess is 1-A'.
 Requested convergence on RMS density matrix=1.00D-08 within 128 cycles.
 Requested convergence on MAX density matrix=1.00D-06.
 Requested convergence on             energy=1.00D-06.
 No special actions if energy rises.
 SCF Done:  E(RM062X) =  -539.759598788     A.U. after   15 cycles
            NFock= 15  Conv=0.58D-08     -V/T= 2.0042
 DoSCS=F DFT=T ScalE2(SS,OS)=  1.000000  1.000000
 ExpMin= 3.60D-02 ExpMax= 4.56D+03 ExpMxC= 6.82D+02 IAcc=3 IRadAn=         5 AccDes= 0.00D+00
 HarFok:  IExCor=  205 AccDes= 0.00D+00 IRadAn=         5 IDoV=-2 UseB2=F ITyADJ=14
 ICtDFT= 12500011 ScaDFX=  1.000000  1.000000  1.000000  1.000000
 Range of M.O.s used for correlation:    15   379
 NBasis=   385 NAE=    47 NBE=    47 NFC=    14 NFV=     0
 NROrb=    365 NOA=    33 NOB=    33 NVA=   332 NVB=   332

 **** Warning!!: The largest alpha MO coefficient is  0.15130525D+03

 Orbital symmetries:
       Occupied  (A') (A') (A') (A') (A') (A') (A') (A') (A') (A')
                 (A') (A') (A') (A') (A') (A') (A') (A') (A') (A')
                 (A') (A') (A') (A') (A') (A') (A') (A') (A') (A')
                 (A') (A') (A") (A') (A') (A') (A') (A") (A") (A')
                 (A') (A') (A') (A") (A") (A") (A")
       Virtual   (A") (A") (A") (A") (A') (A') (A') (A') (A") (A')
                 (A') (A") (A') (A') (A") (A') (A") (A') (A') (A')
                 (A") (A") (A') (A') (A') (A") (A') (A") (A') (A')
                 (A") (A') (A") (A') (A') (A') (A') (A') (A") (A')
                 (A") (A') (A') (A") (A") (A') (A") (A') (A") (A')
                 (A') (A') (A') (A') (A') (A") (A') (A') (A') (A')
                 (A') (A") (A') (A') (A') (A") (A') (A') (A') (A')
                 (A') (A') (A') (A') (A') (A') (A') (A') (A') (A')
                 (A') (A') (A') (A') (A') (A') (A') (A') (A') (A')
                 (A') (A') (A') (A') (A") (A') (A") (A") (A') (A")
                 (A') (A') (A') (A') (A") (A") (A') (A") (A") (A')
                 (A') (A') (A") (A') (A') (A") (A') (A") (A') (A")
                 (A") (A') (A") (A') (A') (A') (A") (A') (A') (A')
                 (A') (A') (A') (A') (A') (A') (A') (A') (A') (A')
                 (A') (A') (A') (A") (A') (A') (A') (A') (A') (A')
                 (A') (A') (A") (A') (A") (A') (A") (A") (A') (A")
                 (A") (A') (A') (A") (A") (A") (A') (A") (A') (A')
                 (A') (A') (A') (A") (A") (A') (A') (A') (A') (A")
                 (A') (A') (A') (A") (A') (A") (A') (A') (A") (A")
                 (A") (A') (A') (A") (A') (A") (A') (A') (A') (A')
                 (A") (A") (A") (A') (A") (A') (A') (A") (A') (A')
                 (A') (A") (A') (A") (A") (A') (A") (A') (A') (A")
                 (A') (A') (A') (A') (A") (A') (A') (A') (A") (A")
                 (A') (A') (A') (A") (A') (A') (A') (A") (A") (A')
                 (A") (A') (A') (A") (A') (A') (A') (A') (A') (A')
                 (A") (A') (A') (A') (A') (A") (A") (A") (A') (A')
                 (A') (A') (A') (A') (A') (A') (A") (A') (A') (A')
                 (A') (A") (A') (A") (A") (A") (A') (A") (A") (A')
                 (A') (A") (A") (A') (A") (A") (A') (A') (A') (A')
                 (A') (A') (A') (A') (A') (A') (A') (A') (A') (A')
                 (A') (A') (A') (A") (A') (A') (A') (A') (A') (A')
                 (A') (A') (A') (A') (A') (A') (A') (A') (A') (A')
                 (A') (A') (A') (A') (A') (A') (A') (A') (A') (A')
                 (A') (A')
     4 initial guesses have been made.
 Convergence on wavefunction:    0.001000000000000
 Iteration     1 Dimension     4 NMult     0 NNew      4
 CISAX will form     4 AO SS matrices at one time.
 Iteration     2 Dimension     6 NMult     4 NNew      2
 Iteration     3 Dimension     8 NMult     6 NNew      2
 Iteration     4 Dimension    10 NMult     8 NNew      2
 Iteration     5 Dimension    12 NMult    10 NNew      2
 Iteration     6 Dimension    14 NMult    12 NNew      2
 ***********************************************************************
 Excited states from <AA,BB:AA,BB> singles matrix:
 ***********************************************************************
 
 Ground to excited state transition densities written to RWF  633
 Ground to excited state transition electric dipole moments (Au):
       state          X           Y           Z        Dip. S.      Osc.
         1         0.5559      0.3116      0.0000      0.4061      0.0279
 Ground to excited state transition velocity dipole moments (Au):
       state          X           Y           Z        Dip. S.      Osc.
         1        -0.0648     -0.0345      0.0000      0.0054      0.0348
 Ground to excited state transition magnetic dipole moments (Au):
       state          X           Y           Z
         1        -0.0000     -0.0000      0.0786
 Ground to excited state transition velocity quadrupole moments (Au):
       state          XX          YY          ZZ          XY          XZ          YZ
         1         0.1187      0.2030     -0.0096     -0.1253      0.0000     -0.0000
 <0|del|b> * <b|rxdel|0> + <0|del|b> * <b|delr+rdel|0>
 Rotatory Strengths (R) in cgs (10**-40 erg-esu-cm/Gauss)
       state          XX          YY          ZZ    R(velocity)    E-M Angle
         1         0.0000      0.0000      0.0000      0.0000       90.00
 1/2[<0|r|b>*<b|rxdel|0> + (<0|rxdel|b>*<b|r|0>)*]
 Rotatory Strengths (R) in cgs (10**-40 erg-esu-cm/Gauss)
       state          XX          YY          ZZ     R(length)
         1         0.0000      0.0000     -0.0000      0.0000
  1/2[<0|del|b>*<b|r|0> + (<0|r|b>*<b|del|0>)*] (Au)
       state          X           Y           Z        Dip. S.   Osc.(frdel)
         1        -0.0360     -0.0107      0.0000      0.0468      0.0312

 Excitation energies and oscillator strengths:
 
 Excited State   1:      Singlet-A'     2.8080 eV  441.54 nm  f=0.0279  <S**2>=0.000
      47 -> 48         0.70410
 This state for optimization and/or second-order correction.
 Total Energy, E(TD-HF/TD-DFT) =  -539.656406119    
 Copying the excited state density for this state as the 1-particle RhoCI density.
 SavETr:  write IOETrn=   770 NScale= 10 NData=  16 NLR=1 NState=    1 LETran=      28.

 **********************************************************************

            Population analysis using the SCF Density.

 **********************************************************************

 Orbital symmetries:
       Occupied  (A') (A') (A') (A') (A') (A') (A') (A') (A') (A')
                 (A') (A') (A') (A') (A') (A') (A') (A') (A') (A')
                 (A') (A') (A') (A') (A') (A') (A') (A') (A') (A')
                 (A') (A') (A") (A') (A') (A') (A') (A") (A") (A')
                 (A') (A') (A') (A") (A") (A") (A")
       Virtual   (A") (A") (A") (A") (A') (A') (A') (A') (A") (A')
                 (A') (A") (A') (A') (A") (A') (A") (A') (A') (A')
                 (A") (A") (A') (A') (A') (A") (A') (A") (A') (A')
                 (A") (A') (A") (A') (A') (A') (A') (A') (A") (A')
                 (A") (A') (A') (A") (A") (A') (A") (A') (A") (A')
                 (A') (A') (A') (A') (A') (A") (A') (A') (A') (A')
                 (A') (A") (A') (A') (A') (A") (A') (A') (A') (A')
                 (A') (A') (A') (A') (A') (A') (A') (A') (A') (A')
                 (A') (A') (A') (A') (A') (A') (A') (A') (A') (A')
                 (A') (A') (A') (A') (A") (A') (A") (A") (A') (A")
                 (A') (A') (A') (A') (A") (A") (A') (A") (A") (A')
                 (A') (A') (A") (A') (A') (A") (A') (A") (A') (A")
                 (A") (A') (A") (A') (A') (A') (A") (A') (A') (A')
                 (A') (A') (A') (A') (A') (A') (A') (A') (A') (A')
                 (A') (A') (A') (A") (A') (A') (A') (A') (A') (A')
                 (A') (A') (A") (A') (A") (A') (A") (A") (A') (A")
                 (A") (A') (A') (A") (A") (A") (A') (A") (A') (A')
                 (A') (A') (A') (A") (A") (A') (A') (A') (A') (A")
                 (A') (A') (A') (A") (A') (A") (A') (A') (A") (A")
                 (A") (A') (A') (A") (A') (A") (A') (A') (A') (A')
                 (A") (A") (A") (A') (A") (A') (A') (A") (A') (A')
                 (A') (A") (A') (A") (A") (A') (A") (A') (A') (A")
                 (A') (A') (A') (A') (A") (A') (A') (A') (A") (A")
                 (A') (A') (A') (A") (A') (A') (A') (A") (A") (A')
                 (A") (A') (A') (A") (A') (A') (A') (A') (A') (A')
                 (A") (A') (A') (A') (A') (A") (A") (A") (A') (A')
                 (A') (A') (A') (A') (A') (A') (A") (A') (A') (A')
                 (A') (A") (A') (A") (A") (A") (A') (A") (A") (A')
                 (A') (A") (A") (A') (A") (A") (A') (A') (A') (A')
                 (A') (A') (A') (A') (A') (A') (A') (A') (A') (A')
                 (A') (A') (A') (A") (A') (A') (A') (A') (A') (A')
                 (A') (A') (A') (A') (A') (A') (A') (A') (A') (A')
                 (A') (A') (A') (A') (A') (A') (A') (A') (A') (A')
                 (A') (A')
 The electronic state is 1-A'.
 Alpha  occ. eigenvalues --  -10.77644 -10.73331 -10.73043 -10.72532 -10.72299
 Alpha  occ. eigenvalues --  -10.71500 -10.71272 -10.71224 -10.70953 -10.70758
 Alpha  occ. eigenvalues --  -10.70035 -10.69905 -10.69699 -10.69534  -1.16501
 Alpha  occ. eigenvalues --   -1.12501  -1.06944  -1.05820  -1.01313  -1.00261
 Alpha  occ. eigenvalues --   -0.95759  -0.91075  -0.86427  -0.85919  -0.83831
 Alpha  occ. eigenvalues --   -0.78403  -0.76083  -0.74420  -0.69556  -0.69263
 Alpha  occ. eigenvalues --   -0.68505  -0.68204  -0.68086  -0.64802  -0.64298
 Alpha  occ. eigenvalues --   -0.63107  -0.61854  -0.60018  -0.59631  -0.59084
 Alpha  occ. eigenvalues --   -0.56927  -0.55212  -0.54848  -0.52432  -0.46710
 Alpha  occ. eigenvalues --   -0.46066  -0.44411
 Alpha virt. eigenvalues --   -0.26070  -0.14674  -0.14093  -0.12769  -0.11182
 Alpha virt. eigenvalues --   -0.10093  -0.09232  -0.07981  -0.07956  -0.07478
 Alpha virt. eigenvalues --   -0.07211  -0.07148  -0.05640  -0.05584  -0.05337
 Alpha virt. eigenvalues --   -0.03829  -0.03650  -0.03281  -0.03129  -0.02162
 Alpha virt. eigenvalues --   -0.01370  -0.00933   0.00183   0.00593   0.00690
 Alpha virt. eigenvalues --    0.01060   0.01509   0.01932   0.02215   0.02275
 Alpha virt. eigenvalues --    0.02451   0.02674   0.02756   0.03241   0.03378
 Alpha virt. eigenvalues --    0.04236   0.04512   0.04692   0.05027   0.05366
 Alpha virt. eigenvalues --    0.06027   0.06303   0.06598   0.07061   0.07247
 Alpha virt. eigenvalues --    0.07896   0.08166   0.08373   0.08566   0.08927
 Alpha virt. eigenvalues --    0.09543   0.09569   0.10050   0.10892   0.11071
 Alpha virt. eigenvalues --    0.11109   0.12188   0.12252   0.12901   0.13018
 Alpha virt. eigenvalues --    0.13420   0.13521   0.14032   0.14367   0.16216
 Alpha virt. eigenvalues --    0.16288   0.16386   0.17348   0.17618   0.17793
 Alpha virt. eigenvalues --    0.18138   0.19043   0.19246   0.19655   0.19774
 Alpha virt. eigenvalues --    0.21582   0.21632   0.22731   0.23133   0.23581
 Alpha virt. eigenvalues --    0.23730   0.24530   0.25232   0.26926   0.27621
 Alpha virt. eigenvalues --    0.28877   0.29313   0.29908   0.31385   0.35878
 Alpha virt. eigenvalues --    0.36475   0.38181   0.39286   0.41162   0.41393
 Alpha virt. eigenvalues --    0.42016   0.42156   0.42981   0.43725   0.44307
 Alpha virt. eigenvalues --    0.44915   0.45062   0.46062   0.46230   0.47885
 Alpha virt. eigenvalues --    0.48526   0.48901   0.49006   0.50446   0.51285
 Alpha virt. eigenvalues --    0.51595   0.51816   0.52115   0.52943   0.53991
 Alpha virt. eigenvalues --    0.54088   0.54700   0.55676   0.55778   0.57328
 Alpha virt. eigenvalues --    0.58243   0.58830   0.61465   0.62154   0.62362
 Alpha virt. eigenvalues --    0.63232   0.63497   0.65057   0.65168   0.67412
 Alpha virt. eigenvalues --    0.70373   0.70539   0.71070   0.72444   0.72896
 Alpha virt. eigenvalues --    0.75741   0.76034   0.76330   0.76890   0.77108
 Alpha virt. eigenvalues --    0.77859   0.77942   0.78286   0.79859   0.80409
 Alpha virt. eigenvalues --    0.81287   0.81612   0.82154   0.83026   0.85236
 Alpha virt. eigenvalues --    0.87189   0.88245   0.88613   0.89121   0.90457
 Alpha virt. eigenvalues --    0.91168   0.91254   0.93204   0.94652   0.96461
 Alpha virt. eigenvalues --    0.96672   1.00350   1.01326   1.01664   1.02731
 Alpha virt. eigenvalues --    1.03212   1.03786   1.04753   1.05480   1.08819
 Alpha virt. eigenvalues --    1.19588   1.23222   1.24114   1.25241   1.28250
 Alpha virt. eigenvalues --    1.29602   1.31865   1.34221   1.35805   1.36013
 Alpha virt. eigenvalues --    1.39405   1.40152   1.40982   1.42928   1.43530
 Alpha virt. eigenvalues --    1.43544   1.44913   1.45739   1.46396   1.46685
 Alpha virt. eigenvalues --    1.47645   1.48075   1.51824   1.53633   1.55801
 Alpha virt. eigenvalues --    1.56079   1.56352   1.56559   1.57833   1.61520
 Alpha virt. eigenvalues --    1.63173   1.63443   1.63797   1.66159   1.68352
 Alpha virt. eigenvalues --    1.68393   1.68655   1.69705   1.74466   1.76022
 Alpha virt. eigenvalues --    1.77249   1.78050   1.80186   1.80191   1.80765
 Alpha virt. eigenvalues --    1.83175   1.83198   1.83685   1.83816   1.84127
 Alpha virt. eigenvalues --    1.84325   1.85798   1.86148   1.88259   1.91419
 Alpha virt. eigenvalues --    1.92132   1.94162   1.95262   1.97721   1.98196
 Alpha virt. eigenvalues --    1.99800   2.02728   2.04506   2.07265   2.11836
 Alpha virt. eigenvalues --    2.12127   2.14133   2.15218   2.19210   2.21397
 Alpha virt. eigenvalues --    2.22795   2.28491   2.30442   2.34740   2.34994
 Alpha virt. eigenvalues --    2.36236   2.38680   2.39602   2.42410   2.44271
 Alpha virt. eigenvalues --    2.46204   2.46889   2.49407   2.52969   2.53838
 Alpha virt. eigenvalues --    2.54458   2.56640   2.57863   2.58306   2.59645
 Alpha virt. eigenvalues --    2.59850   2.61633   2.62184   2.63580   2.63860
 Alpha virt. eigenvalues --    2.64800   2.65159   2.65205   2.65408   2.68151
 Alpha virt. eigenvalues --    2.68673   2.70987   2.71425   2.73362   2.74838
 Alpha virt. eigenvalues --    2.76300   2.79044   2.79767   2.83103   2.83105
 Alpha virt. eigenvalues --    2.84932   2.86396   2.92159   2.96965   2.99539
 Alpha virt. eigenvalues --    3.00120   3.05525   3.11143   3.11610   3.13295
 Alpha virt. eigenvalues --    3.21220   3.24246   3.26903   3.28399   3.30775
 Alpha virt. eigenvalues --    3.32810   3.33762   3.43454   3.45950   3.46900
 Alpha virt. eigenvalues --    3.48768   3.50322   3.56672   3.64916   3.67167
 Alpha virt. eigenvalues --    3.67541   3.94160   3.94504   3.95180   3.96291
 Alpha virt. eigenvalues --    4.04036   4.06946   4.07656   4.12526   4.35805
 Alpha virt. eigenvalues --    4.61926   4.69918   4.71679  23.45316  23.60624
 Alpha virt. eigenvalues --   23.82203  23.85693  23.87902  23.89319  23.90565
 Alpha virt. eigenvalues --   23.92880  23.97597  23.98969  24.00397  24.01452
 Alpha virt. eigenvalues --   24.10652  24.10941
          Condensed to atoms (all electrons):
               1          2          3          4          5          6
     1  C    8.591236   0.354268  -0.537313   1.920540  -0.009655  -0.097379
     2  C    0.354268   7.058234   0.352623  -1.035857  -0.022638  -0.014821
     3  C   -0.537313   0.352623   6.579517   0.752173  -0.122654   0.016930
     4  C    1.920540  -1.035857   0.752173  10.676473  -0.290966  -0.115840
     5  C   -0.009655  -0.022638  -0.122654  -0.290966  10.885699   0.723715
     6  C   -0.097379  -0.014821   0.016930  -0.115840   0.723715   6.587420
     7  C   -0.022168   0.003956  -0.015460  -0.036271  -0.979433   0.398279
     8  C    0.405651  -0.030714  -0.091062   0.009521   1.770187  -0.604285
     9  C   -1.273907  -0.756856   0.282512  -0.342362  -0.218142   0.283634
    10  C   -1.252661   0.257001  -0.383334  -2.491669  -2.599035  -0.334996
    11  C    0.231870  -0.977642   1.058460  -0.228263  -1.519586  -0.195341
    12  C   -1.908068   1.369824  -1.379844  -1.430452  -0.355391  -0.178703
    13  C    0.147995  -0.250127  -0.163042  -1.472386  -0.215351   0.991598
    14  C   -1.044656  -0.179501  -0.223633  -0.281277  -1.422186  -1.336309
    15  H    0.364447  -0.102382  -0.001535   0.026886   0.005828   0.001057
    16  H   -0.019386   0.376167  -0.014177   0.012701  -0.001518  -0.000320
    17  H   -0.023981  -0.015171   0.372444  -0.065741   0.000366   0.000388
    18  H    0.049178   0.002849  -0.085194   0.451021   0.007841  -0.004970
    19  H   -0.047693  -0.007280   0.050525  -0.068147  -0.073360   0.050397
    20  H    0.007612   0.001932  -0.004890   0.007922   0.454013  -0.085203
    21  H   -0.001354  -0.000390   0.000395   0.000244  -0.066543   0.375944
    22  H    0.000776   0.000367  -0.000336  -0.001599   0.014778  -0.017013
    23  H    0.005715  -0.002811   0.001135   0.006271   0.025449  -0.002673
    24  H    0.029822   0.013783  -0.001511  -0.012659  -0.012152  -0.001373
    25  H    0.029822   0.013783  -0.001511  -0.012659  -0.012152  -0.001373
               7          8          9         10         11         12
     1  C   -0.022168   0.405651  -1.273907  -1.252661   0.231870  -1.908068
     2  C    0.003956  -0.030714  -0.756856   0.257001  -0.977642   1.369824
     3  C   -0.015460  -0.091062   0.282512  -0.383334   1.058460  -1.379844
     4  C   -0.036271   0.009521  -0.342362  -2.491669  -0.228263  -1.430452
     5  C   -0.979433   1.770187  -0.218142  -2.599035  -1.519586  -0.355391
     6  C    0.398279  -0.604285   0.283634  -0.334996  -0.195341  -0.178703
     7  C    7.063356   0.488781  -0.780803   0.203269  -0.227622  -0.237298
     8  C    0.488781   8.457406  -1.286102  -1.195149   0.138325  -1.084968
     9  C   -0.780803  -1.286102   9.673794   0.250493   1.767530  -1.959482
    10  C    0.203269  -1.195149   0.250493   9.278408  -0.610266   2.443283
    11  C   -0.227622   0.138325   1.767530  -0.610266  14.684993  -3.756921
    12  C   -0.237298  -1.084968  -1.959482   2.443283  -3.756921  16.005256
    13  C   -0.920377   0.234352   1.813892  -0.554512   1.089856  -4.887749
    14  C    1.185209  -1.701828  -2.064013   2.414387  -4.864261   2.921478
    15  H   -0.002667   0.006219   0.093148  -0.010132  -0.030330  -0.027372
    16  H    0.000345   0.000592   0.004984  -0.009694   0.030351  -0.036792
    17  H   -0.000403  -0.001308  -0.006261   0.020969  -0.029176   0.092068
    18  H    0.001927   0.007525  -0.026162   0.018408  -0.009819  -0.053102
    19  H   -0.007569  -0.045971   0.076658   0.422386   0.079115  -0.059073
    20  H    0.003070   0.047350  -0.025219   0.016619  -0.011747  -0.013732
    21  H   -0.018977  -0.020540  -0.005747   0.020610  -0.006378   0.005209
    22  H    0.378491  -0.020112   0.004459  -0.010319   0.003276  -0.009522
    23  H   -0.101782   0.363766   0.090807  -0.009091   0.000030   0.007051
    24  H    0.014628   0.032818   0.358418   0.005720   0.009911  -0.059723
    25  H    0.014628   0.032818   0.358418   0.005720   0.009911  -0.059723
              13         14         15         16         17         18
     1  C    0.147995  -1.044656   0.364447  -0.019386  -0.023981   0.049178
     2  C   -0.250127  -0.179501  -0.102382   0.376167  -0.015171   0.002849
     3  C   -0.163042  -0.223633  -0.001535  -0.014177   0.372444  -0.085194
     4  C   -1.472386  -0.281277   0.026886   0.012701  -0.065741   0.451021
     5  C   -0.215351  -1.422186   0.005828  -0.001518   0.000366   0.007841
     6  C    0.991598  -1.336309   0.001057  -0.000320   0.000388  -0.004970
     7  C   -0.920377   1.185209  -0.002667   0.000345  -0.000403   0.001927
     8  C    0.234352  -1.701828   0.006219   0.000592  -0.001308   0.007525
     9  C    1.813892  -2.064013   0.093148   0.004984  -0.006261  -0.026162
    10  C   -0.554512   2.414387  -0.010132  -0.009694   0.020969   0.018408
    11  C    1.089856  -4.864261  -0.030330   0.030351  -0.029176  -0.009819
    12  C   -4.887749   2.921478  -0.027372  -0.036792   0.092068  -0.053102
    13  C   14.713804  -3.940666   0.002854   0.003069  -0.006399  -0.011715
    14  C   -3.940666  16.079840   0.006477  -0.008794   0.005317  -0.010146
    15  H    0.002854   0.006477   0.439718  -0.008909   0.001399   0.000190
    16  H    0.003069  -0.008794  -0.008909   0.419993  -0.006493   0.001889
    17  H   -0.006399   0.005317   0.001399  -0.006493   0.423116  -0.010166
    18  H   -0.011715  -0.010146   0.000190   0.001889  -0.010166   0.454220
    19  H    0.076858  -0.070972   0.000257  -0.000507   0.001308  -0.006201
    20  H   -0.011518  -0.047966  -0.000107   0.000013  -0.000134   0.001298
    21  H   -0.028171   0.088371   0.000012  -0.000007   0.000010  -0.000148
    22  H    0.029960  -0.035834  -0.000127   0.000007  -0.000007   0.000015
    23  H   -0.029098  -0.020887   0.000618  -0.000124   0.000013  -0.000114
    24  H    0.016487  -0.059252  -0.000875   0.000627  -0.000143   0.000182
    25  H    0.016487  -0.059252  -0.000875   0.000627  -0.000143   0.000182
              19         20         21         22         23         24
     1  C   -0.047693   0.007612  -0.001354   0.000776   0.005715   0.029822
     2  C   -0.007280   0.001932  -0.000390   0.000367  -0.002811   0.013783
     3  C    0.050525  -0.004890   0.000395  -0.000336   0.001135  -0.001511
     4  C   -0.068147   0.007922   0.000244  -0.001599   0.006271  -0.012659
     5  C   -0.073360   0.454013  -0.066543   0.014778   0.025449  -0.012152
     6  C    0.050397  -0.085203   0.375944  -0.017013  -0.002673  -0.001373
     7  C   -0.007569   0.003070  -0.018977   0.378491  -0.101782   0.014628
     8  C   -0.045971   0.047350  -0.020540  -0.020112   0.363766   0.032818
     9  C    0.076658  -0.025219  -0.005747   0.004459   0.090807   0.358418
    10  C    0.422386   0.016619   0.020610  -0.010319  -0.009091   0.005720
    11  C    0.079115  -0.011747  -0.006378   0.003276   0.000030   0.009911
    12  C   -0.059073  -0.013732   0.005209  -0.009522   0.007051  -0.059723
    13  C    0.076858  -0.011518  -0.028171   0.029960  -0.029098   0.016487
    14  C   -0.070972  -0.047966   0.088371  -0.035834  -0.020887  -0.059252
    15  H    0.000257  -0.000107   0.000012  -0.000127   0.000618  -0.000875
    16  H   -0.000507   0.000013  -0.000007   0.000007  -0.000124   0.000627
    17  H    0.001308  -0.000134   0.000010  -0.000007   0.000013  -0.000143
    18  H   -0.006201   0.001298  -0.000148   0.000015  -0.000114   0.000182
    19  H    0.442560  -0.005908   0.001474  -0.000543   0.000315   0.000633
    20  H   -0.005908   0.451215  -0.010040   0.001914   0.000238   0.000159
    21  H    0.001474  -0.010040   0.421647  -0.006788   0.001515  -0.000138
    22  H   -0.000543   0.001914  -0.006788   0.418198  -0.008896   0.000625
    23  H    0.000315   0.000238   0.001515  -0.008896   0.436829  -0.000886
    24  H    0.000633   0.000159  -0.000138   0.000625  -0.000886   0.495132
    25  H    0.000633   0.000159  -0.000138   0.000625  -0.000886  -0.081231
              25
     1  C    0.029822
     2  C    0.013783
     3  C   -0.001511
     4  C   -0.012659
     5  C   -0.012152
     6  C   -0.001373
     7  C    0.014628
     8  C    0.032818
     9  C    0.358418
    10  C    0.005720
    11  C    0.009911
    12  C   -0.059723
    13  C    0.016487
    14  C   -0.059252
    15  H   -0.000875
    16  H    0.000627
    17  H   -0.000143
    18  H    0.000182
    19  H    0.000633
    20  H    0.000159
    21  H   -0.000138
    22  H    0.000625
    23  H   -0.000886
    24  H   -0.081231
    25  H    0.495132
 Mulliken charges:
               1
     1  C    0.099289
     2  C   -0.408597
     3  C   -0.441218
     4  C    0.022396
     5  C    0.032885
     6  C   -0.438765
     7  C   -0.405110
     8  C    0.086729
     9  C   -0.313690
    10  C    0.103586
    11  C   -0.636276
    12  C    0.653747
    13  C   -0.646099
    14  C    0.670353
    15  H    0.236201
    16  H    0.255355
    17  H    0.248127
    18  H    0.221011
    19  H    0.190103
    20  H    0.222947
    21  H    0.249928
    22  H    0.257604
    23  H    0.237497
    24  H    0.250998
    25  H    0.250998
 Sum of Mulliken charges =   1.00000
 Mulliken charges with hydrogens summed into heavy atoms:
               1
     1  C    0.335490
     2  C   -0.153242
     3  C   -0.193091
     4  C    0.243407
     5  C    0.255832
     6  C   -0.188836
     7  C   -0.147506
     8  C    0.324226
     9  C    0.188306
    10  C    0.293689
    11  C   -0.636276
    12  C    0.653747
    13  C   -0.646099
    14  C    0.670353
 Electronic spatial extent (au):  <R**2>=           2853.2852
 Charge=              1.0000 electrons
 Dipole moment (field-independent basis, Debye):
    X=             -0.0265    Y=             -0.3316    Z=             -0.0000  Tot=              0.3326
 Quadrupole moment (field-independent basis, Debye-Ang):
   XX=            -50.7905   YY=            -36.6163   ZZ=            -84.1394
   XY=            -10.3546   XZ=              0.0000   YZ=             -0.0000
 Traceless Quadrupole moment (field-independent basis, Debye-Ang):
   XX=              6.3916   YY=             20.5658   ZZ=            -26.9573
   XY=            -10.3546   XZ=              0.0000   YZ=             -0.0000
 Octapole moment (field-independent basis, Debye-Ang**2):
  XXX=              0.5988  YYY=              2.7507  ZZZ=             -0.0000  XYY=              1.1388
  XXY=             -5.9097  XXZ=              0.0000  XZZ=              2.8850  YZZ=              1.0813
  YYZ=             -0.0000  XYZ=             -0.0000
 Hexadecapole moment (field-independent basis, Debye-Ang**3):
 XXXX=           -995.6760 YYYY=          -1841.6608 ZZZZ=            -99.3066 XXXY=            349.9824
 XXXZ=             -0.0000 YYYX=            277.3622 YYYZ=              0.0000 ZZZX=             -0.0000
 ZZZY=             -0.0000 XXYY=           -453.4552 XXZZ=           -243.5768 YYZZ=           -492.2043
 XXYZ=              0.0000 YYXZ=              0.0000 ZZXY=            184.2664
 N-N= 7.815928900800D+02 E-N=-2.799541824000D+03  KE= 5.375282960215D+02
 Symmetry A'   KE= 5.228806027669D+02
 Symmetry A"   KE= 1.464769325458D+01
 Unable to Open any file for archive entry.
 1\1\GINC-GADI-CPU-CLX-0648\SP\RM062X TD-FC\6-311++G(d,p)\C14H11(1+)\TS
 1578\27-Jul-2022\0\\#n M062X/6-311++G(d,p) TD(NStates=1) EmpiricalDisp
 ersion=GD3 SP\\SP_-75\\1,1\C,0,2.49575,1.37,0.\C,0,3.707825,0.684925,0
 .\C,0,3.685,-0.6969,0.\C,0,2.4552,-1.39395,0.\C,0,-2.4708,-1.40305,0.\
 C,0,-3.6804,-0.7093,0.\C,0,-3.691375,0.677875,0.\C,0,-2.48205,1.3706,0
 .\C,0,0.004475,1.4533,0.\C,0,-0.0122,-1.4201,0.\C,0,1.259975,0.681775,
 0.\C,0,1.2333,-0.7221,0.\C,0,-1.263625,0.689425,0.\C,0,-1.2433,-0.7233
 ,0.\H,0,2.4858,2.453375,0.\H,0,4.642825,1.224775,0.\H,0,4.60725,-1.261
 425,0.\H,0,2.46445,-2.476675,0.\H,0,-0.01125,-2.5014,0.\H,0,-2.47175,-
 2.485525,0.\H,0,-4.61015,-1.260975,0.\H,0,-4.626175,1.219025,0.\H,0,-2
 .4816,2.453825,0.\H,0,0.016,2.1525,-0.8574\H,0,0.016,2.1525,0.8574\\Ve
 rsion=ES64L-G16RevC.01\State=1-A'\HF=-539.7595988\RMSD=5.836e-09\PG=CS
  [SG(C14H9),X(H2)]\\@
 The archive entry for this job was punched.


 I DO NOT DEFINE TIME, SPACE, PLACE, AND MOTION, AS BEING WELL KNOWN TO ALL.
                                            -- NEWTON (1642-1726), PRINCIPIA
 Job cpu time:       0 days  0 hours 46 minutes  1.0 seconds.
 Elapsed time:       0 days  0 hours  1 minutes 27.6 seconds.
 File lengths (MBytes):  RWF=    460 Int=      0 D2E=      0 Chk=     15 Scr=      1
 Normal termination of Gaussian 16 at Wed Jul 27 10:22:00 2022.
