 Entering Gaussian System, Link 0=g16
 Initial command:
 /apps/gaussian/g16c01/g16/l1.exe "/jobfs/52804872.gadi-pbs/Gau-1748216.inp" -scrdir="/jobfs/52804872.gadi-pbs/"
 Entering Link 1 = /apps/gaussian/g16c01/g16/l1.exe PID=   1748217.
  
 Copyright (c) 1988-2019, Gaussian, Inc.  All Rights Reserved.
  
 This is part of the Gaussian(R) 16 program.  It is based on
 the Gaussian(R) 09 system (copyright 2009, Gaussian, Inc.),
 the Gaussian(R) 03 system (copyright 2003, Gaussian, Inc.),
 the Gaussian(R) 98 system (copyright 1998, Gaussian, Inc.),
 the Gaussian(R) 94 system (copyright 1995, Gaussian, Inc.),
 the Gaussian 92(TM) system (copyright 1992, Gaussian, Inc.),
 the Gaussian 90(TM) system (copyright 1990, Gaussian, Inc.),
 the Gaussian 88(TM) system (copyright 1988, Gaussian, Inc.),
 the Gaussian 86(TM) system (copyright 1986, Carnegie Mellon
 University), and the Gaussian 82(TM) system (copyright 1983,
 Carnegie Mellon University). Gaussian is a federally registered
 trademark of Gaussian, Inc.
  
 This software contains proprietary and confidential information,
 including trade secrets, belonging to Gaussian, Inc.
  
 This software is provided under written license and may be
 used, copied, transmitted, or stored only in accord with that
 written license.
  
 The following legend is applicable only to US Government
 contracts under FAR:
  
                    RESTRICTED RIGHTS LEGEND
  
 Use, reproduction and disclosure by the US Government is
 subject to restrictions as set forth in subparagraphs (a)
 and (c) of the Commercial Computer Software - Restricted
 Rights clause in FAR 52.227-19.
  
 Gaussian, Inc.
 340 Quinnipiac St., Bldg. 40, Wallingford CT 06492
  
  
 ---------------------------------------------------------------
 Warning -- This program may not be used in any manner that
 competes with the business of Gaussian, Inc. or will provide
 assistance to any competitor of Gaussian, Inc.  The licensee
 of this program is prohibited from giving any competitor of
 Gaussian, Inc. access to this program.  By using this program,
 the user acknowledges that Gaussian, Inc. is engaged in the
 business of creating and licensing software in the field of
 computational chemistry and represents and warrants to the
 licensee that it is not a competitor of Gaussian, Inc. and that
 it will not use this program in any manner prohibited above.
 ---------------------------------------------------------------
  

 Cite this work as:
 Gaussian 16, Revision C.01,
 M. J. Frisch, G. W. Trucks, H. B. Schlegel, G. E. Scuseria, 
 M. A. Robb, J. R. Cheeseman, G. Scalmani, V. Barone, 
 G. A. Petersson, H. Nakatsuji, X. Li, M. Caricato, A. V. Marenich, 
 J. Bloino, B. G. Janesko, R. Gomperts, B. Mennucci, H. P. Hratchian, 
 J. V. Ortiz, A. F. Izmaylov, J. L. Sonnenberg, D. Williams-Young, 
 F. Ding, F. Lipparini, F. Egidi, J. Goings, B. Peng, A. Petrone, 
 T. Henderson, D. Ranasinghe, V. G. Zakrzewski, J. Gao, N. Rega, 
 G. Zheng, W. Liang, M. Hada, M. Ehara, K. Toyota, R. Fukuda, 
 J. Hasegawa, M. Ishida, T. Nakajima, Y. Honda, O. Kitao, H. Nakai, 
 T. Vreven, K. Throssell, J. A. Montgomery, Jr., J. E. Peralta, 
 F. Ogliaro, M. J. Bearpark, J. J. Heyd, E. N. Brothers, K. N. Kudin, 
 V. N. Staroverov, T. A. Keith, R. Kobayashi, J. Normand, 
 K. Raghavachari, A. P. Rendell, J. C. Burant, S. S. Iyengar, 
 J. Tomasi, M. Cossi, J. M. Millam, M. Klene, C. Adamo, R. Cammi, 
 J. W. Ochterski, R. L. Martin, K. Morokuma, O. Farkas, 
 J. B. Foresman, and D. J. Fox, Gaussian, Inc., Wallingford CT, 2019.
 
 ******************************************
 Gaussian 16:  ES64L-G16RevC.01  3-Jul-2019
                27-Jul-2022 
 ******************************************
 %NProcShared=32
 Will use up to   32 processors via shared memory.
 %mem = 128GB
 ---------------------------------------------------------------
 #n M062X/6-311++G(d,p) TD(NStates=1) EmpiricalDispersion=GD3 SP
 ---------------------------------------------------------------
 1/38=1,172=1/1;
 2/12=2,17=6,18=5,40=1/2;
 3/5=4,6=6,7=1111,11=9,25=1,30=1,74=-55,124=31/1,2,3,8;
 4//1;
 5/5=2,38=5/2;
 8/6=1,10=2,108=1/1;
 9/41=1,42=1,70=2/14;
 6/7=2,8=2,9=2,10=2/1;
 99/5=1,9=1/99;
 ------
 SP_100
 ------
 Symbolic Z-matrix:
 Charge =  1 Multiplicity = 1
 C                     2.5142    1.3679    0. 
 C                     3.72665   0.6911    0. 
 C                     3.6911   -0.687     0. 
 C                     2.43985  -1.38535   0. 
 C                    -2.48665  -1.41265   0. 
 C                    -3.6773   -0.7242    0. 
 C                    -3.6773    0.66995   0. 
 C                    -2.4731    1.3697    0. 
 C                     0.0131    1.4643    0. 
 C                    -0.0366   -1.4206    0. 
 C                     1.2567    0.67425   0. 
 C                     1.2223   -0.72015   0. 
 C                    -1.26765   0.6972    0. 
 C                    -1.2523   -0.72375   0. 
 H                     2.4955    2.4513    0. 
 H                     4.66235   1.22865   0. 
 H                     4.6051   -1.265     0. 
 H                     2.4564   -2.4682    0. 
 H                    -0.03375  -2.50165   0. 
 H                    -2.4783   -2.49475   0. 
 H                    -4.6138   -1.26365   0. 
 H                    -4.6124    1.2114    0. 
 H                    -2.4829    2.45265   0. 
 H                     0.048     2.155    -0.86015 
 H                     0.048     2.155     0.86015 
 
                          Input orientation:                          
 ---------------------------------------------------------------------
 Center     Atomic      Atomic             Coordinates (Angstroms)
 Number     Number       Type             X           Y           Z
 ---------------------------------------------------------------------
      1          6           0        2.514200    1.367900    0.000000
      2          6           0        3.726650    0.691100    0.000000
      3          6           0        3.691100   -0.687000    0.000000
      4          6           0        2.439850   -1.385350    0.000000
      5          6           0       -2.486650   -1.412650    0.000000
      6          6           0       -3.677300   -0.724200    0.000000
      7          6           0       -3.677300    0.669950    0.000000
      8          6           0       -2.473100    1.369700    0.000000
      9          6           0        0.013100    1.464300    0.000000
     10          6           0       -0.036600   -1.420600    0.000000
     11          6           0        1.256700    0.674250    0.000000
     12          6           0        1.222300   -0.720150    0.000000
     13          6           0       -1.267650    0.697200    0.000000
     14          6           0       -1.252300   -0.723750    0.000000
     15          1           0        2.495500    2.451300    0.000000
     16          1           0        4.662350    1.228650    0.000000
     17          1           0        4.605100   -1.265000    0.000000
     18          1           0        2.456400   -2.468200    0.000000
     19          1           0       -0.033750   -2.501650    0.000000
     20          1           0       -2.478300   -2.494750    0.000000
     21          1           0       -4.613800   -1.263650    0.000000
     22          1           0       -4.612400    1.211400    0.000000
     23          1           0       -2.482900    2.452650    0.000000
     24          1           0        0.048000    2.155000   -0.860150
     25          1           0        0.048000    2.155000    0.860150
 ---------------------------------------------------------------------
                    Distance matrix (angstroms):
                    1          2          3          4          5
     1  C    0.000000
     2  C    1.388558   0.000000
     3  C    2.368060   1.378558   0.000000
     4  C    2.754254   2.442846   1.432941   0.000000
     5  C    5.721884   6.559791   6.220222   4.926576   0.000000
     6  C    6.535408   7.538007   7.368494   6.152775   1.375358
     7  C    6.230715   7.403980   7.492305   6.453199   2.398931
     8  C    4.987300   6.236778   6.498260   5.632706   2.782383
     9  C    2.502957   3.793190   4.260959   3.742943   3.811245
    10  C    3.779195   4.315244   3.799199   2.476701   2.450063
    11  C    1.436126   2.470007   2.789141   2.375247   4.285770
    12  C    2.455394   2.874612   2.469023   1.387415   3.773045
    13  C    3.840863   4.994304   5.148321   4.252361   2.436684
    14  C    4.308308   5.176074   4.943537   3.750958   1.413578
    15  H    1.083561   2.148030   3.358331   3.837054   6.304913
    16  H    2.152659   1.079117   2.147799   3.431108   7.621330
    17  H    3.362146   2.144295   1.081425   2.168592   7.093287
    18  H    3.836535   3.405101   2.167293   1.082976   5.054496
    19  H    4.633084   4.932977   4.143364   2.713821   2.683773
    20  H    6.312299   6.975030   6.428799   5.041723   1.082132
    21  H    7.598252   8.566455   8.324896   7.054700   2.132362
    22  H    7.128318   8.355266   8.517748   7.515141   3.377048
    23  H    5.113481   6.454577   6.926448   6.242092   3.865302
    24  H    2.727916   4.051583   4.699894   4.358312   4.460094
    25  H    2.727916   4.051583   4.699894   4.358312   4.460094
                    6          7          8          9         10
     6  C    0.000000
     7  C    1.394150   0.000000
     8  C    2.415474   1.392748   0.000000
     9  C    4.290523   3.774923   2.487999   0.000000
    10  C    3.706706   4.198225   3.704363   2.885328   0.000000
    11  C    5.128354   4.934002   3.794082   1.473336   2.461914
    12  C    4.899602   5.092981   4.245404   2.496795   1.440645
    13  C    2.797640   2.409804   1.380350   1.492904   2.449604
    14  C    2.425000   2.796967   2.423404   2.527608   1.401259
    15  H    6.941704   6.424692   5.084963   2.671419   4.626353
    16  H    8.565243   8.358344   7.136844   4.655218   5.394317
    17  H    8.300037   8.505421   7.552652   5.341867   4.644307
    18  H    6.376818   6.889867   6.247355   4.629716   2.704166
    19  H    4.053984   4.830580   4.575782   3.966227   1.081054
    20  H    2.138328   3.384217   3.864453   4.677729   2.667526
    21  H    1.080758   2.148451   3.393690   5.371212   4.579890
    22  H    2.149642   1.080546   2.145149   4.632409   5.278766
    23  H    3.393960   2.145836   1.082994   2.684558   4.581097
    24  H    4.786179   4.101596   2.777139   1.103695   3.678577
    25  H    4.786179   4.101596   2.777139   1.103695   3.678577
                   11         12         13         14         15
    11  C    0.000000
    12  C    1.394824   0.000000
    13  C    2.524454   2.865088   0.000000
    14  C    2.872192   2.474603   1.421033   0.000000
    15  H    2.166225   3.417475   4.151887   4.911919   0.000000
    16  H    3.450480   3.953703   5.953767   6.228559   2.487994
    17  H    3.869428   3.426397   6.191884   5.882354   4.273324
    18  H    3.363669   2.139785   4.887566   4.098483   4.919655
    19  H    3.428061   2.179772   3.428579   2.155410   5.561368
    20  H    4.898243   4.104101   3.413828   2.153954   7.014421
    21  H    6.182089   5.861353   3.878357   3.404581   8.021409
    22  H    5.893629   6.146105   3.384044   3.877509   7.215233
    23  H    4.140932   4.878029   2.135050   3.406449   4.978400
    24  H    2.096052   3.222627   2.143822   3.273811   2.611112
    25  H    2.096052   3.222627   2.143822   3.273811   2.611112
                   16         17         18         19         20
    16  H    0.000000
    17  H    2.494307   0.000000
    18  H    4.304987   2.462641   0.000000
    19  H    5.997374   4.800857   2.490375   0.000000
    20  H    8.053111   7.189356   4.934771   2.444560   0.000000
    21  H    9.605130   9.218900   7.172076   4.744418   2.464948
    22  H    9.274766   9.544363   7.969152   5.894979   4.276673
    23  H    7.249329   8.003791   6.972191   5.526611   4.947402
    24  H    4.784371   5.762241   5.283392   4.736130   5.361178
    25  H    4.784371   5.762241   5.283392   4.736130   5.361178
                   21         22         23         24         25
    21  H    0.000000
    22  H    2.475050   0.000000
    23  H    4.283879   2.464847   0.000000
    24  H    5.844605   4.832139   2.689593   0.000000
    25  H    5.844605   4.832139   2.689593   1.720300   0.000000
 Stoichiometry    C14H11(1+)
 Framework group  CS[SG(C14H9),X(H2)]
 Deg. of freedom    46
 Full point group                 CS      NOp   2
 Largest Abelian subgroup         CS      NOp   2
 Largest concise Abelian subgroup CS      NOp   2
                         Standard orientation:                         
 ---------------------------------------------------------------------
 Center     Atomic      Atomic             Coordinates (Angstroms)
 Number     Number       Type             X           Y           Z
 ---------------------------------------------------------------------
      1          6           0        0.024184    2.857503    0.000000
      2          6           0       -1.141510    3.611990    0.000000
      3          6           0       -2.342596    2.935368    0.000000
      4          6           0       -2.373859    1.502768    0.000000
      5          6           0       -0.091457   -2.863213    0.000000
      6          6           0        1.074325   -3.592982    0.000000
      7          6           0        2.306237   -2.940259    0.000000
      8          6           0        2.360765   -1.548578    0.000000
      9          6           0        1.280349    0.692591    0.000000
     10          6           0       -1.245564   -0.701999    0.000000
     11          6           0        0.000000    1.421581    0.000000
     12          6           0       -1.216027    0.738344    0.000000
     13          6           0        1.202148   -0.798263    0.000000
     14          6           0       -0.060631   -1.449971    0.000000
     15          1           0        0.990263    3.348213    0.000000
     16          1           0       -1.104598    4.690476    0.000000
     17          1           0       -3.281257    3.472393    0.000000
     18          1           0       -3.338445    1.010416    0.000000
     19          1           0       -2.202146   -1.205615    0.000000
     20          1           0       -1.051541   -3.362460    0.000000
     21          1           0        1.036109   -4.673065    0.000000
     22          1           0        3.222480   -3.513040    0.000000
     23          1           0        3.322280   -1.050214    0.000000
     24          1           0        1.874332    1.046807    0.860150
     25          1           0        1.874332    1.046807   -0.860150
 ---------------------------------------------------------------------
 Rotational constants (GHZ):           2.1357320           0.4444653           0.3687022
 Standard basis: 6-311++G(d,p) (5D, 7F)
 There are   299 symmetry adapted cartesian basis functions of A'  symmetry.
 There are   100 symmetry adapted cartesian basis functions of A"  symmetry.
 There are   285 symmetry adapted basis functions of A'  symmetry.
 There are   100 symmetry adapted basis functions of A"  symmetry.
   385 basis functions,   603 primitive gaussians,   399 cartesian basis functions
    47 alpha electrons       47 beta electrons
       nuclear repulsion energy       781.1236119653 Hartrees.
 NAtoms=   25 NActive=   25 NUniq=   24 SFac= 1.09D+00 NAtFMM=   60 NAOKFM=F Big=F
 Integral buffers will be    131072 words long.
 Regular integral format.
 Two-electron integral symmetry is turned on.
 Nuclear repulsion after empirical dispersion term =      781.1226326844 Hartrees.
 One-electron integrals computed using PRISM.
 NBasis=   385 RedAO= T EigKep=  1.12D-06  NBF=   285   100
 NBsUse=   379 1.00D-06 EigRej=  8.39D-07 NBFU=   279   100
 ExpMin= 3.60D-02 ExpMax= 4.56D+03 ExpMxC= 6.82D+02 IAcc=3 IRadAn=         5 AccDes= 0.00D+00
 Harris functional with IExCor= 1009 and IRadAn=       5 diagonalized for initial guess.
 HarFok:  IExCor= 1009 AccDes= 0.00D+00 IRadAn=         5 IDoV= 1 UseB2=F ITyADJ=14
 ICtDFT=  3500011 ScaDFX=  1.000000  1.000000  1.000000  1.000000
 FoFCou: FMM=F IPFlag=           0 FMFlag=      100000 FMFlg1=           0
         NFxFlg=           0 DoJE=T BraDBF=F KetDBF=T FulRan=T
         wScrn=  0.000000 ICntrl=       500 IOpCl=  0 I1Cent=   200000004 NGrid=           0
         NMat0=    1 NMatS0=      1 NMatT0=    0 NMatD0=    1 NMtDS0=    0 NMtDT0=    0
 Petite list used in FoFCou.
 Initial guess orbital symmetries:
       Occupied  (A') (A') (A') (A') (A') (A') (A') (A') (A') (A')
                 (A') (A') (A') (A') (A') (A') (A') (A') (A') (A')
                 (A') (A') (A') (A') (A') (A') (A') (A') (A') (A')
                 (A') (A') (A") (A') (A') (A') (A') (A') (A") (A')
                 (A") (A') (A') (A") (A") (A") (A")
       Virtual   (A") (A") (A") (A") (A") (A') (A') (A') (A') (A")
                 (A") (A') (A') (A') (A") (A') (A') (A') (A') (A")
                 (A') (A") (A') (A') (A') (A") (A') (A") (A') (A')
                 (A') (A') (A') (A') (A") (A') (A") (A') (A') (A')
                 (A") (A') (A') (A") (A') (A') (A') (A') (A") (A')
                 (A') (A') (A") (A") (A') (A') (A') (A") (A") (A')
                 (A') (A') (A') (A') (A') (A') (A") (A') (A') (A")
                 (A') (A') (A') (A') (A') (A') (A') (A') (A') (A')
                 (A') (A') (A') (A') (A') (A') (A') (A') (A') (A')
                 (A') (A') (A') (A') (A') (A') (A') (A") (A') (A")
                 (A') (A') (A") (A") (A') (A") (A') (A") (A") (A')
                 (A") (A') (A') (A') (A") (A') (A') (A") (A") (A')
                 (A") (A") (A') (A') (A') (A") (A') (A') (A') (A")
                 (A') (A') (A') (A') (A') (A') (A") (A') (A') (A')
                 (A') (A') (A') (A') (A') (A') (A') (A') (A') (A")
                 (A") (A') (A") (A") (A') (A') (A') (A") (A") (A')
                 (A") (A') (A") (A") (A") (A') (A') (A') (A') (A')
                 (A') (A") (A') (A") (A') (A') (A') (A') (A') (A")
                 (A') (A') (A') (A') (A") (A') (A") (A') (A") (A")
                 (A') (A") (A') (A") (A') (A') (A') (A") (A') (A')
                 (A") (A") (A") (A') (A') (A") (A') (A") (A') (A')
                 (A") (A") (A') (A") (A') (A") (A') (A') (A') (A")
                 (A') (A') (A') (A') (A") (A') (A') (A') (A") (A")
                 (A') (A') (A') (A") (A') (A') (A") (A') (A") (A')
                 (A") (A') (A') (A') (A') (A") (A') (A') (A') (A")
                 (A') (A') (A") (A') (A") (A') (A') (A") (A') (A')
                 (A') (A") (A') (A") (A') (A') (A') (A") (A') (A")
                 (A') (A') (A') (A') (A") (A') (A") (A') (A") (A')
                 (A") (A') (A") (A") (A") (A') (A') (A') (A') (A')
                 (A') (A') (A') (A') (A') (A') (A') (A') (A') (A')
                 (A') (A') (A') (A') (A') (A") (A') (A') (A') (A')
                 (A') (A') (A') (A') (A') (A') (A') (A') (A') (A')
                 (A') (A') (A') (A') (A') (A') (A') (A') (A') (A')
                 (A') (A')
 The electronic state of the initial guess is 1-A'.
 Requested convergence on RMS density matrix=1.00D-08 within 128 cycles.
 Requested convergence on MAX density matrix=1.00D-06.
 Requested convergence on             energy=1.00D-06.
 No special actions if energy rises.
 SCF Done:  E(RM062X) =  -539.756332040     A.U. after   15 cycles
            NFock= 15  Conv=0.88D-08     -V/T= 2.0042
 DoSCS=F DFT=T ScalE2(SS,OS)=  1.000000  1.000000
 ExpMin= 3.60D-02 ExpMax= 4.56D+03 ExpMxC= 6.82D+02 IAcc=3 IRadAn=         5 AccDes= 0.00D+00
 HarFok:  IExCor=  205 AccDes= 0.00D+00 IRadAn=         5 IDoV=-2 UseB2=F ITyADJ=14
 ICtDFT= 12500011 ScaDFX=  1.000000  1.000000  1.000000  1.000000
 Range of M.O.s used for correlation:    15   379
 NBasis=   385 NAE=    47 NBE=    47 NFC=    14 NFV=     0
 NROrb=    365 NOA=    33 NOB=    33 NVA=   332 NVB=   332

 **** Warning!!: The largest alpha MO coefficient is  0.13715276D+03

 Orbital symmetries:
       Occupied  (A') (A') (A') (A') (A') (A') (A') (A') (A') (A')
                 (A') (A') (A') (A') (A') (A') (A') (A') (A') (A')
                 (A') (A') (A') (A') (A') (A') (A') (A') (A') (A')
                 (A') (A') (A") (A') (A') (A') (A') (A") (A") (A')
                 (A') (A') (A') (A") (A") (A") (A")
       Virtual   (A") (A") (A") (A") (A') (A') (A') (A') (A") (A')
                 (A') (A") (A') (A') (A") (A') (A") (A') (A') (A')
                 (A") (A") (A') (A') (A') (A") (A') (A") (A') (A')
                 (A") (A') (A") (A') (A') (A') (A') (A') (A") (A')
                 (A") (A') (A') (A") (A") (A') (A") (A') (A") (A')
                 (A') (A') (A') (A') (A') (A") (A') (A') (A') (A')
                 (A') (A") (A') (A') (A') (A") (A') (A') (A') (A')
                 (A') (A') (A') (A') (A') (A') (A') (A') (A') (A')
                 (A') (A') (A') (A') (A') (A') (A') (A') (A') (A')
                 (A') (A') (A') (A') (A") (A') (A") (A") (A') (A")
                 (A') (A') (A') (A') (A") (A") (A') (A") (A") (A')
                 (A') (A') (A") (A') (A') (A") (A') (A") (A') (A")
                 (A") (A') (A") (A') (A') (A') (A") (A') (A') (A')
                 (A') (A') (A') (A') (A') (A') (A') (A') (A') (A')
                 (A') (A') (A') (A") (A') (A') (A') (A') (A') (A')
                 (A') (A') (A") (A') (A") (A') (A") (A") (A') (A")
                 (A") (A') (A') (A") (A") (A') (A") (A") (A') (A')
                 (A') (A') (A') (A") (A") (A') (A') (A') (A') (A")
                 (A') (A') (A') (A") (A") (A') (A') (A") (A') (A")
                 (A") (A') (A') (A") (A") (A') (A') (A') (A') (A')
                 (A") (A") (A") (A') (A") (A') (A') (A") (A') (A')
                 (A') (A") (A') (A") (A") (A') (A") (A') (A') (A")
                 (A') (A') (A') (A') (A") (A') (A') (A') (A") (A")
                 (A') (A') (A') (A") (A') (A') (A') (A") (A") (A')
                 (A") (A') (A') (A") (A') (A') (A') (A') (A') (A')
                 (A") (A') (A') (A') (A') (A") (A") (A") (A') (A')
                 (A') (A') (A') (A') (A') (A') (A") (A') (A') (A')
                 (A') (A") (A') (A") (A") (A") (A') (A") (A') (A")
                 (A') (A") (A") (A') (A") (A") (A') (A') (A') (A')
                 (A') (A') (A') (A') (A') (A') (A') (A') (A') (A')
                 (A') (A') (A') (A") (A') (A') (A') (A') (A') (A')
                 (A') (A') (A') (A') (A') (A') (A') (A') (A') (A')
                 (A') (A') (A') (A') (A') (A') (A') (A') (A') (A')
                 (A') (A')
     4 initial guesses have been made.
 Convergence on wavefunction:    0.001000000000000
 Iteration     1 Dimension     4 NMult     0 NNew      4
 CISAX will form     4 AO SS matrices at one time.
 Iteration     2 Dimension     6 NMult     4 NNew      2
 Iteration     3 Dimension     8 NMult     6 NNew      2
 Iteration     4 Dimension    10 NMult     8 NNew      2
 Iteration     5 Dimension    12 NMult    10 NNew      2
 Iteration     6 Dimension    14 NMult    12 NNew      2
 ***********************************************************************
 Excited states from <AA,BB:AA,BB> singles matrix:
 ***********************************************************************
 
 Ground to excited state transition densities written to RWF  633
 Ground to excited state transition electric dipole moments (Au):
       state          X           Y           Z        Dip. S.      Osc.
         1         0.4851      0.3016      0.0000      0.3263      0.0217
 Ground to excited state transition velocity dipole moments (Au):
       state          X           Y           Z        Dip. S.      Osc.
         1        -0.0562     -0.0305     -0.0000      0.0041      0.0273
 Ground to excited state transition magnetic dipole moments (Au):
       state          X           Y           Z
         1        -0.0000      0.0000      0.1703
 Ground to excited state transition velocity quadrupole moments (Au):
       state          XX          YY          ZZ          XY          XZ          YZ
         1         0.1414      0.1410     -0.0086     -0.1375      0.0000      0.0000
 <0|del|b> * <b|rxdel|0> + <0|del|b> * <b|delr+rdel|0>
 Rotatory Strengths (R) in cgs (10**-40 erg-esu-cm/Gauss)
       state          XX          YY          ZZ    R(velocity)    E-M Angle
         1         0.0000     -0.0000      0.0000     -0.0000       90.00
 1/2[<0|r|b>*<b|rxdel|0> + (<0|rxdel|b>*<b|r|0>)*]
 Rotatory Strengths (R) in cgs (10**-40 erg-esu-cm/Gauss)
       state          XX          YY          ZZ     R(length)
         1         0.0000     -0.0000     -0.0000     -0.0000
  1/2[<0|del|b>*<b|r|0> + (<0|r|b>*<b|del|0>)*] (Au)
       state          X           Y           Z        Dip. S.   Osc.(frdel)
         1        -0.0273     -0.0092     -0.0000      0.0365      0.0243

 Excitation energies and oscillator strengths:
 
 Excited State   1:      Singlet-A'     2.7167 eV  456.38 nm  f=0.0217  <S**2>=0.000
      47 -> 48         0.70361
 This state for optimization and/or second-order correction.
 Total Energy, E(TD-HF/TD-DFT) =  -539.656494773    
 Copying the excited state density for this state as the 1-particle RhoCI density.
 SavETr:  write IOETrn=   770 NScale= 10 NData=  16 NLR=1 NState=    1 LETran=      28.

 **********************************************************************

            Population analysis using the SCF Density.

 **********************************************************************

 Orbital symmetries:
       Occupied  (A') (A') (A') (A') (A') (A') (A') (A') (A') (A')
                 (A') (A') (A') (A') (A') (A') (A') (A') (A') (A')
                 (A') (A') (A') (A') (A') (A') (A') (A') (A') (A')
                 (A') (A') (A") (A') (A') (A') (A') (A") (A") (A')
                 (A') (A') (A') (A") (A") (A") (A")
       Virtual   (A") (A") (A") (A") (A') (A') (A') (A') (A") (A')
                 (A') (A") (A') (A') (A") (A') (A") (A') (A') (A')
                 (A") (A") (A') (A') (A') (A") (A') (A") (A') (A')
                 (A") (A') (A") (A') (A') (A') (A') (A') (A") (A')
                 (A") (A') (A') (A") (A") (A') (A") (A') (A") (A')
                 (A') (A') (A') (A') (A') (A") (A') (A') (A') (A')
                 (A') (A") (A') (A') (A') (A") (A') (A') (A') (A')
                 (A') (A') (A') (A') (A') (A') (A') (A') (A') (A')
                 (A') (A') (A') (A') (A') (A') (A') (A') (A') (A')
                 (A') (A') (A') (A') (A") (A') (A") (A") (A') (A")
                 (A') (A') (A') (A') (A") (A") (A') (A") (A") (A')
                 (A') (A') (A") (A') (A') (A") (A') (A") (A') (A")
                 (A") (A') (A") (A') (A') (A') (A") (A') (A') (A')
                 (A') (A') (A') (A') (A') (A') (A') (A') (A') (A')
                 (A') (A') (A') (A") (A') (A') (A') (A') (A') (A')
                 (A') (A') (A") (A') (A") (A') (A") (A") (A') (A")
                 (A") (A') (A') (A") (A") (A') (A") (A") (A') (A')
                 (A') (A') (A') (A") (A") (A') (A') (A') (A') (A")
                 (A') (A') (A') (A") (A") (A') (A') (A") (A') (A")
                 (A") (A') (A') (A") (A") (A') (A') (A') (A') (A')
                 (A") (A") (A") (A') (A") (A') (A') (A") (A') (A')
                 (A') (A") (A') (A") (A") (A') (A") (A') (A') (A")
                 (A') (A') (A') (A') (A") (A') (A') (A') (A") (A")
                 (A') (A') (A') (A") (A') (A') (A') (A") (A") (A')
                 (A") (A') (A') (A") (A') (A') (A') (A') (A') (A')
                 (A") (A') (A') (A') (A') (A") (A") (A") (A') (A')
                 (A') (A') (A') (A') (A') (A') (A") (A') (A') (A')
                 (A') (A") (A') (A") (A") (A") (A') (A") (A') (A")
                 (A') (A") (A") (A') (A") (A") (A') (A') (A') (A')
                 (A') (A') (A') (A') (A') (A') (A') (A') (A') (A')
                 (A') (A') (A') (A") (A') (A') (A') (A') (A') (A')
                 (A') (A') (A') (A') (A') (A') (A') (A') (A') (A')
                 (A') (A') (A') (A') (A') (A') (A') (A') (A') (A')
                 (A') (A')
 The electronic state is 1-A'.
 Alpha  occ. eigenvalues --  -10.77620 -10.73678 -10.72814 -10.72764 -10.72066
 Alpha  occ. eigenvalues --  -10.71796 -10.71763 -10.70990 -10.70944 -10.70256
 Alpha  occ. eigenvalues --  -10.70169 -10.69877 -10.69777 -10.69388  -1.16492
 Alpha  occ. eigenvalues --   -1.12463  -1.06941  -1.05786  -1.01296  -1.00316
 Alpha  occ. eigenvalues --   -0.95647  -0.91035  -0.86432  -0.85891  -0.83790
 Alpha  occ. eigenvalues --   -0.78356  -0.76087  -0.74384  -0.69708  -0.69291
 Alpha  occ. eigenvalues --   -0.68375  -0.68107  -0.68097  -0.65087  -0.64241
 Alpha  occ. eigenvalues --   -0.62835  -0.61692  -0.60336  -0.59371  -0.59139
 Alpha  occ. eigenvalues --   -0.56922  -0.55258  -0.54641  -0.52441  -0.47059
 Alpha  occ. eigenvalues --   -0.46110  -0.44037
 Alpha virt. eigenvalues --   -0.26103  -0.14667  -0.14085  -0.12767  -0.11185
 Alpha virt. eigenvalues --   -0.10089  -0.09248  -0.07969  -0.07945  -0.07481
 Alpha virt. eigenvalues --   -0.07207  -0.07138  -0.05646  -0.05576  -0.05344
 Alpha virt. eigenvalues --   -0.03841  -0.03658  -0.03275  -0.03133  -0.02160
 Alpha virt. eigenvalues --   -0.01355  -0.00946   0.00191   0.00593   0.00644
 Alpha virt. eigenvalues --    0.01062   0.01508   0.01936   0.02169   0.02303
 Alpha virt. eigenvalues --    0.02449   0.02671   0.02775   0.03268   0.03437
 Alpha virt. eigenvalues --    0.04228   0.04497   0.04714   0.05037   0.05381
 Alpha virt. eigenvalues --    0.06028   0.06290   0.06584   0.07047   0.07266
 Alpha virt. eigenvalues --    0.07900   0.08105   0.08353   0.08602   0.08916
 Alpha virt. eigenvalues --    0.09502   0.09584   0.09991   0.10832   0.10980
 Alpha virt. eigenvalues --    0.11125   0.12120   0.12248   0.12754   0.13019
 Alpha virt. eigenvalues --    0.13450   0.13525   0.13990   0.14345   0.15953
 Alpha virt. eigenvalues --    0.16376   0.16445   0.17332   0.17518   0.17791
 Alpha virt. eigenvalues --    0.18121   0.19066   0.19338   0.19635   0.19851
 Alpha virt. eigenvalues --    0.21494   0.21631   0.22682   0.23152   0.23560
 Alpha virt. eigenvalues --    0.23908   0.24555   0.25415   0.26935   0.27611
 Alpha virt. eigenvalues --    0.28848   0.29264   0.29896   0.31350   0.35777
 Alpha virt. eigenvalues --    0.36446   0.38204   0.39278   0.41087   0.41329
 Alpha virt. eigenvalues --    0.41961   0.42149   0.42983   0.43694   0.44357
 Alpha virt. eigenvalues --    0.44814   0.45111   0.45936   0.46342   0.47921
 Alpha virt. eigenvalues --    0.48442   0.48806   0.49038   0.50488   0.51092
 Alpha virt. eigenvalues --    0.51300   0.51968   0.52133   0.52803   0.54087
 Alpha virt. eigenvalues --    0.54112   0.54605   0.55651   0.55886   0.57560
 Alpha virt. eigenvalues --    0.58227   0.58909   0.61479   0.62244   0.62395
 Alpha virt. eigenvalues --    0.63174   0.63479   0.64925   0.65156   0.67368
 Alpha virt. eigenvalues --    0.70371   0.70512   0.71154   0.72475   0.72893
 Alpha virt. eigenvalues --    0.75629   0.76049   0.76384   0.76786   0.77117
 Alpha virt. eigenvalues --    0.77860   0.77960   0.78262   0.79910   0.80392
 Alpha virt. eigenvalues --    0.81238   0.81562   0.82337   0.82995   0.85215
 Alpha virt. eigenvalues --    0.87075   0.88159   0.88279   0.89255   0.90565
 Alpha virt. eigenvalues --    0.91047   0.91374   0.93264   0.94603   0.96305
 Alpha virt. eigenvalues --    0.96846   1.00259   1.01269   1.01574   1.02799
 Alpha virt. eigenvalues --    1.03169   1.03246   1.04829   1.06172   1.08838
 Alpha virt. eigenvalues --    1.19569   1.23050   1.24133   1.24552   1.28644
 Alpha virt. eigenvalues --    1.29413   1.32103   1.34303   1.35751   1.35975
 Alpha virt. eigenvalues --    1.39325   1.39795   1.40880   1.42979   1.43453
 Alpha virt. eigenvalues --    1.43530   1.44299   1.46359   1.46579   1.46618
 Alpha virt. eigenvalues --    1.47683   1.48128   1.51748   1.53657   1.55712
 Alpha virt. eigenvalues --    1.55785   1.56306   1.56584   1.57800   1.61452
 Alpha virt. eigenvalues --    1.63076   1.63373   1.64108   1.66085   1.68314
 Alpha virt. eigenvalues --    1.68332   1.68717   1.69813   1.74397   1.76007
 Alpha virt. eigenvalues --    1.77161   1.78074   1.79863   1.80030   1.80817
 Alpha virt. eigenvalues --    1.82921   1.83199   1.83603   1.83824   1.84183
 Alpha virt. eigenvalues --    1.84491   1.85538   1.86352   1.88318   1.91407
 Alpha virt. eigenvalues --    1.92119   1.94074   1.95288   1.97754   1.98148
 Alpha virt. eigenvalues --    1.99776   2.02361   2.04484   2.07296   2.11742
 Alpha virt. eigenvalues --    2.12127   2.14211   2.15255   2.19063   2.21197
 Alpha virt. eigenvalues --    2.22754   2.28533   2.30209   2.34511   2.34832
 Alpha virt. eigenvalues --    2.36316   2.38617   2.39657   2.42337   2.44663
 Alpha virt. eigenvalues --    2.46124   2.46436   2.49241   2.52931   2.53782
 Alpha virt. eigenvalues --    2.54228   2.56858   2.57890   2.58385   2.59475
 Alpha virt. eigenvalues --    2.59899   2.61552   2.62133   2.63554   2.63738
 Alpha virt. eigenvalues --    2.64814   2.65079   2.65083   2.65537   2.67912
 Alpha virt. eigenvalues --    2.68420   2.70933   2.71450   2.73362   2.74810
 Alpha virt. eigenvalues --    2.76289   2.78477   2.79662   2.82996   2.83160
 Alpha virt. eigenvalues --    2.84857   2.86259   2.92109   2.97084   2.99439
 Alpha virt. eigenvalues --    3.00115   3.04949   3.09882   3.11256   3.13881
 Alpha virt. eigenvalues --    3.20691   3.22514   3.26398   3.28593   3.30607
 Alpha virt. eigenvalues --    3.32799   3.34440   3.43753   3.46125   3.46689
 Alpha virt. eigenvalues --    3.48328   3.50044   3.56415   3.65990   3.66862
 Alpha virt. eigenvalues --    3.67742   3.93857   3.94121   3.95372   3.96400
 Alpha virt. eigenvalues --    4.03947   4.06589   4.07610   4.12538   4.35309
 Alpha virt. eigenvalues --    4.60962   4.69358   4.71316  23.45265  23.60199
 Alpha virt. eigenvalues --   23.80734  23.83233  23.85881  23.89116  23.91583
 Alpha virt. eigenvalues --   23.94931  23.95917  23.97659  24.02458  24.04567
 Alpha virt. eigenvalues --   24.11070  24.12214
          Condensed to atoms (all electrons):
               1          2          3          4          5          6
     1  C    8.922378   0.032596  -0.408544   2.246363  -0.080868  -0.104561
     2  C    0.032596   7.190439   0.261752  -1.192470   0.009767  -0.013321
     3  C   -0.408544   0.261752   6.595027   0.821637  -0.138164   0.016899
     4  C    2.246363  -1.192470   0.821637  10.772191  -0.388432  -0.114789
     5  C   -0.080868   0.009767  -0.138164  -0.388432  11.463598   0.727370
     6  C   -0.104561  -0.013321   0.016899  -0.114789   0.727370   6.603641
     7  C   -0.003017   0.000224  -0.015061  -0.035212  -1.015595   0.411025
     8  C    0.406199  -0.029446  -0.087114  -0.010139   1.812132  -0.632521
     9  C   -1.119721  -0.786213   0.295248  -0.379495  -0.000351   0.296032
    10  C   -1.381213   0.335384  -0.423064  -2.418305  -2.756899  -0.277179
    11  C    0.304236  -0.973872   1.093522  -0.318116  -1.581480  -0.217928
    12  C   -2.544302   1.687770  -1.492746  -1.656361  -0.441796  -0.129543
    13  C    0.278503  -0.292282  -0.121491  -1.435263  -0.320231   0.905860
    14  C   -1.055104  -0.096118  -0.271487  -0.239155  -1.659290  -1.353527
    15  H    0.370347  -0.108526   0.000930   0.029746   0.004726   0.000996
    16  H   -0.017202   0.374867  -0.012933   0.010584  -0.001365  -0.000302
    17  H   -0.031546  -0.009142   0.369220  -0.066756   0.000451   0.000388
    18  H    0.053767   0.002061  -0.084361   0.455448   0.005867  -0.005250
    19  H   -0.048264  -0.007464   0.051640  -0.062843  -0.079163   0.051231
    20  H    0.007050   0.002116  -0.005042   0.005894   0.465857  -0.083843
    21  H   -0.001389  -0.000378   0.000412   0.000165  -0.069824   0.380365
    22  H    0.000993   0.000398  -0.000353  -0.001669   0.016465  -0.020941
    23  H    0.004965  -0.002863   0.001215   0.006305   0.025709  -0.002868
    24  H    0.028929   0.013240  -0.001777  -0.013040  -0.011404  -0.001356
    25  H    0.028929   0.013240  -0.001777  -0.013040  -0.011404  -0.001356
               7          8          9         10         11         12
     1  C   -0.003017   0.406199  -1.119721  -1.381213   0.304236  -2.544302
     2  C    0.000224  -0.029446  -0.786213   0.335384  -0.973872   1.687770
     3  C   -0.015061  -0.087114   0.295248  -0.423064   1.093522  -1.492746
     4  C   -0.035212  -0.010139  -0.379495  -2.418305  -0.318116  -1.656361
     5  C   -1.015595   1.812132  -0.000351  -2.756899  -1.581480  -0.441796
     6  C    0.411025  -0.632521   0.296032  -0.277179  -0.217928  -0.129543
     7  C    7.182445   0.477618  -0.855401   0.175905  -0.214719  -0.278871
     8  C    0.477618   8.405774  -1.138395  -1.221578   0.205299  -1.135740
     9  C   -0.855401  -1.138395   9.603185   0.255959   1.478359  -1.752246
    10  C    0.175905  -1.221578   0.255959   9.113893  -0.467704   2.459218
    11  C   -0.214719   0.205299   1.478359  -0.467704  14.310786  -3.400664
    12  C   -0.278871  -1.135740  -1.752246   2.459218  -3.400664  15.917738
    13  C   -0.808343   0.332569   1.602072  -0.325850   1.080421  -4.813305
    14  C    1.100252  -1.878209  -2.070645   2.389126  -4.720884   3.130847
    15  H   -0.002355   0.006487   0.094679  -0.011007  -0.033232  -0.034641
    16  H    0.000327   0.000454   0.003815  -0.008143   0.025780  -0.032944
    17  H   -0.000417  -0.001244  -0.006297   0.020362  -0.027238   0.096923
    18  H    0.002047   0.006965  -0.025799   0.013828  -0.002891  -0.064157
    19  H   -0.008189  -0.044276   0.074958   0.422209   0.081224  -0.049140
    20  H    0.003520   0.048024  -0.022890   0.007700  -0.012310  -0.020331
    21  H   -0.021586  -0.020802  -0.004899   0.020061  -0.006296   0.005247
    22  H    0.382664  -0.020078   0.001978  -0.010164   0.003355  -0.010195
    23  H   -0.106440   0.367456   0.087963  -0.008132  -0.002692   0.007463
    24  H    0.015745   0.037238   0.356039   0.005372   0.004048  -0.060433
    25  H    0.015745   0.037238   0.356039   0.005372   0.004048  -0.060433
              13         14         15         16         17         18
     1  C    0.278503  -1.055104   0.370347  -0.017202  -0.031546   0.053767
     2  C   -0.292282  -0.096118  -0.108526   0.374867  -0.009142   0.002061
     3  C   -0.121491  -0.271487   0.000930  -0.012933   0.369220  -0.084361
     4  C   -1.435263  -0.239155   0.029746   0.010584  -0.066756   0.455448
     5  C   -0.320231  -1.659290   0.004726  -0.001365   0.000451   0.005867
     6  C    0.905860  -1.353527   0.000996  -0.000302   0.000388  -0.005250
     7  C   -0.808343   1.100252  -0.002355   0.000327  -0.000417   0.002047
     8  C    0.332569  -1.878209   0.006487   0.000454  -0.001244   0.006965
     9  C    1.602072  -2.070645   0.094679   0.003815  -0.006297  -0.025799
    10  C   -0.325850   2.389126  -0.011007  -0.008143   0.020362   0.013828
    11  C    1.080421  -4.720884  -0.033232   0.025780  -0.027238  -0.002891
    12  C   -4.813305   3.130847  -0.034641  -0.032944   0.096923  -0.064157
    13  C   14.530786  -4.037267   0.006274   0.002548  -0.006247  -0.012070
    14  C   -4.037267  16.264872   0.005023  -0.007863   0.005335  -0.009402
    15  H    0.006274   0.005023   0.443772  -0.008963   0.001270   0.000073
    16  H    0.002548  -0.007863  -0.008963   0.421974  -0.006080   0.001893
    17  H   -0.006247   0.005335   0.001270  -0.006080   0.424454  -0.010411
    18  H   -0.012070  -0.009402   0.000073   0.001893  -0.010411   0.458365
    19  H    0.076878  -0.083175   0.000239  -0.000490   0.001177  -0.006751
    20  H   -0.008333  -0.049234  -0.000104   0.000012  -0.000124   0.001254
    21  H   -0.025667   0.087060   0.000011  -0.000007   0.000010  -0.000163
    22  H    0.024920  -0.030261  -0.000131   0.000007  -0.000007   0.000019
    23  H   -0.029575  -0.014717   0.000563  -0.000125   0.000017  -0.000124
    24  H    0.023056  -0.059972  -0.000886   0.000634  -0.000149   0.000219
    25  H    0.023056  -0.059972  -0.000886   0.000634  -0.000149   0.000219
              19         20         21         22         23         24
     1  C   -0.048264   0.007050  -0.001389   0.000993   0.004965   0.028929
     2  C   -0.007464   0.002116  -0.000378   0.000398  -0.002863   0.013240
     3  C    0.051640  -0.005042   0.000412  -0.000353   0.001215  -0.001777
     4  C   -0.062843   0.005894   0.000165  -0.001669   0.006305  -0.013040
     5  C   -0.079163   0.465857  -0.069824   0.016465   0.025709  -0.011404
     6  C    0.051231  -0.083843   0.380365  -0.020941  -0.002868  -0.001356
     7  C   -0.008189   0.003520  -0.021586   0.382664  -0.106440   0.015745
     8  C   -0.044276   0.048024  -0.020802  -0.020078   0.367456   0.037238
     9  C    0.074958  -0.022890  -0.004899   0.001978   0.087963   0.356039
    10  C    0.422209   0.007700   0.020061  -0.010164  -0.008132   0.005372
    11  C    0.081224  -0.012310  -0.006296   0.003355  -0.002692   0.004048
    12  C   -0.049140  -0.020331   0.005247  -0.010195   0.007463  -0.060433
    13  C    0.076878  -0.008333  -0.025667   0.024920  -0.029575   0.023056
    14  C   -0.083175  -0.049234   0.087060  -0.030261  -0.014717  -0.059972
    15  H    0.000239  -0.000104   0.000011  -0.000131   0.000563  -0.000886
    16  H   -0.000490   0.000012  -0.000007   0.000007  -0.000125   0.000634
    17  H    0.001177  -0.000124   0.000010  -0.000007   0.000017  -0.000149
    18  H   -0.006751   0.001254  -0.000163   0.000019  -0.000124   0.000219
    19  H    0.443470  -0.005846   0.001678  -0.000597   0.000396   0.000588
    20  H   -0.005846   0.449454  -0.010138   0.001965   0.000225   0.000150
    21  H    0.001678  -0.010138   0.420231  -0.007020   0.001639  -0.000136
    22  H   -0.000597   0.001965  -0.007020   0.416687  -0.008948   0.000629
    23  H    0.000396   0.000225   0.001639  -0.008948   0.435028  -0.000939
    24  H    0.000588   0.000150  -0.000136   0.000629  -0.000939   0.493319
    25  H    0.000588   0.000150  -0.000136   0.000629  -0.000939  -0.079069
              25
     1  C    0.028929
     2  C    0.013240
     3  C   -0.001777
     4  C   -0.013040
     5  C   -0.011404
     6  C   -0.001356
     7  C    0.015745
     8  C    0.037238
     9  C    0.356039
    10  C    0.005372
    11  C    0.004048
    12  C   -0.060433
    13  C    0.023056
    14  C   -0.059972
    15  H   -0.000886
    16  H    0.000634
    17  H   -0.000149
    18  H    0.000219
    19  H    0.000588
    20  H    0.000150
    21  H   -0.000136
    22  H    0.000629
    23  H   -0.000939
    24  H   -0.079069
    25  H    0.493319
 Mulliken charges:
               1
     1  C    0.110477
     2  C   -0.411758
     3  C   -0.443589
     4  C   -0.003247
     5  C    0.024325
     6  C   -0.434520
     7  C   -0.402312
     8  C    0.076090
     9  C   -0.343975
    10  C    0.084848
    11  C   -0.611054
    12  C    0.672644
    13  C   -0.651019
    14  C    0.713765
    15  H    0.235594
    16  H    0.252888
    17  H    0.246201
    18  H    0.219354
    19  H    0.189922
    20  H    0.224824
    21  H    0.251562
    22  H    0.259656
    23  H    0.239418
    24  H    0.249953
    25  H    0.249953
 Sum of Mulliken charges =   1.00000
 Mulliken charges with hydrogens summed into heavy atoms:
               1
     1  C    0.346071
     2  C   -0.158870
     3  C   -0.197388
     4  C    0.216107
     5  C    0.249149
     6  C   -0.182957
     7  C   -0.142657
     8  C    0.315508
     9  C    0.155932
    10  C    0.274770
    11  C   -0.611054
    12  C    0.672644
    13  C   -0.651019
    14  C    0.713765
 Electronic spatial extent (au):  <R**2>=           2856.7642
 Charge=              1.0000 electrons
 Dipole moment (field-independent basis, Debye):
    X=              0.2337    Y=             -0.8247    Z=              0.0000  Tot=              0.8572
 Quadrupole moment (field-independent basis, Debye-Ang):
   XX=            -51.0803   YY=            -36.2346   ZZ=            -84.1361
   XY=            -10.2129   XZ=              0.0000   YZ=              0.0000
 Traceless Quadrupole moment (field-independent basis, Debye-Ang):
   XX=              6.0700   YY=             20.9157   ZZ=            -26.9857
   XY=            -10.2129   XZ=              0.0000   YZ=              0.0000
 Octapole moment (field-independent basis, Debye-Ang**2):
  XXX=              2.6278  YYY=             -2.0019  ZZZ=              0.0000  XYY=              2.4151
  XXY=             -7.5270  XXZ=              0.0000  XZZ=              3.3075  YZZ=              0.3746
  YYZ=              0.0000  XYZ=              0.0000
 Hexadecapole moment (field-independent basis, Debye-Ang**3):
 XXXX=           -986.7447 YYYY=          -1850.5041 ZZZZ=            -99.3252 XXXY=            347.4529
 XXXZ=              0.0000 YYYX=            273.3387 YYYZ=              0.0000 ZZZX=              0.0000
 ZZZY=              0.0000 XXYY=           -454.9817 XXZZ=           -241.0528 YYZZ=           -495.5492
 XXYZ=             -0.0000 YYXZ=              0.0000 ZZXY=            182.6100
 N-N= 7.811226326844D+02 E-N=-2.798593056092D+03  KE= 5.375160196575D+02
 Symmetry A'   KE= 5.228647983195D+02
 Symmetry A"   KE= 1.465122133799D+01
 Unable to Open any file for archive entry.
 1\1\GINC-GADI-CPU-CLX-0648\SP\RM062X TD-FC\6-311++G(d,p)\C14H11(1+)\TS
 1578\27-Jul-2022\0\\#n M062X/6-311++G(d,p) TD(NStates=1) EmpiricalDisp
 ersion=GD3 SP\\SP_100\\1,1\C,0,2.5142,1.3679,0.\C,0,3.72665,0.6911,0.\
 C,0,3.6911,-0.687,0.\C,0,2.43985,-1.38535,0.\C,0,-2.48665,-1.41265,0.\
 C,0,-3.6773,-0.7242,0.\C,0,-3.6773,0.66995,0.\C,0,-2.4731,1.3697,0.\C,
 0,0.0131,1.4643,0.\C,0,-0.0366,-1.4206,0.\C,0,1.2567,0.67425,0.\C,0,1.
 2223,-0.72015,0.\C,0,-1.26765,0.6972,0.\C,0,-1.2523,-0.72375,0.\H,0,2.
 4955,2.4513,0.\H,0,4.66235,1.22865,0.\H,0,4.6051,-1.265,0.\H,0,2.4564,
 -2.4682,0.\H,0,-0.03375,-2.50165,0.\H,0,-2.4783,-2.49475,0.\H,0,-4.613
 8,-1.26365,0.\H,0,-4.6124,1.2114,0.\H,0,-2.4829,2.45265,0.\H,0,0.048,2
 .155,-0.86015\H,0,0.048,2.155,0.86015\\Version=ES64L-G16RevC.01\State=
 1-A'\HF=-539.756332\RMSD=8.819e-09\PG=CS [SG(C14H9),X(H2)]\\@
 The archive entry for this job was punched.


 WOMEN HOLD UP HALF THE SKY. -- MAO TSE TUNG
 Job cpu time:       0 days  0 hours 45 minutes 45.4 seconds.
 Elapsed time:       0 days  0 hours  1 minutes 26.3 seconds.
 File lengths (MBytes):  RWF=    460 Int=      0 D2E=      0 Chk=     15 Scr=      1
 Normal termination of Gaussian 16 at Wed Jul 27 12:19:29 2022.
