 Entering Gaussian System, Link 0=g16
 Initial command:
 /apps/gaussian/g16c01/g16/l1.exe "/jobfs/52804872.gadi-pbs/Gau-1108925.inp" -scrdir="/jobfs/52804872.gadi-pbs/"
 Entering Link 1 = /apps/gaussian/g16c01/g16/l1.exe PID=   1108926.
  
 Copyright (c) 1988-2019, Gaussian, Inc.  All Rights Reserved.
  
 This is part of the Gaussian(R) 16 program.  It is based on
 the Gaussian(R) 09 system (copyright 2009, Gaussian, Inc.),
 the Gaussian(R) 03 system (copyright 2003, Gaussian, Inc.),
 the Gaussian(R) 98 system (copyright 1998, Gaussian, Inc.),
 the Gaussian(R) 94 system (copyright 1995, Gaussian, Inc.),
 the Gaussian 92(TM) system (copyright 1992, Gaussian, Inc.),
 the Gaussian 90(TM) system (copyright 1990, Gaussian, Inc.),
 the Gaussian 88(TM) system (copyright 1988, Gaussian, Inc.),
 the Gaussian 86(TM) system (copyright 1986, Carnegie Mellon
 University), and the Gaussian 82(TM) system (copyright 1983,
 Carnegie Mellon University). Gaussian is a federally registered
 trademark of Gaussian, Inc.
  
 This software contains proprietary and confidential information,
 including trade secrets, belonging to Gaussian, Inc.
  
 This software is provided under written license and may be
 used, copied, transmitted, or stored only in accord with that
 written license.
  
 The following legend is applicable only to US Government
 contracts under FAR:
  
                    RESTRICTED RIGHTS LEGEND
  
 Use, reproduction and disclosure by the US Government is
 subject to restrictions as set forth in subparagraphs (a)
 and (c) of the Commercial Computer Software - Restricted
 Rights clause in FAR 52.227-19.
  
 Gaussian, Inc.
 340 Quinnipiac St., Bldg. 40, Wallingford CT 06492
  
  
 ---------------------------------------------------------------
 Warning -- This program may not be used in any manner that
 competes with the business of Gaussian, Inc. or will provide
 assistance to any competitor of Gaussian, Inc.  The licensee
 of this program is prohibited from giving any competitor of
 Gaussian, Inc. access to this program.  By using this program,
 the user acknowledges that Gaussian, Inc. is engaged in the
 business of creating and licensing software in the field of
 computational chemistry and represents and warrants to the
 licensee that it is not a competitor of Gaussian, Inc. and that
 it will not use this program in any manner prohibited above.
 ---------------------------------------------------------------
  

 Cite this work as:
 Gaussian 16, Revision C.01,
 M. J. Frisch, G. W. Trucks, H. B. Schlegel, G. E. Scuseria, 
 M. A. Robb, J. R. Cheeseman, G. Scalmani, V. Barone, 
 G. A. Petersson, H. Nakatsuji, X. Li, M. Caricato, A. V. Marenich, 
 J. Bloino, B. G. Janesko, R. Gomperts, B. Mennucci, H. P. Hratchian, 
 J. V. Ortiz, A. F. Izmaylov, J. L. Sonnenberg, D. Williams-Young, 
 F. Ding, F. Lipparini, F. Egidi, J. Goings, B. Peng, A. Petrone, 
 T. Henderson, D. Ranasinghe, V. G. Zakrzewski, J. Gao, N. Rega, 
 G. Zheng, W. Liang, M. Hada, M. Ehara, K. Toyota, R. Fukuda, 
 J. Hasegawa, M. Ishida, T. Nakajima, Y. Honda, O. Kitao, H. Nakai, 
 T. Vreven, K. Throssell, J. A. Montgomery, Jr., J. E. Peralta, 
 F. Ogliaro, M. J. Bearpark, J. J. Heyd, E. N. Brothers, K. N. Kudin, 
 V. N. Staroverov, T. A. Keith, R. Kobayashi, J. Normand, 
 K. Raghavachari, A. P. Rendell, J. C. Burant, S. S. Iyengar, 
 J. Tomasi, M. Cossi, J. M. Millam, M. Klene, C. Adamo, R. Cammi, 
 J. W. Ochterski, R. L. Martin, K. Morokuma, O. Farkas, 
 J. B. Foresman, and D. J. Fox, Gaussian, Inc., Wallingford CT, 2019.
 
 ******************************************
 Gaussian 16:  ES64L-G16RevC.01  3-Jul-2019
                27-Jul-2022 
 ******************************************
 %NProcShared=32
 Will use up to   32 processors via shared memory.
 %mem = 128GB
 ---------------------------------------------------------------
 #n M062X/6-311++G(d,p) TD(NStates=1) EmpiricalDispersion=GD3 SP
 ---------------------------------------------------------------
 1/38=1,172=1/1;
 2/12=2,17=6,18=5,40=1/2;
 3/5=4,6=6,7=1111,11=9,25=1,30=1,74=-55,124=31/1,2,3,8;
 4//1;
 5/5=2,38=5/2;
 8/6=1,10=2,108=1/1;
 9/41=1,42=1,70=2/14;
 6/7=2,8=2,9=2,10=2/1;
 99/5=1,9=1/99;
 -------
 SP_-125
 -------
 Symbolic Z-matrix:
 Charge =  1 Multiplicity = 1
 C                     2.4791    1.3706    0. 
 C                     3.6875    0.67603   0. 
 C                     3.6794   -0.71265   0. 
 C                     2.47473  -1.40538   0. 
 C                    -2.45133  -1.39173   0. 
 C                    -3.6863   -0.69405   0. 
 C                    -3.71218   0.6866    0. 
 C                    -2.49965   1.3697    0. 
 C                    -0.00648   1.4544    0. 
 C                     0.0183   -1.42015   0. 
 C                     1.26458   0.69135   0. 
 C                     1.2457   -0.72353   0. 
 C                    -1.2591    0.67988   0. 
 C                    -1.2307   -0.72173   0. 
 H                     2.4811    2.45378   0. 
 H                     4.6223    1.2174    0. 
 H                     4.61095  -1.26118   0. 
 H                     2.4735   -2.48777   0. 
 H                     0.01688  -2.50142   0. 
 H                    -2.46255  -2.4745    0. 
 H                    -4.6066   -1.26185   0. 
 H                    -4.64728   1.22603   0. 
 H                    -2.4874    2.4531    0. 
 H                    -0.024     2.15275  -0.85768 
 H                    -0.024     2.15275   0.85768 
 
                          Input orientation:                          
 ---------------------------------------------------------------------
 Center     Atomic      Atomic             Coordinates (Angstroms)
 Number     Number       Type             X           Y           Z
 ---------------------------------------------------------------------
      1          6           0        2.479100    1.370600    0.000000
      2          6           0        3.687500    0.676025    0.000000
      3          6           0        3.679400   -0.712650    0.000000
      4          6           0        2.474725   -1.405375    0.000000
      5          6           0       -2.451325   -1.391725    0.000000
      6          6           0       -3.686300   -0.694050    0.000000
      7          6           0       -3.712175    0.686600    0.000000
      8          6           0       -2.499650    1.369700    0.000000
      9          6           0       -0.006475    1.454400    0.000000
     10          6           0        0.018300   -1.420150    0.000000
     11          6           0        1.264575    0.691350    0.000000
     12          6           0        1.245700   -0.723525    0.000000
     13          6           0       -1.259100    0.679875    0.000000
     14          6           0       -1.230700   -0.721725    0.000000
     15          1           0        2.481100    2.453775    0.000000
     16          1           0        4.622300    1.217400    0.000000
     17          1           0        4.610950   -1.261175    0.000000
     18          1           0        2.473500   -2.487775    0.000000
     19          1           0        0.016875   -2.501425    0.000000
     20          1           0       -2.462550   -2.474500    0.000000
     21          1           0       -4.606600   -1.261850    0.000000
     22          1           0       -4.647275    1.226025    0.000000
     23          1           0       -2.487400    2.453100    0.000000
     24          1           0       -0.024000    2.152750   -0.857675
     25          1           0       -0.024000    2.152750    0.857675
 ---------------------------------------------------------------------
                    Distance matrix (angstroms):
                    1          2          3          4          5
     1  C    0.000000
     2  C    1.393795   0.000000
     3  C    2.404298   1.388699   0.000000
     4  C    2.775978   2.408952   1.389644   0.000000
     5  C    5.651507   6.477713   6.168220   4.926069   0.000000
     6  C    6.501918   7.500002   7.365723   6.201952   1.418419
     7  C    6.228944   7.399683   7.522851   6.531010   2.430880
     8  C    4.978750   6.225914   6.520494   5.696091   2.761848
     9  C    2.486987   3.775092   4.275720   3.786115   3.752029
    10  C    3.720729   4.225752   3.728835   2.456469   2.469789
    11  C    1.391564   2.422973   2.793313   2.420892   4.259943
    12  C    2.430357   2.814450   2.433724   1.405497   3.756925
    13  C    3.801479   4.946601   5.131073   4.276648   2.390173
    14  C    4.259160   5.112964   4.910108   3.767964   1.392417
    15  H    1.083177   2.148440   3.385583   3.859155   6.254333
    16  H    2.148669   1.080249   2.148058   3.389842   7.539476
    17  H    3.386890   2.146044   1.081048   2.141086   7.063482
    18  H    3.858379   3.388720   2.145988   1.082401   5.045317
    19  H    4.588587   4.854861   4.076004   2.691162   2.706186
    20  H    6.261366   6.910060   6.389653   5.051704   1.082833
    21  H    7.558898   8.517479   8.304181   7.082779   2.159185
    22  H    7.127841   8.352902   8.549385   7.592572   3.416842
    23  H    5.083102   6.425526   6.931911   6.285739   3.844994
    24  H    2.759144   4.085530   4.760388   4.431646   4.380732
    25  H    2.759144   4.085530   4.760388   4.431646   4.380732
                    6          7          8          9         10
     6  C    0.000000
     7  C    1.380892   0.000000
     8  C    2.380589   1.391705   0.000000
     9  C    4.261097   3.784406   2.494613   0.000000
    10  C    3.775087   4.284255   3.758103   2.874657   0.000000
    11  C    5.141060   4.976752   3.824859   1.482502   2.451863
    12  C    4.932088   5.154510   4.290599   2.512230   1.411310
    13  C    2.789080   2.453084   1.419445   1.472738   2.458019
    14  C    2.455756   2.853261   2.446281   2.496847   1.431013
    15  H    6.924278   6.440463   5.097361   2.680817   4.590499
    16  H    8.525636   8.351360   7.123578   4.634838   5.305986
    17  H    8.316609   8.547996   7.581697   5.356768   4.595401
    18  H    6.415652   6.952642   6.293833   4.657362   2.677280
    19  H    4.120693   4.906049   4.617197   3.955894   1.081276
    20  H    2.160455   3.399135   3.844379   4.633418   2.695602
    21  H    1.081364   2.143934   3.371097   5.342206   4.627608
    22  H    2.147129   1.079533   2.152426   4.646416   5.363752
    23  H    3.367776   2.149557   1.083469   2.674395   4.613090
    24  H    4.717236   4.060522   2.734523   1.106167   3.674644
    25  H    4.717236   4.060522   2.734523   1.106167   3.674644
                   11         12         13         14         15
    11  C    0.000000
    12  C    1.415001   0.000000
    13  C    2.523701   2.871159   0.000000
    14  C    2.867608   2.476401   1.401888   0.000000
    15  H    2.141512   3.409025   4.139543   4.884799   0.000000
    16  H    3.398683   3.894691   5.905912   6.165859   2.472521
    17  H    3.874349   3.407928   6.182650   5.866505   4.282186
    18  H    3.401226   2.149435   4.895540   4.103661   4.941556
    19  H    3.427910   2.161236   3.427650   2.173425   5.534113
    20  H    4.890201   4.100857   3.376148   2.142353   6.980514
    21  H    6.187543   5.877007   3.869890   3.418835   8.002585
    22  H    5.935979   6.207085   3.431910   3.932774   7.233333
    23  H    4.145007   4.901733   2.157092   3.414500   4.968500
    24  H    2.128784   3.258942   2.104861   3.233317   2.664911
    25  H    2.128784   3.258942   2.104861   3.233317   2.664911
                   16         17         18         19         20
    16  H    0.000000
    17  H    2.478601   0.000000
    18  H    4.283184   2.464394   0.000000
    19  H    5.919426   4.758544   2.456663   0.000000
    20  H    7.989069   7.176807   4.936068   2.479571   0.000000
    21  H    9.556112   9.217550   7.185451   4.786760   2.463224
    22  H    9.269579   9.586495   8.031049   5.970610   4.297314
    23  H    7.216286   8.011393   7.001627   5.551460   4.927663
    24  H    4.816491   5.820073   5.339249   4.732718   5.300337
    25  H    4.816491   5.820073   5.339249   4.732718   5.300337
                   21         22         23         24         25
    21  H    0.000000
    22  H    2.488207   0.000000
    23  H    4.276899   2.484104   0.000000
    24  H    5.778869   4.792609   2.625673   0.000000
    25  H    5.778869   4.792609   2.625673   1.715350   0.000000
 Stoichiometry    C14H11(1+)
 Framework group  CS[SG(C14H9),X(H2)]
 Deg. of freedom    46
 Full point group                 CS      NOp   2
 Largest Abelian subgroup         CS      NOp   2
 Largest concise Abelian subgroup CS      NOp   2
                         Standard orientation:                         
 ---------------------------------------------------------------------
 Center     Atomic      Atomic             Coordinates (Angstroms)
 Number     Number       Type             X           Y           Z
 ---------------------------------------------------------------------
      1          6           0       -2.368272   -1.547053    0.000000
      2          6           0       -2.323910   -2.940142    0.000000
      3          6           0       -1.094722   -3.586347    0.000000
      4          6           0        0.083327   -2.849250    0.000000
      5          6           0        2.388920    1.503955    0.000000
      6          6           0        2.354326    2.921952    0.000000
      7          6           0        1.148204    3.594361    0.000000
      8          6           0       -0.025045    2.845810    0.000000
      9          6           0       -1.272789    0.685664    0.000000
     10          6           0        1.252079   -0.688634    0.000000
     11          6           0       -1.197480   -0.794925    0.000000
     12          6           0        0.059897   -1.443948    0.000000
     13          6           0        0.000000    1.426586    0.000000
     14          6           0        1.223420    0.742092    0.000000
     15          1           0       -3.325015   -1.039199    0.000000
     16          1           0       -3.241433   -3.510307    0.000000
     17          1           0       -1.048980   -4.666427    0.000000
     18          1           0        1.039021   -3.357423    0.000000
     19          1           0        2.206874   -1.196101    0.000000
     20          1           0        3.349650    1.004429    0.000000
     21          1           0        3.288345    3.466890    0.000000
     22          1           0        1.112163    4.673293    0.000000
     23          1           0       -0.986809    3.344725    0.000000
     24          1           0       -1.880773    1.029692    0.857675
     25          1           0       -1.880773    1.029692   -0.857675
 ---------------------------------------------------------------------
 Rotational constants (GHZ):           2.1387928           0.4449830           0.3691450
 Standard basis: 6-311++G(d,p) (5D, 7F)
 There are   299 symmetry adapted cartesian basis functions of A'  symmetry.
 There are   100 symmetry adapted cartesian basis functions of A"  symmetry.
 There are   285 symmetry adapted basis functions of A'  symmetry.
 There are   100 symmetry adapted basis functions of A"  symmetry.
   385 basis functions,   603 primitive gaussians,   399 cartesian basis functions
    47 alpha electrons       47 beta electrons
       nuclear repulsion energy       781.5483668768 Hartrees.
 NAtoms=   25 NActive=   25 NUniq=   24 SFac= 1.09D+00 NAtFMM=   60 NAOKFM=F Big=F
 Integral buffers will be    131072 words long.
 Regular integral format.
 Two-electron integral symmetry is turned on.
 Nuclear repulsion after empirical dispersion term =      781.5473875582 Hartrees.
 One-electron integrals computed using PRISM.
 NBasis=   385 RedAO= T EigKep=  1.11D-06  NBF=   285   100
 NBsUse=   379 1.00D-06 EigRej=  8.33D-07 NBFU=   279   100
 ExpMin= 3.60D-02 ExpMax= 4.56D+03 ExpMxC= 6.82D+02 IAcc=3 IRadAn=         5 AccDes= 0.00D+00
 Harris functional with IExCor= 1009 and IRadAn=       5 diagonalized for initial guess.
 HarFok:  IExCor= 1009 AccDes= 0.00D+00 IRadAn=         5 IDoV= 1 UseB2=F ITyADJ=14
 ICtDFT=  3500011 ScaDFX=  1.000000  1.000000  1.000000  1.000000
 FoFCou: FMM=F IPFlag=           0 FMFlag=      100000 FMFlg1=           0
         NFxFlg=           0 DoJE=T BraDBF=F KetDBF=T FulRan=T
         wScrn=  0.000000 ICntrl=       500 IOpCl=  0 I1Cent=   200000004 NGrid=           0
         NMat0=    1 NMatS0=      1 NMatT0=    0 NMatD0=    1 NMtDS0=    0 NMtDT0=    0
 Petite list used in FoFCou.
 Initial guess orbital symmetries:
       Occupied  (A') (A') (A') (A') (A') (A') (A') (A') (A') (A')
                 (A') (A') (A') (A') (A') (A') (A') (A') (A') (A')
                 (A') (A') (A') (A') (A') (A') (A') (A') (A') (A')
                 (A') (A') (A") (A') (A') (A') (A') (A') (A') (A")
                 (A") (A') (A') (A") (A") (A") (A")
       Virtual   (A") (A") (A") (A") (A") (A') (A') (A') (A') (A")
                 (A") (A') (A') (A') (A") (A') (A') (A') (A') (A")
                 (A') (A") (A') (A') (A') (A") (A') (A") (A') (A')
                 (A') (A') (A') (A") (A') (A') (A") (A') (A') (A")
                 (A') (A') (A') (A") (A') (A') (A') (A') (A') (A")
                 (A') (A') (A") (A") (A') (A') (A') (A") (A") (A')
                 (A') (A') (A') (A') (A') (A") (A') (A') (A') (A")
                 (A') (A') (A') (A') (A') (A') (A') (A') (A') (A')
                 (A') (A') (A') (A') (A') (A') (A') (A') (A') (A')
                 (A') (A') (A') (A') (A') (A') (A') (A") (A') (A")
                 (A') (A') (A") (A") (A') (A") (A') (A") (A') (A")
                 (A") (A') (A') (A') (A") (A') (A') (A") (A") (A')
                 (A") (A") (A') (A') (A') (A") (A') (A') (A') (A")
                 (A') (A') (A') (A') (A') (A') (A") (A') (A') (A')
                 (A') (A') (A') (A') (A') (A') (A') (A') (A') (A")
                 (A") (A') (A") (A") (A') (A') (A') (A") (A") (A')
                 (A") (A') (A") (A") (A") (A') (A') (A') (A') (A')
                 (A') (A") (A') (A") (A') (A') (A') (A') (A') (A")
                 (A') (A') (A') (A') (A") (A') (A") (A') (A") (A")
                 (A') (A") (A') (A") (A') (A') (A') (A") (A') (A')
                 (A") (A") (A") (A') (A') (A") (A') (A") (A') (A')
                 (A") (A") (A') (A") (A') (A") (A') (A') (A") (A')
                 (A') (A') (A') (A') (A") (A') (A') (A') (A") (A")
                 (A') (A') (A') (A") (A') (A') (A") (A') (A") (A')
                 (A") (A') (A') (A') (A') (A') (A") (A') (A') (A")
                 (A') (A') (A") (A') (A") (A') (A') (A") (A') (A')
                 (A') (A') (A") (A") (A') (A') (A') (A") (A") (A')
                 (A') (A') (A') (A') (A") (A') (A") (A') (A") (A')
                 (A") (A') (A") (A") (A") (A') (A') (A') (A') (A')
                 (A') (A') (A') (A') (A') (A') (A') (A') (A') (A')
                 (A') (A') (A') (A") (A') (A') (A') (A') (A') (A')
                 (A') (A') (A') (A') (A') (A') (A') (A') (A') (A')
                 (A') (A') (A') (A') (A') (A') (A') (A') (A') (A')
                 (A') (A')
 The electronic state of the initial guess is 1-A'.
 Requested convergence on RMS density matrix=1.00D-08 within 128 cycles.
 Requested convergence on MAX density matrix=1.00D-06.
 Requested convergence on             energy=1.00D-06.
 No special actions if energy rises.
 SCF Done:  E(RM062X) =  -539.759084807     A.U. after   15 cycles
            NFock= 15  Conv=0.66D-08     -V/T= 2.0042
 DoSCS=F DFT=T ScalE2(SS,OS)=  1.000000  1.000000
 ExpMin= 3.60D-02 ExpMax= 4.56D+03 ExpMxC= 6.82D+02 IAcc=3 IRadAn=         5 AccDes= 0.00D+00
 HarFok:  IExCor=  205 AccDes= 0.00D+00 IRadAn=         5 IDoV=-2 UseB2=F ITyADJ=14
 ICtDFT= 12500011 ScaDFX=  1.000000  1.000000  1.000000  1.000000
 Range of M.O.s used for correlation:    15   379
 NBasis=   385 NAE=    47 NBE=    47 NFC=    14 NFV=     0
 NROrb=    365 NOA=    33 NOB=    33 NVA=   332 NVB=   332

 **** Warning!!: The largest alpha MO coefficient is  0.14585163D+03

 Orbital symmetries:
       Occupied  (A') (A') (A') (A') (A') (A') (A') (A') (A') (A')
                 (A') (A') (A') (A') (A') (A') (A') (A') (A') (A')
                 (A') (A') (A') (A') (A') (A') (A') (A') (A') (A')
                 (A') (A') (A") (A') (A') (A') (A') (A") (A") (A')
                 (A') (A') (A') (A") (A") (A") (A")
       Virtual   (A") (A") (A") (A") (A') (A') (A') (A') (A") (A')
                 (A') (A") (A') (A') (A") (A') (A") (A') (A') (A')
                 (A") (A") (A') (A') (A') (A") (A') (A") (A') (A')
                 (A") (A') (A") (A') (A') (A') (A') (A') (A") (A')
                 (A") (A') (A') (A") (A") (A') (A") (A') (A") (A')
                 (A') (A') (A') (A') (A') (A") (A') (A') (A') (A')
                 (A') (A") (A') (A') (A') (A") (A') (A') (A') (A')
                 (A') (A') (A') (A') (A') (A') (A') (A') (A') (A')
                 (A') (A') (A') (A') (A') (A') (A') (A') (A') (A')
                 (A') (A') (A') (A') (A") (A') (A") (A") (A') (A")
                 (A') (A') (A') (A') (A") (A") (A') (A") (A") (A')
                 (A') (A') (A") (A') (A') (A") (A') (A") (A') (A")
                 (A") (A') (A") (A') (A') (A') (A") (A') (A') (A')
                 (A') (A') (A') (A') (A') (A') (A') (A') (A') (A')
                 (A') (A') (A') (A") (A') (A') (A') (A') (A') (A')
                 (A') (A') (A") (A') (A") (A') (A") (A") (A') (A")
                 (A") (A') (A') (A") (A") (A") (A') (A") (A') (A')
                 (A') (A') (A') (A") (A") (A') (A') (A') (A') (A")
                 (A') (A') (A') (A") (A") (A') (A') (A') (A") (A")
                 (A") (A') (A') (A") (A') (A") (A') (A') (A') (A')
                 (A") (A") (A") (A') (A") (A') (A') (A") (A') (A')
                 (A') (A") (A') (A") (A") (A') (A") (A') (A') (A")
                 (A') (A') (A') (A') (A") (A') (A') (A') (A") (A")
                 (A') (A') (A') (A") (A') (A') (A') (A") (A") (A')
                 (A") (A') (A') (A") (A') (A') (A') (A') (A') (A')
                 (A") (A') (A') (A') (A') (A") (A") (A") (A') (A')
                 (A') (A') (A') (A') (A') (A') (A") (A') (A') (A')
                 (A') (A") (A') (A") (A") (A") (A') (A") (A') (A")
                 (A') (A") (A") (A') (A") (A") (A') (A') (A') (A')
                 (A') (A') (A') (A') (A') (A') (A') (A') (A') (A')
                 (A') (A') (A') (A") (A') (A') (A') (A') (A') (A')
                 (A') (A') (A') (A') (A') (A') (A') (A') (A') (A')
                 (A') (A') (A') (A') (A') (A') (A') (A') (A') (A')
                 (A') (A')
     4 initial guesses have been made.
 Convergence on wavefunction:    0.001000000000000
 Iteration     1 Dimension     4 NMult     0 NNew      4
 CISAX will form     4 AO SS matrices at one time.
 Iteration     2 Dimension     6 NMult     4 NNew      2
 Iteration     3 Dimension     8 NMult     6 NNew      2
 Iteration     4 Dimension    10 NMult     8 NNew      2
 Iteration     5 Dimension    12 NMult    10 NNew      2
 Iteration     6 Dimension    14 NMult    12 NNew      2
 ***********************************************************************
 Excited states from <AA,BB:AA,BB> singles matrix:
 ***********************************************************************
 
 Ground to excited state transition densities written to RWF  633
 Ground to excited state transition electric dipole moments (Au):
       state          X           Y           Z        Dip. S.      Osc.
         1        -0.5413      0.3105      0.0000      0.3894      0.0266
 Ground to excited state transition velocity dipole moments (Au):
       state          X           Y           Z        Dip. S.      Osc.
         1         0.0631     -0.0336      0.0000      0.0051      0.0332
 Ground to excited state transition magnetic dipole moments (Au):
       state          X           Y           Z
         1         0.0000      0.0000     -0.1099
 Ground to excited state transition velocity quadrupole moments (Au):
       state          XX          YY          ZZ          XY          XZ          YZ
         1         0.1278      0.1856     -0.0094      0.1307     -0.0000      0.0000
 <0|del|b> * <b|rxdel|0> + <0|del|b> * <b|delr+rdel|0>
 Rotatory Strengths (R) in cgs (10**-40 erg-esu-cm/Gauss)
       state          XX          YY          ZZ    R(velocity)    E-M Angle
         1        -0.0000     -0.0000      0.0000     -0.0000       90.00
 1/2[<0|r|b>*<b|rxdel|0> + (<0|rxdel|b>*<b|r|0>)*]
 Rotatory Strengths (R) in cgs (10**-40 erg-esu-cm/Gauss)
       state          XX          YY          ZZ     R(length)
         1         0.0000     -0.0000      0.0000      0.0000
  1/2[<0|del|b>*<b|r|0> + (<0|r|b>*<b|del|0>)*] (Au)
       state          X           Y           Z        Dip. S.   Osc.(frdel)
         1        -0.0342     -0.0104      0.0000      0.0446      0.0297

 Excitation energies and oscillator strengths:
 
 Excited State   1:      Singlet-A'     2.7920 eV  444.07 nm  f=0.0266  <S**2>=0.000
      47 -> 48         0.70395
 This state for optimization and/or second-order correction.
 Total Energy, E(TD-HF/TD-DFT) =  -539.656480877    
 Copying the excited state density for this state as the 1-particle RhoCI density.
 SavETr:  write IOETrn=   770 NScale= 10 NData=  16 NLR=1 NState=    1 LETran=      28.

 **********************************************************************

            Population analysis using the SCF Density.

 **********************************************************************

 Orbital symmetries:
       Occupied  (A') (A') (A') (A') (A') (A') (A') (A') (A') (A')
                 (A') (A') (A') (A') (A') (A') (A') (A') (A') (A')
                 (A') (A') (A') (A') (A') (A') (A') (A') (A') (A')
                 (A') (A') (A") (A') (A') (A') (A') (A") (A") (A')
                 (A') (A') (A') (A") (A") (A") (A")
       Virtual   (A") (A") (A") (A") (A') (A') (A') (A') (A") (A')
                 (A') (A") (A') (A') (A") (A') (A") (A') (A') (A')
                 (A") (A") (A') (A') (A') (A") (A') (A") (A') (A')
                 (A") (A') (A") (A') (A') (A') (A') (A') (A") (A')
                 (A") (A') (A') (A") (A") (A') (A") (A') (A") (A')
                 (A') (A') (A') (A') (A') (A") (A') (A') (A') (A')
                 (A') (A") (A') (A') (A') (A") (A') (A') (A') (A')
                 (A') (A') (A') (A') (A') (A') (A') (A') (A') (A')
                 (A') (A') (A') (A') (A') (A') (A') (A') (A') (A')
                 (A') (A') (A') (A') (A") (A') (A") (A") (A') (A")
                 (A') (A') (A') (A') (A") (A") (A') (A") (A") (A')
                 (A') (A') (A") (A') (A') (A") (A') (A") (A') (A")
                 (A") (A') (A") (A') (A') (A') (A") (A') (A') (A')
                 (A') (A') (A') (A') (A') (A') (A') (A') (A') (A')
                 (A') (A') (A') (A") (A') (A') (A') (A') (A') (A')
                 (A') (A') (A") (A') (A") (A') (A") (A") (A') (A")
                 (A") (A') (A') (A") (A") (A") (A') (A") (A') (A')
                 (A') (A') (A') (A") (A") (A') (A') (A') (A') (A")
                 (A') (A') (A') (A") (A") (A') (A') (A') (A") (A")
                 (A") (A') (A') (A") (A') (A") (A') (A') (A') (A')
                 (A") (A") (A") (A') (A") (A') (A') (A") (A') (A')
                 (A') (A") (A') (A") (A") (A') (A") (A') (A') (A")
                 (A') (A') (A') (A') (A") (A') (A') (A') (A") (A")
                 (A') (A') (A') (A") (A') (A') (A') (A") (A") (A')
                 (A") (A') (A') (A") (A') (A') (A') (A') (A') (A')
                 (A") (A') (A') (A') (A') (A") (A") (A") (A') (A')
                 (A') (A') (A') (A') (A') (A') (A") (A') (A') (A')
                 (A') (A") (A') (A") (A") (A") (A') (A") (A') (A")
                 (A') (A") (A") (A') (A") (A") (A') (A') (A') (A')
                 (A') (A') (A') (A') (A') (A') (A') (A') (A') (A')
                 (A') (A') (A') (A") (A') (A') (A') (A') (A') (A')
                 (A') (A') (A') (A') (A') (A') (A') (A') (A') (A')
                 (A') (A') (A') (A') (A') (A') (A') (A') (A') (A')
                 (A') (A')
 The electronic state is 1-A'.
 Alpha  occ. eigenvalues --  -10.77639 -10.73408 -10.72978 -10.72589 -10.72239
 Alpha  occ. eigenvalues --  -10.71567 -10.71403 -10.71154 -10.70957 -10.70631
 Alpha  occ. eigenvalues --  -10.70067 -10.69873 -10.69741 -10.69494  -1.16503
 Alpha  occ. eigenvalues --   -1.12497  -1.06943  -1.05821  -1.01311  -1.00274
 Alpha  occ. eigenvalues --   -0.95740  -0.91070  -0.86429  -0.85916  -0.83825
 Alpha  occ. eigenvalues --   -0.78396  -0.76087  -0.74415  -0.69581  -0.69268
 Alpha  occ. eigenvalues --   -0.68484  -0.68189  -0.68086  -0.64858  -0.64287
 Alpha  occ. eigenvalues --   -0.63060  -0.61831  -0.60086  -0.59569  -0.59093
 Alpha  occ. eigenvalues --   -0.56928  -0.55223  -0.54813  -0.52433  -0.46772
 Alpha  occ. eigenvalues --   -0.46076  -0.44342
 Alpha virt. eigenvalues --   -0.26074  -0.14673  -0.14092  -0.12769  -0.11183
 Alpha virt. eigenvalues --   -0.10093  -0.09234  -0.07979  -0.07954  -0.07478
 Alpha virt. eigenvalues --   -0.07210  -0.07147  -0.05641  -0.05583  -0.05339
 Alpha virt. eigenvalues --   -0.03831  -0.03651  -0.03280  -0.03130  -0.02162
 Alpha virt. eigenvalues --   -0.01368  -0.00935   0.00183   0.00593   0.00685
 Alpha virt. eigenvalues --    0.01060   0.01509   0.01932   0.02205   0.02282
 Alpha virt. eigenvalues --    0.02450   0.02674   0.02760   0.03242   0.03385
 Alpha virt. eigenvalues --    0.04234   0.04510   0.04695   0.05028   0.05368
 Alpha virt. eigenvalues --    0.06027   0.06302   0.06596   0.07060   0.07250
 Alpha virt. eigenvalues --    0.07897   0.08156   0.08371   0.08574   0.08925
 Alpha virt. eigenvalues --    0.09535   0.09574   0.10042   0.10885   0.11060
 Alpha virt. eigenvalues --    0.11111   0.12177   0.12253   0.12876   0.13021
 Alpha virt. eigenvalues --    0.13427   0.13521   0.14026   0.14363   0.16161
 Alpha virt. eigenvalues --    0.16297   0.16414   0.17345   0.17605   0.17793
 Alpha virt. eigenvalues --    0.18136   0.19042   0.19266   0.19650   0.19788
 Alpha virt. eigenvalues --    0.21568   0.21637   0.22728   0.23128   0.23577
 Alpha virt. eigenvalues --    0.23761   0.24532   0.25251   0.26927   0.27620
 Alpha virt. eigenvalues --    0.28875   0.29307   0.29909   0.31381   0.35866
 Alpha virt. eigenvalues --    0.36473   0.38184   0.39285   0.41152   0.41382
 Alpha virt. eigenvalues --    0.42009   0.42152   0.42982   0.43724   0.44315
 Alpha virt. eigenvalues --    0.44890   0.45081   0.46033   0.46257   0.47887
 Alpha virt. eigenvalues --    0.48513   0.48889   0.49010   0.50454   0.51264
 Alpha virt. eigenvalues --    0.51534   0.51865   0.52117   0.52922   0.54009
 Alpha virt. eigenvalues --    0.54091   0.54687   0.55671   0.55797   0.57355
 Alpha virt. eigenvalues --    0.58241   0.58843   0.61469   0.62164   0.62370
 Alpha virt. eigenvalues --    0.63223   0.63495   0.65043   0.65168   0.67412
 Alpha virt. eigenvalues --    0.70371   0.70530   0.71087   0.72450   0.72897
 Alpha virt. eigenvalues --    0.75719   0.76042   0.76340   0.76871   0.77112
 Alpha virt. eigenvalues --    0.77862   0.77948   0.78285   0.79865   0.80408
 Alpha virt. eigenvalues --    0.81282   0.81598   0.82187   0.83022   0.85236
 Alpha virt. eigenvalues --    0.87173   0.88237   0.88560   0.89142   0.90478
 Alpha virt. eigenvalues --    0.91155   0.91274   0.93214   0.94646   0.96426
 Alpha virt. eigenvalues --    0.96712   1.00340   1.01317   1.01648   1.02743
 Alpha virt. eigenvalues --    1.03218   1.03654   1.04766   1.05623   1.08825
 Alpha virt. eigenvalues --    1.19587   1.23194   1.24120   1.25125   1.28336
 Alpha virt. eigenvalues --    1.29563   1.31912   1.34228   1.35800   1.36008
 Alpha virt. eigenvalues --    1.39397   1.40096   1.40967   1.42932   1.43530
 Alpha virt. eigenvalues --    1.43541   1.44735   1.45953   1.46392   1.46676
 Alpha virt. eigenvalues --    1.47652   1.48087   1.51819   1.53639   1.55797
 Alpha virt. eigenvalues --    1.56042   1.56346   1.56562   1.57832   1.61515
 Alpha virt. eigenvalues --    1.63176   1.63383   1.63869   1.66151   1.68346
 Alpha virt. eigenvalues --    1.68391   1.68661   1.69720   1.74461   1.76022
 Alpha virt. eigenvalues --    1.77241   1.78054   1.80146   1.80167   1.80779
 Alpha virt. eigenvalues --    1.83128   1.83197   1.83678   1.83833   1.84133
 Alpha virt. eigenvalues --    1.84348   1.85736   1.86200   1.88270   1.91419
 Alpha virt. eigenvalues --    1.92134   1.94151   1.95271   1.97728   1.98191
 Alpha virt. eigenvalues --    1.99801   2.02691   2.04510   2.07270   2.11823
 Alpha virt. eigenvalues --    2.12132   2.14147   2.15224   2.19195   2.21376
 Alpha virt. eigenvalues --    2.22790   2.28492   2.30423   2.34712   2.34972
 Alpha virt. eigenvalues --    2.36250   2.38669   2.39612   2.42402   2.44305
 Alpha virt. eigenvalues --    2.46194   2.46844   2.49385   2.52968   2.53831
 Alpha virt. eigenvalues --    2.54437   2.56664   2.57869   2.58319   2.59613
 Alpha virt. eigenvalues --    2.59866   2.61623   2.62179   2.63579   2.63846
 Alpha virt. eigenvalues --    2.64804   2.65149   2.65177   2.65441   2.68128
 Alpha virt. eigenvalues --    2.68643   2.70981   2.71429   2.73363   2.74835
 Alpha virt. eigenvalues --    2.76298   2.78972   2.79754   2.83108   2.83115
 Alpha virt. eigenvalues --    2.84925   2.86382   2.92154   2.96982   2.99525
 Alpha virt. eigenvalues --    3.00123   3.05464   3.10922   3.11561   3.13442
 Alpha virt. eigenvalues --    3.21155   3.23968   3.26862   3.28483   3.30712
 Alpha virt. eigenvalues --    3.32816   3.33894   3.43501   3.45982   3.46888
 Alpha virt. eigenvalues --    3.48712   3.50293   3.56644   3.65018   3.67139
 Alpha virt. eigenvalues --    3.67580   3.94123   3.94403   3.95244   3.96307
 Alpha virt. eigenvalues --    4.04024   4.06891   4.07664   4.12527   4.35750
 Alpha virt. eigenvalues --    4.61818   4.69842   4.71627  23.45307  23.60566
 Alpha virt. eigenvalues --   23.81980  23.85224  23.87546  23.89291  23.90749
 Alpha virt. eigenvalues --   23.93393  23.97134  23.98556  24.00888  24.02188
 Alpha virt. eigenvalues --   24.10711  24.11160
          Condensed to atoms (all electrons):
               1          2          3          4          5          6
     1  C    8.434217   0.506006  -0.615854   1.751243   0.009939  -0.089671
     2  C    0.506006   7.078442   0.405582  -0.975598  -0.037946  -0.015508
     3  C   -0.615854   0.405582   6.591081   0.720687  -0.114922   0.016923
     4  C    1.751243  -0.975598   0.720687  10.977299  -0.301625  -0.125237
     5  C    0.009939  -0.037946  -0.114922  -0.301625  10.660662   0.763868
     6  C   -0.089671  -0.015508   0.016923  -0.125237   0.763868   6.580051
     7  C   -0.031921   0.003549  -0.014562  -0.017299  -1.060316   0.336184
     8  C    0.406354  -0.018968  -0.099076  -0.019942   1.976898  -0.514097
     9  C   -1.272272  -0.793023   0.285313  -0.176447  -0.362523   0.283793
    10  C   -1.189899   0.192910  -0.322227  -2.631773  -2.470091  -0.394559
    11  C    0.248445  -0.900653   0.973072  -0.222268  -1.462198  -0.153868
    12  C   -1.694392   1.151845  -1.333449  -1.446082  -0.266849  -0.235102
    13  C    0.145605  -0.224045  -0.202288  -1.532991  -0.239293   1.072339
    14  C   -1.097657  -0.249792  -0.167355  -0.376067  -1.458719  -1.399027
    15  H    0.364065  -0.102230  -0.002851   0.025250   0.006334   0.001155
    16  H   -0.020144   0.379201  -0.017840   0.015272  -0.001617  -0.000340
    17  H   -0.020128  -0.019734   0.376887  -0.067015   0.000216   0.000398
    18  H    0.047139   0.003136  -0.085039   0.455693   0.007725  -0.004894
    19  H   -0.045492  -0.007681   0.050478  -0.074725  -0.066943   0.050654
    20  H    0.007445   0.001939  -0.005015   0.007600   0.451132  -0.085062
    21  H   -0.001295  -0.000407   0.000387   0.000396  -0.065770   0.371602
    22  H    0.000551   0.000340  -0.000316  -0.001491   0.012195  -0.013625
    23  H    0.006337  -0.002617   0.001040   0.005653   0.027389  -0.001120
    24  H    0.033734   0.014867  -0.001349  -0.012001  -0.012773  -0.001559
    25  H    0.033734   0.014867  -0.001349  -0.012001  -0.012773  -0.001559
               7          8          9         10         11         12
     1  C   -0.031921   0.406354  -1.272272  -1.189899   0.248445  -1.694392
     2  C    0.003549  -0.018968  -0.793023   0.192910  -0.900653   1.151845
     3  C   -0.014562  -0.099076   0.285313  -0.322227   0.973072  -1.333449
     4  C   -0.017299  -0.019942  -0.176447  -2.631773  -0.222268  -1.446082
     5  C   -1.060316   1.976898  -0.362523  -2.470091  -1.462198  -0.266849
     6  C    0.336184  -0.514097   0.283793  -0.394559  -0.153868  -0.235102
     7  C    7.071260   0.302017  -0.757171   0.273226  -0.257990  -0.162372
     8  C    0.302017   8.641311  -1.254057  -1.275894   0.163328  -1.039071
     9  C   -0.757171  -1.254057   9.668908   0.250221   1.798216  -2.080856
    10  C    0.273226  -1.275894   0.250221   9.261554  -0.521994   2.409016
    11  C   -0.257990   0.163328   1.798216  -0.521994  14.693862  -3.975959
    12  C   -0.162372  -1.039071  -2.080856   2.409016  -3.975959  16.110450
    13  C   -0.986096   0.242636   1.728646  -0.603683   1.086905  -4.847152
    14  C    1.430659  -2.008056  -1.924617   2.451958  -4.883267   2.945273
    15  H   -0.002834   0.005582   0.090194  -0.008831  -0.029009  -0.019318
    16  H    0.000373   0.000823   0.004109  -0.010379   0.029292  -0.035037
    17  H   -0.000387  -0.001364  -0.005581   0.020490  -0.027729   0.087706
    18  H    0.001950   0.007563  -0.024830   0.015356  -0.011362  -0.047321
    19  H   -0.007260  -0.048003   0.076460   0.422373   0.076575  -0.074031
    20  H    0.002778   0.049904  -0.026234   0.018055  -0.011769  -0.009603
    21  H   -0.013975  -0.025299  -0.006349   0.020979  -0.006390   0.005343
    22  H    0.375657  -0.018968   0.004933  -0.009443   0.002988  -0.008596
    23  H   -0.103139   0.365155   0.093738  -0.010376   0.003638   0.006252
    24  H    0.013595   0.029261   0.358190   0.005685   0.018163  -0.059231
    25  H    0.013595   0.029261   0.358190   0.005685   0.018163  -0.059231
              13         14         15         16         17         18
     1  C    0.145605  -1.097657   0.364065  -0.020144  -0.020128   0.047139
     2  C   -0.224045  -0.249792  -0.102230   0.379201  -0.019734   0.003136
     3  C   -0.202288  -0.167355  -0.002851  -0.017840   0.376887  -0.085039
     4  C   -1.532991  -0.376067   0.025250   0.015272  -0.067015   0.455693
     5  C   -0.239293  -1.458719   0.006334  -0.001617   0.000216   0.007725
     6  C    1.072339  -1.399027   0.001155  -0.000340   0.000398  -0.004894
     7  C   -0.986096   1.430659  -0.002834   0.000373  -0.000387   0.001950
     8  C    0.242636  -2.008056   0.005582   0.000823  -0.001364   0.007563
     9  C    1.728646  -1.924617   0.090194   0.004109  -0.005581  -0.024830
    10  C   -0.603683   2.451958  -0.008831  -0.010379   0.020490   0.015356
    11  C    1.086905  -4.883267  -0.029009   0.029292  -0.027729  -0.011362
    12  C   -4.847152   2.945273  -0.019318  -0.035037   0.087706  -0.047321
    13  C   14.644882  -3.694862  -0.000623   0.003305  -0.006366  -0.011822
    14  C   -3.694862  15.994147   0.007158  -0.009693   0.005193  -0.014970
    15  H   -0.000623   0.007158   0.436235  -0.008892   0.001544   0.000243
    16  H    0.003305  -0.009693  -0.008892   0.417766  -0.006850   0.001923
    17  H   -0.006366   0.005193   0.001544  -0.006850   0.421280  -0.010031
    18  H   -0.011822  -0.014970   0.000243   0.001923  -0.010031   0.450593
    19  H    0.079752  -0.056308   0.000332  -0.000554   0.001520  -0.005862
    20  H   -0.008743  -0.055032  -0.000116   0.000016  -0.000151   0.001293
    21  H   -0.029151   0.093178   0.000014  -0.000007   0.000010  -0.000131
    22  H    0.029881  -0.036539  -0.000124   0.000007  -0.000007   0.000012
    23  H   -0.030876  -0.029113   0.000612  -0.000127   0.000011  -0.000105
    24  H    0.008295  -0.059887  -0.000892   0.000625  -0.000137   0.000155
    25  H    0.008295  -0.059887  -0.000892   0.000625  -0.000137   0.000155
              19         20         21         22         23         24
     1  C   -0.045492   0.007445  -0.001295   0.000551   0.006337   0.033734
     2  C   -0.007681   0.001939  -0.000407   0.000340  -0.002617   0.014867
     3  C    0.050478  -0.005015   0.000387  -0.000316   0.001040  -0.001349
     4  C   -0.074725   0.007600   0.000396  -0.001491   0.005653  -0.012001
     5  C   -0.066943   0.451132  -0.065770   0.012195   0.027389  -0.012773
     6  C    0.050654  -0.085062   0.371602  -0.013625  -0.001120  -0.001559
     7  C   -0.007260   0.002778  -0.013975   0.375657  -0.103139   0.013595
     8  C   -0.048003   0.049904  -0.025299  -0.018968   0.365155   0.029261
     9  C    0.076460  -0.026234  -0.006349   0.004933   0.093738   0.358190
    10  C    0.422373   0.018055   0.020979  -0.009443  -0.010376   0.005685
    11  C    0.076575  -0.011769  -0.006390   0.002988   0.003638   0.018163
    12  C   -0.074031  -0.009603   0.005343  -0.008596   0.006252  -0.059231
    13  C    0.079752  -0.008743  -0.029151   0.029881  -0.030876   0.008295
    14  C   -0.056308  -0.055032   0.093178  -0.036539  -0.029113  -0.059887
    15  H    0.000332  -0.000116   0.000014  -0.000124   0.000612  -0.000892
    16  H   -0.000554   0.000016  -0.000007   0.000007  -0.000127   0.000625
    17  H    0.001520  -0.000151   0.000010  -0.000007   0.000011  -0.000137
    18  H   -0.005862   0.001293  -0.000131   0.000012  -0.000105   0.000155
    19  H    0.442690  -0.006303   0.001270  -0.000500   0.000247   0.000629
    20  H   -0.006303   0.455097  -0.010213   0.001887   0.000170   0.000189
    21  H    0.001270  -0.010213   0.423468  -0.006405   0.001368  -0.000144
    22  H   -0.000500   0.001887  -0.006405   0.420451  -0.008914   0.000628
    23  H    0.000247   0.000170   0.001368  -0.008914   0.440571  -0.000875
    24  H    0.000629   0.000189  -0.000144   0.000628  -0.000875   0.494938
    25  H    0.000629   0.000189  -0.000144   0.000628  -0.000875  -0.081007
              25
     1  C    0.033734
     2  C    0.014867
     3  C   -0.001349
     4  C   -0.012001
     5  C   -0.012773
     6  C   -0.001559
     7  C    0.013595
     8  C    0.029261
     9  C    0.358190
    10  C    0.005685
    11  C    0.018163
    12  C   -0.059231
    13  C    0.008295
    14  C   -0.059887
    15  H   -0.000892
    16  H    0.000625
    17  H   -0.000137
    18  H    0.000155
    19  H    0.000629
    20  H    0.000189
    21  H   -0.000144
    22  H    0.000628
    23  H   -0.000875
    24  H   -0.081007
    25  H    0.494938
 Mulliken charges:
               1
     1  C    0.083911
     2  C   -0.404484
     3  C   -0.437962
     4  C    0.033467
     5  C    0.017999
     6  C   -0.441737
     7  C   -0.409520
     8  C    0.102704
     9  C   -0.316953
    10  C    0.101641
    11  C   -0.648190
    12  C    0.677767
    13  C   -0.632550
    14  C    0.653281
    15  H    0.237896
    16  H    0.258145
    17  H    0.250360
    18  H    0.223430
    19  H    0.190054
    20  H    0.220549
    21  H    0.247665
    22  H    0.254768
    23  H    0.235955
    24  H    0.250902
    25  H    0.250902
 Sum of Mulliken charges =   1.00000
 Mulliken charges with hydrogens summed into heavy atoms:
               1
     1  C    0.321807
     2  C   -0.146339
     3  C   -0.187601
     4  C    0.256897
     5  C    0.238547
     6  C   -0.194072
     7  C   -0.154752
     8  C    0.338659
     9  C    0.184852
    10  C    0.291696
    11  C   -0.648190
    12  C    0.677767
    13  C   -0.632550
    14  C    0.653281
 Electronic spatial extent (au):  <R**2>=           2853.6390
 Charge=              1.0000 electrons
 Dipole moment (field-independent basis, Debye):
    X=             -0.0394    Y=             -0.4546    Z=             -0.0000  Tot=              0.4563
 Quadrupole moment (field-independent basis, Debye-Ang):
   XX=            -50.8638   YY=            -36.5310   ZZ=            -84.1388
   XY=             10.3122   XZ=              0.0000   YZ=             -0.0000
 Traceless Quadrupole moment (field-independent basis, Debye-Ang):
   XX=              6.3141   YY=             20.6469   ZZ=            -26.9609
   XY=             10.3122   XZ=              0.0000   YZ=             -0.0000
 Octapole moment (field-independent basis, Debye-Ang**2):
  XXX=             -1.1175  YYY=              1.5583  ZZZ=             -0.0000  XYY=             -1.4604
  XXY=             -6.3048  XXZ=             -0.0000  XZZ=             -2.9854  YZZ=              0.9016
  YYZ=             -0.0000  XYZ=              0.0000
 Hexadecapole moment (field-independent basis, Debye-Ang**3):
 XXXX=           -993.2350 YYYY=          -1843.6946 ZZZZ=            -99.3080 XXXY=           -349.3426
 XXXZ=              0.0000 YYYX=           -276.4179 YYYZ=             -0.0000 ZZZX=              0.0000
 ZZZY=             -0.0000 XXYY=           -453.7886 XXZZ=           -242.9084 YYZZ=           -492.9527
 XXYZ=             -0.0000 YYXZ=              0.0000 ZZXY=           -183.8208
 N-N= 7.815473875582D+02 E-N=-2.799450465179D+03  KE= 5.375278433899D+02
 Symmetry A'   KE= 5.228796025612D+02
 Symmetry A"   KE= 1.464824082877D+01
 Unable to Open any file for archive entry.
 1\1\GINC-GADI-CPU-CLX-0648\SP\RM062X TD-FC\6-311++G(d,p)\C14H11(1+)\TS
 1578\27-Jul-2022\0\\#n M062X/6-311++G(d,p) TD(NStates=1) EmpiricalDisp
 ersion=GD3 SP\\SP_-125\\1,1\C,0,2.4791,1.3706,0.\C,0,3.6875,0.676025,0
 .\C,0,3.6794,-0.71265,0.\C,0,2.474725,-1.405375,0.\C,0,-2.451325,-1.39
 1725,0.\C,0,-3.6863,-0.69405,0.\C,0,-3.712175,0.6866,0.\C,0,-2.49965,1
 .3697,0.\C,0,-0.006475,1.4544,0.\C,0,0.0183,-1.42015,0.\C,0,1.264575,0
 .69135,0.\C,0,1.2457,-0.723525,0.\C,0,-1.2591,0.679875,0.\C,0,-1.2307,
 -0.721725,0.\H,0,2.4811,2.453775,0.\H,0,4.6223,1.2174,0.\H,0,4.61095,-
 1.261175,0.\H,0,2.4735,-2.487775,0.\H,0,0.016875,-2.501425,0.\H,0,-2.4
 6255,-2.4745,0.\H,0,-4.6066,-1.26185,0.\H,0,-4.647275,1.226025,0.\H,0,
 -2.4874,2.4531,0.\H,0,-0.024,2.15275,-0.857675\H,0,-0.024,2.15275,0.85
 7675\\Version=ES64L-G16RevC.01\State=1-A'\HF=-539.7590848\RMSD=6.621e-
 09\PG=CS [SG(C14H9),X(H2)]\\@
 The archive entry for this job was punched.


 NEVER TEACH A PIG TO SING.
 IT WASTES YOUR TIME AND ANNOYS THE PIG.
     -- SEEN ON A GREETING CARD
 Job cpu time:       0 days  0 hours 51 minutes 16.2 seconds.
 Elapsed time:       0 days  0 hours  1 minutes 44.5 seconds.
 File lengths (MBytes):  RWF=    460 Int=      0 D2E=      0 Chk=     15 Scr=      1
 Normal termination of Gaussian 16 at Wed Jul 27 09:53:06 2022.
