 Entering Gaussian System, Link 0=g16
 Initial command:
 /apps/gaussian/g16c01/g16/l1.exe "/jobfs/52804872.gadi-pbs/Gau-1719411.inp" -scrdir="/jobfs/52804872.gadi-pbs/"
 Entering Link 1 = /apps/gaussian/g16c01/g16/l1.exe PID=   1719412.
  
 Copyright (c) 1988-2019, Gaussian, Inc.  All Rights Reserved.
  
 This is part of the Gaussian(R) 16 program.  It is based on
 the Gaussian(R) 09 system (copyright 2009, Gaussian, Inc.),
 the Gaussian(R) 03 system (copyright 2003, Gaussian, Inc.),
 the Gaussian(R) 98 system (copyright 1998, Gaussian, Inc.),
 the Gaussian(R) 94 system (copyright 1995, Gaussian, Inc.),
 the Gaussian 92(TM) system (copyright 1992, Gaussian, Inc.),
 the Gaussian 90(TM) system (copyright 1990, Gaussian, Inc.),
 the Gaussian 88(TM) system (copyright 1988, Gaussian, Inc.),
 the Gaussian 86(TM) system (copyright 1986, Carnegie Mellon
 University), and the Gaussian 82(TM) system (copyright 1983,
 Carnegie Mellon University). Gaussian is a federally registered
 trademark of Gaussian, Inc.
  
 This software contains proprietary and confidential information,
 including trade secrets, belonging to Gaussian, Inc.
  
 This software is provided under written license and may be
 used, copied, transmitted, or stored only in accord with that
 written license.
  
 The following legend is applicable only to US Government
 contracts under FAR:
  
                    RESTRICTED RIGHTS LEGEND
  
 Use, reproduction and disclosure by the US Government is
 subject to restrictions as set forth in subparagraphs (a)
 and (c) of the Commercial Computer Software - Restricted
 Rights clause in FAR 52.227-19.
  
 Gaussian, Inc.
 340 Quinnipiac St., Bldg. 40, Wallingford CT 06492
  
  
 ---------------------------------------------------------------
 Warning -- This program may not be used in any manner that
 competes with the business of Gaussian, Inc. or will provide
 assistance to any competitor of Gaussian, Inc.  The licensee
 of this program is prohibited from giving any competitor of
 Gaussian, Inc. access to this program.  By using this program,
 the user acknowledges that Gaussian, Inc. is engaged in the
 business of creating and licensing software in the field of
 computational chemistry and represents and warrants to the
 licensee that it is not a competitor of Gaussian, Inc. and that
 it will not use this program in any manner prohibited above.
 ---------------------------------------------------------------
  

 Cite this work as:
 Gaussian 16, Revision C.01,
 M. J. Frisch, G. W. Trucks, H. B. Schlegel, G. E. Scuseria, 
 M. A. Robb, J. R. Cheeseman, G. Scalmani, V. Barone, 
 G. A. Petersson, H. Nakatsuji, X. Li, M. Caricato, A. V. Marenich, 
 J. Bloino, B. G. Janesko, R. Gomperts, B. Mennucci, H. P. Hratchian, 
 J. V. Ortiz, A. F. Izmaylov, J. L. Sonnenberg, D. Williams-Young, 
 F. Ding, F. Lipparini, F. Egidi, J. Goings, B. Peng, A. Petrone, 
 T. Henderson, D. Ranasinghe, V. G. Zakrzewski, J. Gao, N. Rega, 
 G. Zheng, W. Liang, M. Hada, M. Ehara, K. Toyota, R. Fukuda, 
 J. Hasegawa, M. Ishida, T. Nakajima, Y. Honda, O. Kitao, H. Nakai, 
 T. Vreven, K. Throssell, J. A. Montgomery, Jr., J. E. Peralta, 
 F. Ogliaro, M. J. Bearpark, J. J. Heyd, E. N. Brothers, K. N. Kudin, 
 V. N. Staroverov, T. A. Keith, R. Kobayashi, J. Normand, 
 K. Raghavachari, A. P. Rendell, J. C. Burant, S. S. Iyengar, 
 J. Tomasi, M. Cossi, J. M. Millam, M. Klene, C. Adamo, R. Cammi, 
 J. W. Ochterski, R. L. Martin, K. Morokuma, O. Farkas, 
 J. B. Foresman, and D. J. Fox, Gaussian, Inc., Wallingford CT, 2019.
 
 ******************************************
 Gaussian 16:  ES64L-G16RevC.01  3-Jul-2019
                27-Jul-2022 
 ******************************************
 %NProcShared=32
 Will use up to   32 processors via shared memory.
 %mem = 128GB
 ---------------------------------------------------------------
 #n M062X/6-311++G(d,p) TD(NStates=1) EmpiricalDispersion=GD3 SP
 ---------------------------------------------------------------
 1/38=1,172=1/1;
 2/12=2,17=6,18=5,40=1/2;
 3/5=4,6=6,7=1111,11=9,25=1,30=1,74=-55,124=31/1,2,3,8;
 4//1;
 5/5=2,38=5/2;
 8/6=1,10=2,108=1/1;
 9/41=1,42=1,70=2/14;
 6/7=2,8=2,9=2,10=2/1;
 99/5=1,9=1/99;
 ------
 SP_100
 ------
 Symbolic Z-matrix:
 Charge =  1 Multiplicity = 1
 C                     2.52305   1.3679    0. 
 C                     3.73828   0.69665   0. 
 C                     3.6941   -0.67695   0. 
 C                     2.42808  -1.37838   0. 
 C                    -2.49828  -1.41933   0. 
 C                    -3.6734   -0.73275   0. 
 C                    -3.66425   0.66493   0. 
 C                    -2.4614    1.3706    0. 
 C                     0.0197    1.461     0. 
 C                    -0.0549   -1.42045   0. 
 C                     1.25385   0.66848   0. 
 C                     1.2151   -0.71948   0. 
 C                    -1.27028   0.7029    0. 
 C                    -1.2601   -0.72488   0. 
 H                     2.497     2.45145   0. 
 H                     4.67398   1.23353   0. 
 H                     4.6027   -1.2644    0. 
 H                     2.45115  -2.46145   0. 
 H                    -0.05063  -2.50158   0. 
 H                    -2.484    -2.50128   0. 
 H                    -4.61575  -1.26238   0. 
 H                    -4.59905   1.20765   0. 
 H                    -2.4781    2.45348   0. 
 H                     0.072     2.15425  -0.85933 
 H                     0.072     2.15425   0.85933 
 
                          Input orientation:                          
 ---------------------------------------------------------------------
 Center     Atomic      Atomic             Coordinates (Angstroms)
 Number     Number       Type             X           Y           Z
 ---------------------------------------------------------------------
      1          6           0        2.523050    1.367900    0.000000
      2          6           0        3.738275    0.696650    0.000000
      3          6           0        3.694100   -0.676950    0.000000
      4          6           0        2.428075   -1.378375    0.000000
      5          6           0       -2.498275   -1.419325    0.000000
      6          6           0       -3.673400   -0.732750    0.000000
      7          6           0       -3.664250    0.664925    0.000000
      8          6           0       -2.461400    1.370600    0.000000
      9          6           0        0.019700    1.461000    0.000000
     10          6           0       -0.054900   -1.420450    0.000000
     11          6           0        1.253850    0.668475    0.000000
     12          6           0        1.215100   -0.719475    0.000000
     13          6           0       -1.270275    0.702900    0.000000
     14          6           0       -1.260100   -0.724875    0.000000
     15          1           0        2.497000    2.451450    0.000000
     16          1           0        4.673975    1.233525    0.000000
     17          1           0        4.602700   -1.264400    0.000000
     18          1           0        2.451150   -2.461450    0.000000
     19          1           0       -0.050625   -2.501575    0.000000
     20          1           0       -2.484000   -2.501275    0.000000
     21          1           0       -4.615750   -1.262375    0.000000
     22          1           0       -4.599050    1.207650    0.000000
     23          1           0       -2.478100    2.453475    0.000000
     24          1           0        0.072000    2.154250   -0.859325
     25          1           0        0.072000    2.154250    0.859325
 ---------------------------------------------------------------------
                    Distance matrix (angstroms):
                    1          2          3          4          5
     1  C    0.000000
     2  C    1.388290   0.000000
     3  C    2.356432   1.374310   0.000000
     4  C    2.747917   2.454048   1.447348   0.000000
     5  C    5.743024   6.585735   6.236716   4.926520   0.000000
     6  C    6.542838   7.548252   7.367711   6.135538   1.360994
     7  C    6.227106   7.402593   7.479702   6.425846   2.388220
     8  C    4.984451   6.236199   6.487113   5.609263   2.790169
     9  C    2.505081   3.796318   4.251123   3.723214   3.825764
    10  C    3.797463   4.343995   3.822014   2.483331   2.443375
    11  C    1.449160   2.484585   2.786573   2.359746   4.293874
    12  C    2.463304   2.893410   2.479365   1.380383   3.778749
    13  C    3.851174   5.008554   5.152573   4.243760   2.451902
    14  C    4.323417   5.196584   4.954432   3.745624   1.419626
    15  H    1.083863   2.149439   3.349617   3.830445   6.319468
    16  H    2.155118   1.078781   2.147107   3.444719   7.647142
    17  H    3.354690   2.143116   1.081966   2.177610   7.102665
    18  H    3.830025   3.410321   2.174710   1.083321   5.057947
    19  H    4.647218   4.958266   4.165600   2.721311   2.676239
    20  H    6.327801   6.995958   6.441823   5.038788   1.082044
    21  H    7.607944   8.580648   8.330446   7.044780   2.123284
    22  H    7.123903   8.352970   8.504590   7.487858   3.363667
    23  H    5.117614   6.459857   6.920666   6.225241   3.872853
    24  H    2.713749   4.037897   4.676937   4.332317   4.484996
    25  H    2.713749   4.037897   4.676937   4.332317   4.484996
                    6          7          8          9         10
     6  C    0.000000
     7  C    1.397705   0.000000
     8  C    2.427555   1.394570   0.000000
     9  C    4.295524   3.768982   2.482746   0.000000
    10  C    3.683269   4.168476   3.685268   2.882416   0.000000
    11  C    5.122619   4.918101   3.781013   1.466705   2.465042
    12  C    4.888518   5.071944   4.229074   2.486655   1.450609
    13  C    2.799304   2.394276   1.365504   1.496246   2.446580
    14  C    2.413313   2.776955   2.415396   2.532970   1.391521
    15  H    6.943556   6.415035   5.074837   2.667959   4.637219
    16  H    8.575833   8.357589   7.136692   4.659831   5.422715
    17  H    8.293159   8.489096   7.539545   5.332138   4.660213
    18  H    6.363844   6.868212   6.230390   4.614928   2.713663
    19  H    4.031531   4.804686   4.561313   3.963199   1.081133
    20  H    2.131280   3.379025   3.871941   4.687018   2.658704
    21  H    1.080984   2.149381   3.402026   5.376260   4.563589
    22  H    2.149879   1.080926   2.143852   4.625693   5.249401
    23  H    3.403053   2.146127   1.083004   2.687752   4.569376
    24  H    4.806374   4.112918   2.787591   1.105337   3.678726
    25  H    4.806374   4.112918   2.787591   1.105337   3.678726
                   11         12         13         14         15
    11  C    0.000000
    12  C    1.388491   0.000000
    13  C    2.524360   2.863606   0.000000
    14  C    2.874260   2.475206   1.427811   0.000000
    15  H    2.173574   3.420239   4.153286   4.919842   0.000000
    16  H    3.466488   3.972156   5.967887   6.248886   2.494506
    17  H    3.866627   3.431148   6.193715   5.887573   4.271009
    18  H    3.351113   2.135953   4.884886   4.097447   4.913114
    19  H    3.427954   2.185850   3.428732   2.149301   5.569816
    20  H    4.900902   4.105868   3.426349   2.157204   7.024233
    21  H    6.179028   5.856070   3.880014   3.398425   8.023946
    22  H    5.877682   6.125206   3.366826   3.857880   7.204232
    23  H    4.136868   4.869018   2.126818   3.403738   4.975100
    24  H    2.083923   3.209893   2.155588   3.286684   2.589863
    25  H    2.083923   3.209893   2.155588   3.286684   2.589863
                   16         17         18         19         20
    16  H    0.000000
    17  H    2.498942   0.000000
    18  H    4.312052   2.462132   0.000000
    19  H    6.022692   4.814980   2.502097   0.000000
    20  H    8.073744   7.193829   4.935311   2.433375   0.000000
    21  H    9.619174   9.218450   7.167905   4.730326   2.465610
    22  H    9.273061   9.528024   7.947806   5.869116   4.269609
    23  H    7.255374   7.997520   6.960890   5.517713   4.954754
    24  H    4.771200   5.740457   5.263410   4.736051   5.380101
    25  H    4.771200   5.740457   5.263410   4.736051   5.380101
                   21         22         23         24         25
    21  H    0.000000
    22  H    2.470081   0.000000
    23  H    4.286851   2.459778   0.000000
    24  H    5.864023   4.842850   2.707579   0.000000
    25  H    5.864023   4.842850   2.707579   1.718650   0.000000
 Stoichiometry    C14H11(1+)
 Framework group  CS[SG(C14H9),X(H2)]
 Deg. of freedom    46
 Full point group                 CS      NOp   2
 Largest Abelian subgroup         CS      NOp   2
 Largest concise Abelian subgroup CS      NOp   2
                         Standard orientation:                         
 ---------------------------------------------------------------------
 Center     Atomic      Atomic             Coordinates (Angstroms)
 Number     Number       Type             X           Y           Z
 ---------------------------------------------------------------------
      1          6           0        2.462832    1.464080    0.000000
      2          6           0        2.512129    2.851494    0.000000
      3          6           0        1.311385    3.520032    0.000000
      4          6           0        0.058731    2.794998    0.000000
      5          6           0       -2.509941   -1.408872    0.000000
      6          6           0       -2.525471   -2.769777    0.000000
      7          6           0       -1.322093   -3.480735    0.000000
      8          6           0       -0.098284   -2.812066    0.000000
      9          6           0        1.255239   -0.730720    0.000000
     10          6           0       -1.254312    0.687191    0.000000
     11          6           0        1.210261    0.735295    0.000000
     12          6           0        0.000000    1.415865    0.000000
     13          6           0       -0.058338   -1.447147    0.000000
     14          6           0       -1.277592   -0.704136    0.000000
     15          1           0        3.378708    0.884485    0.000000
     16          1           0        3.453780    3.377861    0.000000
     17          1           0        1.274857    4.601382    0.000000
     18          1           0       -0.858267    3.371798    0.000000
     19          1           0       -2.179307    1.246864    0.000000
     20          1           0       -3.430500   -0.840198    0.000000
     21          1           0       -3.464325   -3.305576    0.000000
     22          1           0       -1.337397   -4.561552    0.000000
     23          1           0        0.821821   -3.383296    0.000000
     24          1           0        1.876680   -1.042395    0.859325
     25          1           0        1.876680   -1.042395   -0.859325
 ---------------------------------------------------------------------
 Rotational constants (GHZ):           2.1371110           0.4445696           0.3688135
 Standard basis: 6-311++G(d,p) (5D, 7F)
 There are   299 symmetry adapted cartesian basis functions of A'  symmetry.
 There are   100 symmetry adapted cartesian basis functions of A"  symmetry.
 There are   285 symmetry adapted basis functions of A'  symmetry.
 There are   100 symmetry adapted basis functions of A"  symmetry.
   385 basis functions,   603 primitive gaussians,   399 cartesian basis functions
    47 alpha electrons       47 beta electrons
       nuclear repulsion energy       781.3111257239 Hartrees.
 NAtoms=   25 NActive=   25 NUniq=   24 SFac= 1.09D+00 NAtFMM=   60 NAOKFM=F Big=F
 Integral buffers will be    131072 words long.
 Regular integral format.
 Two-electron integral symmetry is turned on.
 Nuclear repulsion after empirical dispersion term =      781.3101467998 Hartrees.
 One-electron integrals computed using PRISM.
 NBasis=   385 RedAO= T EigKep=  1.11D-06  NBF=   285   100
 NBsUse=   379 1.00D-06 EigRej=  8.35D-07 NBFU=   279   100
 ExpMin= 3.60D-02 ExpMax= 4.56D+03 ExpMxC= 6.82D+02 IAcc=3 IRadAn=         5 AccDes= 0.00D+00
 Harris functional with IExCor= 1009 and IRadAn=       5 diagonalized for initial guess.
 HarFok:  IExCor= 1009 AccDes= 0.00D+00 IRadAn=         5 IDoV= 1 UseB2=F ITyADJ=14
 ICtDFT=  3500011 ScaDFX=  1.000000  1.000000  1.000000  1.000000
 FoFCou: FMM=F IPFlag=           0 FMFlag=      100000 FMFlg1=           0
         NFxFlg=           0 DoJE=T BraDBF=F KetDBF=T FulRan=T
         wScrn=  0.000000 ICntrl=       500 IOpCl=  0 I1Cent=   200000004 NGrid=           0
         NMat0=    1 NMatS0=      1 NMatT0=    0 NMatD0=    1 NMtDS0=    0 NMtDT0=    0
 Petite list used in FoFCou.
 Initial guess orbital symmetries:
       Occupied  (A') (A') (A') (A') (A') (A') (A') (A') (A') (A')
                 (A') (A') (A') (A') (A') (A') (A') (A') (A') (A')
                 (A') (A') (A') (A') (A') (A') (A') (A') (A') (A')
                 (A') (A') (A") (A') (A') (A') (A') (A') (A") (A')
                 (A") (A') (A') (A") (A") (A") (A")
       Virtual   (A") (A") (A") (A") (A") (A') (A') (A') (A') (A")
                 (A") (A') (A') (A') (A") (A') (A') (A') (A') (A")
                 (A') (A") (A') (A') (A') (A") (A') (A") (A') (A')
                 (A') (A') (A') (A') (A") (A') (A") (A') (A') (A')
                 (A") (A') (A") (A') (A') (A') (A') (A') (A") (A')
                 (A') (A') (A") (A") (A') (A') (A') (A") (A") (A')
                 (A') (A') (A') (A') (A') (A') (A") (A') (A') (A")
                 (A') (A') (A') (A') (A') (A') (A') (A') (A') (A')
                 (A') (A') (A') (A') (A') (A') (A') (A') (A') (A')
                 (A') (A') (A') (A') (A') (A') (A') (A") (A') (A")
                 (A') (A') (A") (A") (A') (A") (A') (A") (A") (A')
                 (A") (A') (A') (A') (A") (A') (A') (A") (A") (A')
                 (A") (A") (A') (A') (A') (A") (A') (A') (A') (A")
                 (A') (A') (A') (A') (A') (A') (A") (A') (A') (A')
                 (A') (A') (A') (A') (A') (A') (A') (A') (A') (A")
                 (A") (A') (A") (A") (A') (A') (A') (A") (A') (A")
                 (A") (A') (A") (A") (A") (A') (A') (A') (A') (A')
                 (A') (A") (A') (A') (A") (A') (A') (A') (A') (A")
                 (A') (A') (A') (A') (A") (A") (A') (A') (A") (A")
                 (A") (A') (A') (A") (A') (A') (A') (A") (A') (A')
                 (A") (A") (A") (A') (A') (A") (A') (A") (A') (A')
                 (A") (A") (A') (A") (A') (A") (A') (A') (A') (A")
                 (A') (A') (A') (A') (A") (A') (A') (A') (A") (A")
                 (A') (A') (A') (A") (A') (A') (A") (A') (A") (A')
                 (A") (A') (A') (A') (A') (A") (A') (A') (A') (A")
                 (A') (A') (A') (A") (A") (A') (A') (A") (A') (A')
                 (A') (A") (A') (A") (A') (A') (A') (A") (A') (A")
                 (A') (A') (A') (A') (A") (A') (A") (A') (A") (A")
                 (A') (A') (A") (A") (A") (A') (A') (A') (A') (A')
                 (A') (A') (A') (A') (A') (A') (A') (A') (A') (A')
                 (A') (A') (A') (A") (A') (A') (A') (A') (A') (A')
                 (A') (A') (A') (A') (A') (A') (A') (A') (A') (A')
                 (A') (A') (A') (A') (A') (A') (A') (A') (A') (A')
                 (A') (A')
 The electronic state of the initial guess is 1-A'.
 Requested convergence on RMS density matrix=1.00D-08 within 128 cycles.
 Requested convergence on MAX density matrix=1.00D-06.
 Requested convergence on             energy=1.00D-06.
 No special actions if energy rises.
 SCF Done:  E(RM062X) =  -539.751388178     A.U. after   16 cycles
            NFock= 16  Conv=0.33D-08     -V/T= 2.0041
 DoSCS=F DFT=T ScalE2(SS,OS)=  1.000000  1.000000
 ExpMin= 3.60D-02 ExpMax= 4.56D+03 ExpMxC= 6.82D+02 IAcc=3 IRadAn=         5 AccDes= 0.00D+00
 HarFok:  IExCor=  205 AccDes= 0.00D+00 IRadAn=         5 IDoV=-2 UseB2=F ITyADJ=14
 ICtDFT= 12500011 ScaDFX=  1.000000  1.000000  1.000000  1.000000
 Range of M.O.s used for correlation:    15   379
 NBasis=   385 NAE=    47 NBE=    47 NFC=    14 NFV=     0
 NROrb=    365 NOA=    33 NOB=    33 NVA=   332 NVB=   332

 **** Warning!!: The largest alpha MO coefficient is  0.14100536D+03

 Orbital symmetries:
       Occupied  (A') (A') (A') (A') (A') (A') (A') (A') (A') (A')
                 (A') (A') (A') (A') (A') (A') (A') (A') (A') (A')
                 (A') (A') (A') (A') (A') (A') (A') (A') (A') (A')
                 (A') (A") (A') (A') (A') (A') (A') (A") (A') (A")
                 (A') (A') (A') (A") (A") (A") (A")
       Virtual   (A") (A") (A") (A") (A') (A') (A') (A') (A") (A')
                 (A') (A") (A') (A') (A") (A') (A") (A') (A') (A')
                 (A") (A") (A') (A') (A') (A") (A') (A") (A') (A')
                 (A") (A') (A") (A') (A') (A') (A') (A') (A") (A')
                 (A") (A') (A') (A") (A") (A') (A") (A') (A") (A')
                 (A') (A') (A') (A') (A') (A") (A') (A') (A') (A')
                 (A') (A") (A') (A') (A') (A") (A') (A') (A') (A')
                 (A') (A') (A') (A') (A') (A') (A') (A') (A') (A')
                 (A') (A') (A') (A') (A') (A') (A') (A') (A') (A')
                 (A') (A') (A') (A') (A") (A') (A") (A") (A') (A")
                 (A') (A') (A') (A') (A") (A") (A') (A") (A") (A')
                 (A') (A") (A') (A') (A") (A') (A') (A") (A') (A")
                 (A") (A') (A") (A') (A') (A') (A") (A') (A') (A')
                 (A') (A') (A') (A') (A') (A') (A') (A') (A') (A')
                 (A') (A') (A') (A") (A') (A') (A') (A') (A') (A')
                 (A') (A") (A') (A') (A") (A') (A") (A") (A') (A")
                 (A") (A') (A') (A") (A') (A") (A") (A") (A') (A')
                 (A') (A') (A") (A') (A') (A") (A') (A') (A') (A")
                 (A') (A') (A') (A") (A") (A') (A') (A") (A") (A')
                 (A") (A') (A') (A") (A') (A") (A') (A') (A') (A')
                 (A") (A") (A") (A') (A") (A') (A') (A") (A') (A')
                 (A') (A") (A') (A") (A") (A') (A") (A') (A') (A")
                 (A') (A') (A') (A') (A") (A') (A') (A') (A") (A")
                 (A') (A') (A') (A") (A') (A') (A') (A") (A") (A')
                 (A") (A') (A') (A") (A') (A') (A') (A') (A') (A')
                 (A") (A') (A') (A') (A') (A") (A") (A") (A') (A')
                 (A') (A') (A') (A') (A') (A') (A') (A") (A') (A')
                 (A') (A") (A') (A") (A") (A") (A') (A") (A') (A")
                 (A') (A") (A") (A') (A") (A") (A') (A') (A') (A')
                 (A') (A') (A') (A') (A') (A') (A') (A') (A') (A')
                 (A') (A') (A') (A") (A') (A') (A') (A') (A') (A')
                 (A') (A') (A') (A') (A') (A') (A') (A') (A') (A')
                 (A') (A') (A') (A') (A') (A') (A') (A') (A') (A')
                 (A') (A')
     4 initial guesses have been made.
 Convergence on wavefunction:    0.001000000000000
 Iteration     1 Dimension     4 NMult     0 NNew      4
 CISAX will form     4 AO SS matrices at one time.
 Iteration     2 Dimension     6 NMult     4 NNew      2
 Iteration     3 Dimension     8 NMult     6 NNew      2
 Iteration     4 Dimension    10 NMult     8 NNew      2
 Iteration     5 Dimension    12 NMult    10 NNew      2
 Iteration     6 Dimension    14 NMult    12 NNew      2
 ***********************************************************************
 Excited states from <AA,BB:AA,BB> singles matrix:
 ***********************************************************************
 
 Ground to excited state transition densities written to RWF  633
 Ground to excited state transition electric dipole moments (Au):
       state          X           Y           Z        Dip. S.      Osc.
         1         0.4898     -0.2152      0.0000      0.2862      0.0184
 Ground to excited state transition velocity dipole moments (Au):
       state          X           Y           Z        Dip. S.      Osc.
         1        -0.0509      0.0277     -0.0000      0.0034      0.0232
 Ground to excited state transition magnetic dipole moments (Au):
       state          X           Y           Z
         1        -0.0000     -0.0000      0.1682
 Ground to excited state transition velocity quadrupole moments (Au):
       state          XX          YY          ZZ          XY          XZ          YZ
         1         0.0007      0.2497     -0.0079      0.0501     -0.0000     -0.0000
 <0|del|b> * <b|rxdel|0> + <0|del|b> * <b|delr+rdel|0>
 Rotatory Strengths (R) in cgs (10**-40 erg-esu-cm/Gauss)
       state          XX          YY          ZZ    R(velocity)    E-M Angle
         1        -0.0000      0.0000     -0.0000     -0.0000       90.00
 1/2[<0|r|b>*<b|rxdel|0> + (<0|rxdel|b>*<b|r|0>)*]
 Rotatory Strengths (R) in cgs (10**-40 erg-esu-cm/Gauss)
       state          XX          YY          ZZ     R(length)
         1         0.0000     -0.0000     -0.0000     -0.0000
  1/2[<0|del|b>*<b|r|0> + (<0|r|b>*<b|del|0>)*] (Au)
       state          X           Y           Z        Dip. S.   Osc.(frdel)
         1        -0.0249     -0.0060     -0.0000      0.0309      0.0206

 Excitation energies and oscillator strengths:
 
 Excited State   1:      Singlet-A'     2.6220 eV  472.86 nm  f=0.0184  <S**2>=0.000
      47 -> 48         0.70345
 This state for optimization and/or second-order correction.
 Total Energy, E(TD-HF/TD-DFT) =  -539.655030837    
 Copying the excited state density for this state as the 1-particle RhoCI density.
 SavETr:  write IOETrn=   770 NScale= 10 NData=  16 NLR=1 NState=    1 LETran=      28.

 **********************************************************************

            Population analysis using the SCF Density.

 **********************************************************************

 Orbital symmetries:
       Occupied  (A') (A') (A') (A') (A') (A') (A') (A') (A') (A')
                 (A') (A') (A') (A') (A') (A') (A') (A') (A') (A')
                 (A') (A') (A') (A') (A') (A') (A') (A') (A') (A')
                 (A') (A") (A') (A') (A') (A') (A') (A") (A') (A")
                 (A') (A') (A') (A") (A") (A") (A")
       Virtual   (A") (A") (A") (A") (A') (A') (A') (A') (A") (A')
                 (A') (A") (A') (A') (A") (A') (A") (A') (A') (A')
                 (A") (A") (A') (A') (A') (A") (A') (A") (A') (A')
                 (A") (A') (A") (A') (A') (A') (A') (A') (A") (A')
                 (A") (A') (A') (A") (A") (A') (A") (A') (A") (A')
                 (A') (A') (A') (A') (A') (A") (A') (A') (A') (A')
                 (A') (A") (A') (A') (A') (A") (A') (A') (A') (A')
                 (A') (A') (A') (A') (A') (A') (A') (A') (A') (A')
                 (A') (A') (A') (A') (A') (A') (A') (A') (A') (A')
                 (A') (A') (A') (A') (A") (A') (A") (A") (A') (A")
                 (A') (A') (A') (A') (A") (A") (A') (A") (A") (A')
                 (A') (A") (A') (A') (A") (A') (A') (A") (A') (A")
                 (A") (A') (A") (A') (A') (A') (A") (A') (A') (A')
                 (A') (A') (A') (A') (A') (A') (A') (A') (A') (A')
                 (A') (A') (A') (A") (A') (A') (A') (A') (A') (A')
                 (A') (A") (A') (A') (A") (A') (A") (A") (A') (A")
                 (A") (A') (A') (A") (A') (A") (A") (A") (A') (A')
                 (A') (A') (A") (A') (A') (A") (A') (A') (A') (A")
                 (A') (A') (A') (A") (A") (A') (A') (A") (A") (A')
                 (A") (A') (A') (A") (A') (A") (A') (A') (A') (A')
                 (A") (A") (A") (A') (A") (A') (A') (A") (A') (A')
                 (A') (A") (A') (A") (A") (A') (A") (A') (A') (A")
                 (A') (A') (A') (A') (A") (A') (A') (A') (A") (A")
                 (A') (A') (A') (A") (A') (A') (A') (A") (A") (A')
                 (A") (A') (A') (A") (A') (A') (A') (A') (A') (A')
                 (A") (A') (A') (A') (A') (A") (A") (A") (A') (A')
                 (A') (A') (A') (A') (A') (A') (A') (A") (A') (A')
                 (A') (A") (A') (A") (A") (A") (A') (A") (A') (A")
                 (A') (A") (A") (A') (A") (A") (A') (A') (A') (A')
                 (A') (A') (A') (A') (A') (A') (A') (A') (A') (A')
                 (A') (A') (A') (A") (A') (A') (A') (A') (A') (A')
                 (A') (A') (A') (A') (A') (A') (A') (A') (A') (A')
                 (A') (A') (A') (A') (A') (A') (A') (A') (A') (A')
                 (A') (A')
 The electronic state is 1-A'.
 Alpha  occ. eigenvalues --  -10.77547 -10.73860 -10.72897 -10.72573 -10.72210
 Alpha  occ. eigenvalues --  -10.71941 -10.71856 -10.70983 -10.70719 -10.70264
 Alpha  occ. eigenvalues --  -10.69990 -10.69910 -10.69680 -10.69259  -1.16589
 Alpha  occ. eigenvalues --   -1.12482  -1.06935  -1.05915  -1.01277  -1.00502
 Alpha  occ. eigenvalues --   -0.95497  -0.91021  -0.86452  -0.85891  -0.83768
 Alpha  occ. eigenvalues --   -0.78310  -0.76187  -0.74353  -0.69847  -0.69344
 Alpha  occ. eigenvalues --   -0.68254  -0.68083  -0.68033  -0.65401  -0.64232
 Alpha  occ. eigenvalues --   -0.62685  -0.61498  -0.60548  -0.59180  -0.59166
 Alpha  occ. eigenvalues --   -0.56961  -0.55268  -0.54466  -0.52440  -0.47497
 Alpha  occ. eigenvalues --   -0.46133  -0.43605
 Alpha virt. eigenvalues --   -0.26107  -0.14667  -0.14068  -0.12755  -0.11196
 Alpha virt. eigenvalues --   -0.10098  -0.09269  -0.07953  -0.07909  -0.07488
 Alpha virt. eigenvalues --   -0.07217  -0.07132  -0.05647  -0.05572  -0.05361
 Alpha virt. eigenvalues --   -0.03859  -0.03672  -0.03271  -0.03131  -0.02152
 Alpha virt. eigenvalues --   -0.01343  -0.00967   0.00183   0.00593   0.00642
 Alpha virt. eigenvalues --    0.01068   0.01499   0.01927   0.02121   0.02304
 Alpha virt. eigenvalues --    0.02448   0.02676   0.02814   0.03216   0.03462
 Alpha virt. eigenvalues --    0.04211   0.04496   0.04731   0.05042   0.05399
 Alpha virt. eigenvalues --    0.06019   0.06289   0.06572   0.07063   0.07276
 Alpha virt. eigenvalues --    0.07910   0.08056   0.08349   0.08679   0.08901
 Alpha virt. eigenvalues --    0.09466   0.09591   0.09946   0.10803   0.10953
 Alpha virt. eigenvalues --    0.11130   0.12075   0.12249   0.12638   0.13046
 Alpha virt. eigenvalues --    0.13486   0.13524   0.13969   0.14296   0.15799
 Alpha virt. eigenvalues --    0.16354   0.16529   0.17323   0.17399   0.17762
 Alpha virt. eigenvalues --    0.18133   0.19060   0.19371   0.19711   0.19992
 Alpha virt. eigenvalues --    0.21467   0.21678   0.22649   0.23206   0.23582
 Alpha virt. eigenvalues --    0.23979   0.24506   0.25435   0.26957   0.27626
 Alpha virt. eigenvalues --    0.28877   0.29246   0.29965   0.31358   0.35769
 Alpha virt. eigenvalues --    0.36498   0.38226   0.39286   0.41010   0.41235
 Alpha virt. eigenvalues --    0.41994   0.42063   0.42983   0.43724   0.44433
 Alpha virt. eigenvalues --    0.44740   0.45154   0.45838   0.46462   0.47851
 Alpha virt. eigenvalues --    0.48350   0.48759   0.49038   0.50571   0.51101
 Alpha virt. eigenvalues --    0.51200   0.52154   0.52172   0.52739   0.54134
 Alpha virt. eigenvalues --    0.54214   0.54600   0.55607   0.56040   0.57571
 Alpha virt. eigenvalues --    0.58216   0.59034   0.61537   0.62275   0.62466
 Alpha virt. eigenvalues --    0.63148   0.63470   0.64944   0.65175   0.67585
 Alpha virt. eigenvalues --    0.70262   0.70432   0.71303   0.72569   0.72938
 Alpha virt. eigenvalues --    0.75499   0.76072   0.76474   0.76708   0.77127
 Alpha virt. eigenvalues --    0.77889   0.78078   0.78330   0.79928   0.80392
 Alpha virt. eigenvalues --    0.81235   0.81525   0.82517   0.82988   0.85286
 Alpha virt. eigenvalues --    0.87004   0.87986   0.88194   0.89396   0.90688
 Alpha virt. eigenvalues --    0.91061   0.91522   0.93360   0.94591   0.96236
 Alpha virt. eigenvalues --    0.97011   1.00019   1.01297   1.01450   1.02774
 Alpha virt. eigenvalues --    1.02895   1.03317   1.04949   1.06692   1.08975
 Alpha virt. eigenvalues --    1.19608   1.22825   1.23955   1.24190   1.29135
 Alpha virt. eigenvalues --    1.29302   1.32462   1.34241   1.35752   1.35949
 Alpha virt. eigenvalues --    1.39303   1.39482   1.40738   1.42875   1.43370
 Alpha virt. eigenvalues --    1.43432   1.44330   1.46377   1.46561   1.47239
 Alpha virt. eigenvalues --    1.47734   1.48337   1.51840   1.53709   1.55731
 Alpha virt. eigenvalues --    1.55843   1.56258   1.56595   1.57860   1.61518
 Alpha virt. eigenvalues --    1.62840   1.63381   1.64309   1.66091   1.68266
 Alpha virt. eigenvalues --    1.68431   1.68720   1.69881   1.74460   1.76058
 Alpha virt. eigenvalues --    1.77203   1.78107   1.79802   1.79966   1.80965
 Alpha virt. eigenvalues --    1.82715   1.83178   1.83641   1.83818   1.84177
 Alpha virt. eigenvalues --    1.84698   1.85360   1.86526   1.88440   1.91458
 Alpha virt. eigenvalues --    1.92213   1.94051   1.95437   1.97853   1.98174
 Alpha virt. eigenvalues --    1.99863   2.02491   2.04644   2.07347   2.11696
 Alpha virt. eigenvalues --    2.12249   2.14348   2.15294   2.19091   2.21242
 Alpha virt. eigenvalues --    2.22712   2.28373   2.30431   2.34422   2.34737
 Alpha virt. eigenvalues --    2.36424   2.38553   2.39724   2.42329   2.44386
 Alpha virt. eigenvalues --    2.46103   2.46602   2.49134   2.52994   2.53786
 Alpha virt. eigenvalues --    2.54364   2.56842   2.57966   2.58484   2.59358
 Alpha virt. eigenvalues --    2.59959   2.61514   2.62162   2.63601   2.63715
 Alpha virt. eigenvalues --    2.64872   2.65040   2.65070   2.65699   2.68001
 Alpha virt. eigenvalues --    2.68376   2.70927   2.71501   2.73397   2.74813
 Alpha virt. eigenvalues --    2.76270   2.78328   2.79627   2.83287   2.83307
 Alpha virt. eigenvalues --    2.84872   2.86297   2.92141   2.97155   2.99392
 Alpha virt. eigenvalues --    3.00209   3.05044   3.09036   3.11164   3.14488
 Alpha virt. eigenvalues --    3.20462   3.21798   3.25984   3.29049   3.30889
 Alpha virt. eigenvalues --    3.32860   3.35020   3.44193   3.46420   3.46918
 Alpha virt. eigenvalues --    3.48379   3.50075   3.56477   3.65483   3.67145
 Alpha virt. eigenvalues --    3.68140   3.93368   3.93937   3.95315   3.96645
 Alpha virt. eigenvalues --    4.03884   4.06355   4.07767   4.12522   4.35259
 Alpha virt. eigenvalues --    4.60873   4.68892   4.70969  23.45163  23.59899
 Alpha virt. eigenvalues --   23.79233  23.81400  23.84398  23.89331  23.92200
 Alpha virt. eigenvalues --   23.95154  23.96110  23.98132  24.04615  24.07713
 Alpha virt. eigenvalues --   24.11771  24.14317
          Condensed to atoms (all electrons):
               1          2          3          4          5          6
     1  C    9.075566  -0.082548  -0.341776   2.321611  -0.097291  -0.108590
     2  C   -0.082548   7.206779   0.213762  -1.222585   0.020667  -0.012880
     3  C   -0.341776   0.213762   6.604387   0.841641  -0.144030   0.016877
     4  C    2.321611  -1.222585   0.841641  10.576740  -0.373345  -0.109214
     5  C   -0.097291   0.020667  -0.144030  -0.373345  11.605391   0.700554
     6  C   -0.108590  -0.012880   0.016877  -0.109214   0.700554   6.617085
     7  C    0.001480   0.000119  -0.015539  -0.046529  -0.958289   0.439214
     8  C    0.412604  -0.038566  -0.082108   0.006938   1.668255  -0.676925
     9  C   -1.131979  -0.774202   0.292436  -0.470581   0.094002   0.292230
    10  C   -1.410350   0.372828  -0.459811  -2.327162  -2.831166  -0.239743
    11  C    0.289907  -1.014890   1.139321  -0.333576  -1.609455  -0.239384
    12  C   -2.694815   1.841128  -1.534934  -1.620863  -0.496807  -0.096581
    13  C    0.297312  -0.322924  -0.094632  -1.396867  -0.330595   0.859173
    14  C   -1.042962  -0.047827  -0.308817  -0.189796  -1.625831  -1.327803
    15  H    0.370665  -0.108559   0.001955   0.030264   0.004271   0.000943
    16  H   -0.015855   0.371740  -0.010542   0.009157  -0.001267  -0.000288
    17  H   -0.034158  -0.005400   0.366017  -0.065521   0.000503   0.000378
    18  H    0.054718   0.001670  -0.084157   0.452652   0.006270  -0.005298
    19  H   -0.048855  -0.007364   0.051742  -0.060044  -0.084710   0.051109
    20  H    0.007063   0.002118  -0.004989   0.006265   0.468359  -0.083305
    21  H   -0.001436  -0.000364   0.000415   0.000075  -0.070134   0.382538
    22  H    0.001129   0.000409  -0.000365  -0.001720   0.018059  -0.022609
    23  H    0.004737  -0.002976   0.001274   0.006613   0.024116  -0.003730
    24  H    0.026101   0.012468  -0.001839  -0.013504  -0.010994  -0.001205
    25  H    0.026101   0.012468  -0.001839  -0.013504  -0.010994  -0.001205
               7          8          9         10         11         12
     1  C    0.001480   0.412604  -1.131979  -1.410350   0.289907  -2.694815
     2  C    0.000119  -0.038566  -0.774202   0.372828  -1.014890   1.841128
     3  C   -0.015539  -0.082108   0.292436  -0.459811   1.139321  -1.534934
     4  C   -0.046529   0.006938  -0.470581  -2.327162  -0.333576  -1.620863
     5  C   -0.958289   1.668255   0.094002  -2.831166  -1.609455  -0.496807
     6  C    0.439214  -0.676925   0.292230  -0.239743  -0.239384  -0.096581
     7  C    7.190226   0.587322  -0.874916   0.132022  -0.207196  -0.321772
     8  C    0.587322   8.307787  -1.166939  -1.168739   0.187601  -1.166837
     9  C   -0.874916  -1.166939   9.666872   0.242418   1.465681  -1.695758
    10  C    0.132022  -1.168739   0.242418   9.128044  -0.524644   2.480459
    11  C   -0.207196   0.187601   1.465681  -0.524644  14.293851  -3.225452
    12  C   -0.321772  -1.166837  -1.695758   2.480459  -3.225452  15.855767
    13  C   -0.769907   0.336693   1.652147  -0.310059   1.046714  -4.835734
    14  C    0.962418  -1.698256  -2.168520   2.374062  -4.693662   3.083640
    15  H   -0.002209   0.007069   0.097184  -0.011656  -0.035115  -0.039847
    16  H    0.000302   0.000313   0.004275  -0.007674   0.026065  -0.033396
    17  H   -0.000422  -0.001219  -0.006658   0.020365  -0.027239   0.098340
    18  H    0.002014   0.006906  -0.026400   0.015703  -0.002057  -0.067781
    19  H   -0.008451  -0.042740   0.074750   0.422834   0.083569  -0.040859
    20  H    0.003788   0.046087  -0.022037   0.006483  -0.012460  -0.022944
    21  H   -0.023783  -0.018219  -0.004552   0.019894  -0.006328   0.005199
    22  H    0.383317  -0.020042   0.001590  -0.010738   0.003507  -0.010746
    23  H   -0.105178   0.366314   0.086569  -0.007246  -0.004553   0.007798
    24  H    0.016155   0.038651   0.357055   0.005575  -0.001177  -0.060045
    25  H    0.016155   0.038651   0.357055   0.005575  -0.001177  -0.060045
              13         14         15         16         17         18
     1  C    0.297312  -1.042962   0.370665  -0.015855  -0.034158   0.054718
     2  C   -0.322924  -0.047827  -0.108559   0.371740  -0.005400   0.001670
     3  C   -0.094632  -0.308817   0.001955  -0.010542   0.366017  -0.084157
     4  C   -1.396867  -0.189796   0.030264   0.009157  -0.065521   0.452652
     5  C   -0.330595  -1.625831   0.004271  -0.001267   0.000503   0.006270
     6  C    0.859173  -1.327803   0.000943  -0.000288   0.000378  -0.005298
     7  C   -0.769907   0.962418  -0.002209   0.000302  -0.000422   0.002014
     8  C    0.336693  -1.698256   0.007069   0.000313  -0.001219   0.006906
     9  C    1.652147  -2.168520   0.097184   0.004275  -0.006658  -0.026400
    10  C   -0.310059   2.374062  -0.011656  -0.007674   0.020365   0.015703
    11  C    1.046714  -4.693662  -0.035115   0.026065  -0.027239  -0.002057
    12  C   -4.835734   3.083640  -0.039847  -0.033396   0.098340  -0.067781
    13  C   14.621995  -4.180363   0.009043   0.002282  -0.006255  -0.012181
    14  C   -4.180363  16.364973   0.004187  -0.007240   0.005306  -0.006441
    15  H    0.009043   0.004187   0.445957  -0.008830   0.001158   0.000025
    16  H    0.002282  -0.007240  -0.008830   0.422873  -0.005760   0.001871
    17  H   -0.006255   0.005306   0.001158  -0.005760   0.425381  -0.010397
    18  H   -0.012181  -0.006441   0.000025   0.001871  -0.010397   0.460376
    19  H    0.076877  -0.092277   0.000201  -0.000461   0.001057  -0.007016
    20  H   -0.010018  -0.045615  -0.000099   0.000010  -0.000114   0.001264
    21  H   -0.024882   0.083667   0.000009  -0.000007   0.000010  -0.000172
    22  H    0.024802  -0.029558  -0.000132   0.000007  -0.000007   0.000021
    23  H   -0.029366  -0.009636   0.000568  -0.000123   0.000018  -0.000129
    24  H    0.027453  -0.059321  -0.000859   0.000632  -0.000151   0.000232
    25  H    0.027453  -0.059321  -0.000859   0.000632  -0.000151   0.000232
              19         20         21         22         23         24
     1  C   -0.048855   0.007063  -0.001436   0.001129   0.004737   0.026101
     2  C   -0.007364   0.002118  -0.000364   0.000409  -0.002976   0.012468
     3  C    0.051742  -0.004989   0.000415  -0.000365   0.001274  -0.001839
     4  C   -0.060044   0.006265   0.000075  -0.001720   0.006613  -0.013504
     5  C   -0.084710   0.468359  -0.070134   0.018059   0.024116  -0.010994
     6  C    0.051109  -0.083305   0.382538  -0.022609  -0.003730  -0.001205
     7  C   -0.008451   0.003788  -0.023783   0.383317  -0.105178   0.016155
     8  C   -0.042740   0.046087  -0.018219  -0.020042   0.366314   0.038651
     9  C    0.074750  -0.022037  -0.004552   0.001590   0.086569   0.357055
    10  C    0.422834   0.006483   0.019894  -0.010738  -0.007246   0.005575
    11  C    0.083569  -0.012460  -0.006328   0.003507  -0.004553  -0.001177
    12  C   -0.040859  -0.022944   0.005199  -0.010746   0.007798  -0.060045
    13  C    0.076877  -0.010018  -0.024882   0.024802  -0.029366   0.027453
    14  C   -0.092277  -0.045615   0.083667  -0.029558  -0.009636  -0.059321
    15  H    0.000201  -0.000099   0.000009  -0.000132   0.000568  -0.000859
    16  H   -0.000461   0.000010  -0.000007   0.000007  -0.000123   0.000632
    17  H    0.001057  -0.000114   0.000010  -0.000007   0.000018  -0.000151
    18  H   -0.007016   0.001264  -0.000172   0.000021  -0.000129   0.000232
    19  H    0.444327  -0.005669   0.001805  -0.000620   0.000439   0.000603
    20  H   -0.005669   0.447053  -0.009994   0.001983   0.000250   0.000131
    21  H    0.001805  -0.009994   0.419022  -0.007148   0.001705  -0.000131
    22  H   -0.000620   0.001983  -0.007148   0.415056  -0.008799   0.000623
    23  H    0.000439   0.000250   0.001705  -0.008799   0.432887  -0.000932
    24  H    0.000603   0.000131  -0.000131   0.000623  -0.000932   0.493463
    25  H    0.000603   0.000131  -0.000131   0.000623  -0.000932  -0.079501
              25
     1  C    0.026101
     2  C    0.012468
     3  C   -0.001839
     4  C   -0.013504
     5  C   -0.010994
     6  C   -0.001205
     7  C    0.016155
     8  C    0.038651
     9  C    0.357055
    10  C    0.005575
    11  C   -0.001177
    12  C   -0.060045
    13  C    0.027453
    14  C   -0.059321
    15  H   -0.000859
    16  H    0.000632
    17  H   -0.000151
    18  H    0.000232
    19  H    0.000603
    20  H    0.000131
    21  H   -0.000131
    22  H    0.000623
    23  H   -0.000932
    24  H   -0.079501
    25  H    0.493463
 Mulliken charges:
               1
     1  C    0.121621
     2  C   -0.415069
     3  C   -0.444446
     4  C   -0.007144
     5  C    0.034462
     6  C   -0.431342
     7  C   -0.400342
     8  C    0.069399
     9  C   -0.341722
    10  C    0.082725
    11  C   -0.597852
    12  C    0.652887
    13  C   -0.658161
    14  C    0.714994
    15  H    0.234663
    16  H    0.251284
    17  H    0.244918
    18  H    0.218073
    19  H    0.189151
    20  H    0.226258
    21  H    0.252939
    22  H    0.261358
    23  H    0.240314
    24  H    0.250517
    25  H    0.250517
 Sum of Mulliken charges =   1.00000
 Mulliken charges with hydrogens summed into heavy atoms:
               1
     1  C    0.356283
     2  C   -0.163785
     3  C   -0.199528
     4  C    0.210929
     5  C    0.260720
     6  C   -0.178403
     7  C   -0.138985
     8  C    0.309713
     9  C    0.159312
    10  C    0.271876
    11  C   -0.597852
    12  C    0.652887
    13  C   -0.658161
    14  C    0.714994
 Electronic spatial extent (au):  <R**2>=           2855.9136
 Charge=              1.0000 electrons
 Dipole moment (field-independent basis, Debye):
    X=             -0.7846    Y=             -0.9894    Z=             -0.0000  Tot=              1.2628
 Quadrupole moment (field-independent basis, Debye-Ang):
   XX=            -49.0526   YY=            -38.2049   ZZ=            -84.1274
   XY=             11.4513   XZ=             -0.0000   YZ=              0.0000
 Traceless Quadrupole moment (field-independent basis, Debye-Ang):
   XX=              8.0757   YY=             18.9234   ZZ=            -26.9992
   XY=             11.4513   XZ=             -0.0000   YZ=              0.0000
 Octapole moment (field-independent basis, Debye-Ang**2):
  XXX=             -5.0167  YYY=            -15.6296  ZZZ=              0.0000  XYY=             -3.1853
  XXY=              1.7776  XXZ=              0.0000  XZZ=              1.7094  YZZ=             -3.1487
  YYZ=              0.0000  XYZ=             -0.0000
 Hexadecapole moment (field-independent basis, Debye-Ang**3):
 XXXX=          -1083.4415 YYYY=          -1772.3141 ZZZZ=            -99.3048 XXXY=           -368.0412
 XXXZ=             -0.0000 YYYX=           -304.6845 YYYZ=             -0.0000 ZZZX=              0.0000
 ZZZY=             -0.0000 XXYY=           -444.7420 XXZZ=           -267.0030 YYZZ=           -469.2936
 XXYZ=             -0.0000 YYXZ=              0.0000 ZZXY=           -198.1302
 N-N= 7.813101467998D+02 E-N=-2.798985645935D+03  KE= 5.375443623305D+02
 Symmetry A'   KE= 5.228880920808D+02
 Symmetry A"   KE= 1.465627024971D+01
 Unable to Open any file for archive entry.
 1\1\GINC-GADI-CPU-CLX-0648\SP\RM062X TD-FC\6-311++G(d,p)\C14H11(1+)\TS
 1578\27-Jul-2022\0\\#n M062X/6-311++G(d,p) TD(NStates=1) EmpiricalDisp
 ersion=GD3 SP\\SP_100\\1,1\C,0,2.52305,1.3679,0.\C,0,3.738275,0.69665,
 0.\C,0,3.6941,-0.67695,0.\C,0,2.428075,-1.378375,0.\C,0,-2.498275,-1.4
 19325,0.\C,0,-3.6734,-0.73275,0.\C,0,-3.66425,0.664925,0.\C,0,-2.4614,
 1.3706,0.\C,0,0.0197,1.461,0.\C,0,-0.0549,-1.42045,0.\C,0,1.25385,0.66
 8475,0.\C,0,1.2151,-0.719475,0.\C,0,-1.270275,0.7029,0.\C,0,-1.2601,-0
 .724875,0.\H,0,2.497,2.45145,0.\H,0,4.673975,1.233525,0.\H,0,4.6027,-1
 .2644,0.\H,0,2.45115,-2.46145,0.\H,0,-0.050625,-2.501575,0.\H,0,-2.484
 ,-2.501275,0.\H,0,-4.61575,-1.262375,0.\H,0,-4.59905,1.20765,0.\H,0,-2
 .4781,2.453475,0.\H,0,0.072,2.15425,-0.859325\H,0,0.072,2.15425,0.8593
 25\\Version=ES64L-G16RevC.01\State=1-A'\HF=-539.7513882\RMSD=3.294e-09
 \PG=CS [SG(C14H9),X(H2)]\\@
 The archive entry for this job was punched.


 AS FAR AS THE LAWS OF MATHEMATICS REFER TO REALITY,
 THEY ARE NOT CERTAIN; AND AS FAR AS THEY ARE CERTAIN,
 THEY DO NOT REFER TO REALITY.

                                         -- ALBERT EINSTEIN
 Job cpu time:       0 days  0 hours 46 minutes 26.0 seconds.
 Elapsed time:       0 days  0 hours  1 minutes 27.3 seconds.
 File lengths (MBytes):  RWF=    460 Int=      0 D2E=      0 Chk=     15 Scr=      1
 Normal termination of Gaussian 16 at Wed Jul 27 12:14:31 2022.
