 Entering Gaussian System, Link 0=g16
 Initial command:
 /apps/gaussian/g16c01/g16/l1.exe "/jobfs/52804872.gadi-pbs/Gau-1413499.inp" -scrdir="/jobfs/52804872.gadi-pbs/"
 Entering Link 1 = /apps/gaussian/g16c01/g16/l1.exe PID=   1413500.
  
 Copyright (c) 1988-2019, Gaussian, Inc.  All Rights Reserved.
  
 This is part of the Gaussian(R) 16 program.  It is based on
 the Gaussian(R) 09 system (copyright 2009, Gaussian, Inc.),
 the Gaussian(R) 03 system (copyright 2003, Gaussian, Inc.),
 the Gaussian(R) 98 system (copyright 1998, Gaussian, Inc.),
 the Gaussian(R) 94 system (copyright 1995, Gaussian, Inc.),
 the Gaussian 92(TM) system (copyright 1992, Gaussian, Inc.),
 the Gaussian 90(TM) system (copyright 1990, Gaussian, Inc.),
 the Gaussian 88(TM) system (copyright 1988, Gaussian, Inc.),
 the Gaussian 86(TM) system (copyright 1986, Carnegie Mellon
 University), and the Gaussian 82(TM) system (copyright 1983,
 Carnegie Mellon University). Gaussian is a federally registered
 trademark of Gaussian, Inc.
  
 This software contains proprietary and confidential information,
 including trade secrets, belonging to Gaussian, Inc.
  
 This software is provided under written license and may be
 used, copied, transmitted, or stored only in accord with that
 written license.
  
 The following legend is applicable only to US Government
 contracts under FAR:
  
                    RESTRICTED RIGHTS LEGEND
  
 Use, reproduction and disclosure by the US Government is
 subject to restrictions as set forth in subparagraphs (a)
 and (c) of the Commercial Computer Software - Restricted
 Rights clause in FAR 52.227-19.
  
 Gaussian, Inc.
 340 Quinnipiac St., Bldg. 40, Wallingford CT 06492
  
  
 ---------------------------------------------------------------
 Warning -- This program may not be used in any manner that
 competes with the business of Gaussian, Inc. or will provide
 assistance to any competitor of Gaussian, Inc.  The licensee
 of this program is prohibited from giving any competitor of
 Gaussian, Inc. access to this program.  By using this program,
 the user acknowledges that Gaussian, Inc. is engaged in the
 business of creating and licensing software in the field of
 computational chemistry and represents and warrants to the
 licensee that it is not a competitor of Gaussian, Inc. and that
 it will not use this program in any manner prohibited above.
 ---------------------------------------------------------------
  

 Cite this work as:
 Gaussian 16, Revision C.01,
 M. J. Frisch, G. W. Trucks, H. B. Schlegel, G. E. Scuseria, 
 M. A. Robb, J. R. Cheeseman, G. Scalmani, V. Barone, 
 G. A. Petersson, H. Nakatsuji, X. Li, M. Caricato, A. V. Marenich, 
 J. Bloino, B. G. Janesko, R. Gomperts, B. Mennucci, H. P. Hratchian, 
 J. V. Ortiz, A. F. Izmaylov, J. L. Sonnenberg, D. Williams-Young, 
 F. Ding, F. Lipparini, F. Egidi, J. Goings, B. Peng, A. Petrone, 
 T. Henderson, D. Ranasinghe, V. G. Zakrzewski, J. Gao, N. Rega, 
 G. Zheng, W. Liang, M. Hada, M. Ehara, K. Toyota, R. Fukuda, 
 J. Hasegawa, M. Ishida, T. Nakajima, Y. Honda, O. Kitao, H. Nakai, 
 T. Vreven, K. Throssell, J. A. Montgomery, Jr., J. E. Peralta, 
 F. Ogliaro, M. J. Bearpark, J. J. Heyd, E. N. Brothers, K. N. Kudin, 
 V. N. Staroverov, T. A. Keith, R. Kobayashi, J. Normand, 
 K. Raghavachari, A. P. Rendell, J. C. Burant, S. S. Iyengar, 
 J. Tomasi, M. Cossi, J. M. Millam, M. Klene, C. Adamo, R. Cammi, 
 J. W. Ochterski, R. L. Martin, K. Morokuma, O. Farkas, 
 J. B. Foresman, and D. J. Fox, Gaussian, Inc., Wallingford CT, 2019.
 
 ******************************************
 Gaussian 16:  ES64L-G16RevC.01  3-Jul-2019
                27-Jul-2022 
 ******************************************
 %NProcShared=32
 Will use up to   32 processors via shared memory.
 %mem = 128GB
 ---------------------------------------------------------------
 #n M062X/6-311++G(d,p) TD(NStates=1) EmpiricalDispersion=GD3 SP
 ---------------------------------------------------------------
 1/38=1,172=1/1;
 2/12=2,17=6,18=5,40=1/2;
 3/5=4,6=6,7=1111,11=9,25=1,30=1,74=-55,124=31/1,2,3,8;
 4//1;
 5/5=2,38=5/2;
 8/6=1,10=2,108=1/1;
 9/41=1,42=1,70=2/14;
 6/7=2,8=2,9=2,10=2/1;
 99/5=1,9=1/99;
 ------
 SP_-75
 ------
 Symbolic Z-matrix:
 Charge =  1 Multiplicity = 1
 C                     2.481     1.37      0. 
 C                     3.68845   0.67568   0. 
 C                     3.68     -0.71365   0. 
 C                     2.47483  -1.40558   0. 
 C                    -2.45143  -1.39193   0. 
 C                    -3.6869   -0.69505   0. 
 C                    -3.71313   0.68625   0. 
 C                    -2.50155   1.3691    0. 
 C                    -0.00653   1.4588    0. 
 C                     0.0183   -1.42035   0. 
 C                     1.26473   0.6914    0. 
 C                     1.2453   -0.72323   0. 
 C                    -1.25925   0.67993   0. 
 C                    -1.2303   -0.72143   0. 
 H                     2.4833    2.45312   0. 
 H                     4.62345   1.21665   0. 
 H                     4.61125  -1.26243   0. 
 H                     2.4732   -2.48793   0. 
 H                     0.01688  -2.50152   0. 
 H                    -2.46225  -2.47465   0. 
 H                    -4.6069   -1.2631    0. 
 H                    -4.64843   1.22528   0. 
 H                    -2.4896    2.45245   0. 
 H                    -0.024     2.15375  -0.85878 
 H                    -0.024     2.15375   0.85878 
 
                          Input orientation:                          
 ---------------------------------------------------------------------
 Center     Atomic      Atomic             Coordinates (Angstroms)
 Number     Number       Type             X           Y           Z
 ---------------------------------------------------------------------
      1          6           0        2.481000    1.370000    0.000000
      2          6           0        3.688450    0.675675    0.000000
      3          6           0        3.680000   -0.713650    0.000000
      4          6           0        2.474825   -1.405575    0.000000
      5          6           0       -2.451425   -1.391925    0.000000
      6          6           0       -3.686900   -0.695050    0.000000
      7          6           0       -3.713125    0.686250    0.000000
      8          6           0       -2.501550    1.369100    0.000000
      9          6           0       -0.006525    1.458800    0.000000
     10          6           0        0.018300   -1.420350    0.000000
     11          6           0        1.264725    0.691400    0.000000
     12          6           0        1.245300   -0.723225    0.000000
     13          6           0       -1.259250    0.679925    0.000000
     14          6           0       -1.230300   -0.721425    0.000000
     15          1           0        2.483300    2.453125    0.000000
     16          1           0        4.623450    1.216650    0.000000
     17          1           0        4.611250   -1.262425    0.000000
     18          1           0        2.473200   -2.487925    0.000000
     19          1           0        0.016875   -2.501525    0.000000
     20          1           0       -2.462250   -2.474650    0.000000
     21          1           0       -4.606900   -1.263100    0.000000
     22          1           0       -4.648425    1.225275    0.000000
     23          1           0       -2.489600    2.452450    0.000000
     24          1           0       -0.024000    2.153750   -0.858775
     25          1           0       -0.024000    2.153750    0.858775
 ---------------------------------------------------------------------
                    Distance matrix (angstroms):
                    1          2          3          4          5
     1  C    0.000000
     2  C    1.392847   0.000000
     3  C    2.403996   1.389351   0.000000
     4  C    2.775582   2.409250   1.389679   0.000000
     5  C    5.653056   6.478660   6.168827   4.926269   0.000000
     6  C    6.504416   7.501645   7.366923   6.202556   1.418462
     7  C    6.231749   7.401583   7.524494   6.531957   2.431193
     8  C    4.982550   6.228719   6.522991   5.697642   2.761480
     9  C    2.489109   3.777052   4.279019   3.789689   3.755552
    10  C    3.721686   4.226502   3.729272   2.456569   2.469889
    11  C    1.392775   2.423776   2.794230   2.421084   4.260283
    12  C    2.430750   2.815298   2.434719   1.406177   3.756719
    13  C    3.803377   4.947702   5.132080   4.276988   2.390365
    14  C    4.260024   5.113315   4.910306   3.767760   1.393096
    15  H    1.083127   2.147490   3.385344   3.858709   6.255871
    16  H    2.147931   1.080222   2.148524   3.390082   7.540459
    17  H    3.386388   2.146577   1.080917   2.141215   7.063862
    18  H    3.857933   3.388982   2.145791   1.082351   5.045111
    19  H    4.589185   4.855416   4.076148   2.691212   2.706237
    20  H    6.262352   6.910547   6.389707   5.051498   1.082779
    21  H    7.561187   8.518901   8.305095   7.083158   2.159321
    22  H    7.130894   8.354971   8.551146   7.593554   3.417096
    23  H    5.087098   6.428470   6.934562   6.287279   3.844565
    24  H    2.761663   4.087112   4.762257   4.432879   4.381974
    25  H    2.761663   4.087112   4.762257   4.432879   4.381974
                    6          7          8          9         10
     6  C    0.000000
     7  C    1.381549   0.000000
     8  C    2.380288   1.390755   0.000000
     9  C    4.264297   3.786254   2.496637   0.000000
    10  C    3.775522   4.285008   3.759079   2.879257   0.000000
    11  C    5.142065   4.977853   3.826762   1.484917   2.452155
    12  C    4.932280   5.154862   4.291469   2.515611   1.411210
    13  C    2.789989   2.453883   1.420659   1.475116   2.458310
    14  C    2.456742   2.854114   2.446706   2.500201   1.430908
    15  H    6.926931   6.443410   5.101357   2.681028   4.591300
    16  H    8.527398   8.353431   7.126631   4.636303   5.306710
    17  H    8.317524   8.549418   7.583986   5.359936   4.595664
    18  H    6.415702   6.953129   6.294822   4.661081   2.676985
    19  H    4.120837   4.906609   4.617814   3.960394   1.081176
    20  H    2.160265   3.399408   3.843951   4.637091   2.695306
    21  H    1.081240   2.144481   3.370605   5.345296   4.627872
    22  H    2.147598   1.079506   2.151687   4.647770   5.364481
    23  H    3.367534   2.148599   1.083416   2.674510   4.613907
    24  H    4.719109   4.062105   2.737047   1.104878   3.676068
    25  H    4.719109   4.062105   2.737047   1.104878   3.676068
                   11         12         13         14         15
    11  C    0.000000
    12  C    1.414758   0.000000
    13  C    2.524001   2.870819   0.000000
    14  C    2.867268   2.475601   1.401649   0.000000
    15  H    2.142102   3.409082   4.141367   4.885549   0.000000
    16  H    3.399547   3.895512   5.907134   6.166241   2.471662
    17  H    3.875134   3.408864   6.183486   5.866548   4.281762
    18  H    3.401253   2.149862   4.895555   4.103222   4.941060
    19  H    3.428104   2.161337   3.427845   2.173523   5.534601
    20  H    4.890216   4.100417   3.376174   2.142778   6.981506
    21  H    6.188380   5.877049   3.870673   3.419772   8.005077
    22  H    5.937202   6.207467   3.432771   3.933601   7.236651
    23  H    4.146837   4.902488   2.157685   3.414574   4.972900
    24  H    2.129970   3.259694   2.106062   3.234082   2.667147
    25  H    2.129970   3.259694   2.106062   3.234082   2.667147
                   16         17         18         19         20
    16  H    0.000000
    17  H    2.479105   0.000000
    18  H    4.283392   2.464368   0.000000
    19  H    5.919912   4.758534   2.456363   0.000000
    20  H    7.989546   7.176621   4.935468   2.479271   0.000000
    21  H    9.557642   9.218150   7.185264   4.786752   2.463205
    22  H    9.271879   9.588025   8.031525   5.971102   4.297535
    23  H    7.219604   8.013886   7.002620   5.551962   4.927176
    24  H    4.818137   5.821794   5.340285   4.733999   5.301381
    25  H    4.818137   5.821794   5.340285   4.733999   5.301381
                   21         22         23         24         25
    21  H    0.000000
    22  H    2.488721   0.000000
    23  H    4.276479   2.483241   0.000000
    24  H    5.780600   4.794254   2.627908   0.000000
    25  H    5.780600   4.794254   2.627908   1.717550   0.000000
 Stoichiometry    C14H11(1+)
 Framework group  CS[SG(C14H9),X(H2)]
 Deg. of freedom    46
 Full point group                 CS      NOp   2
 Largest Abelian subgroup         CS      NOp   2
 Largest concise Abelian subgroup CS      NOp   2
                         Standard orientation:                         
 ---------------------------------------------------------------------
 Center     Atomic      Atomic             Coordinates (Angstroms)
 Number     Number       Type             X           Y           Z
 ---------------------------------------------------------------------
      1          6           0       -2.368613   -1.549054    0.000000
      2          6           0       -2.324001   -2.941186    0.000000
      3          6           0       -1.094063   -3.587367    0.000000
      4          6           0        0.083502   -2.849433    0.000000
      5          6           0        2.389116    1.503987    0.000000
      6          6           0        2.355439    2.922049    0.000000
      7          6           0        1.148896    3.595052    0.000000
      8          6           0       -0.023672    2.847201    0.000000
      9          6           0       -1.276662    0.687754    0.000000
     10          6           0        1.252264   -0.688709    0.000000
     11          6           0       -1.197583   -0.795056    0.000000
     12          6           0        0.059842   -1.443455    0.000000
     13          6           0        0.000000    1.426740    0.000000
     14          6           0        1.222953    0.741899    0.000000
     15          1           0       -3.325461   -1.041504    0.000000
     16          1           0       -3.241256   -3.511731    0.000000
     17          1           0       -1.047942   -4.667299    0.000000
     18          1           0        1.039349   -3.357214    0.000000
     19          1           0        2.206980   -1.196114    0.000000
     20          1           0        3.349622    1.004148    0.000000
     21          1           0        3.289528    3.466620    0.000000
     22          1           0        1.113284    4.673971    0.000000
     23          1           0       -0.985259    3.346341    0.000000
     24          1           0       -1.881675    1.030128    0.858775
     25          1           0       -1.881675    1.030128   -0.858775
 ---------------------------------------------------------------------
 Rotational constants (GHZ):           2.1373553           0.4447680           0.3689563
 Standard basis: 6-311++G(d,p) (5D, 7F)
 There are   299 symmetry adapted cartesian basis functions of A'  symmetry.
 There are   100 symmetry adapted cartesian basis functions of A"  symmetry.
 There are   285 symmetry adapted basis functions of A'  symmetry.
 There are   100 symmetry adapted basis functions of A"  symmetry.
   385 basis functions,   603 primitive gaussians,   399 cartesian basis functions
    47 alpha electrons       47 beta electrons
       nuclear repulsion energy       781.3493914272 Hartrees.
 NAtoms=   25 NActive=   25 NUniq=   24 SFac= 1.09D+00 NAtFMM=   60 NAOKFM=F Big=F
 Integral buffers will be    131072 words long.
 Regular integral format.
 Two-electron integral symmetry is turned on.
 Nuclear repulsion after empirical dispersion term =      781.3484120434 Hartrees.
 One-electron integrals computed using PRISM.
 NBasis=   385 RedAO= T EigKep=  1.12D-06  NBF=   285   100
 NBsUse=   379 1.00D-06 EigRej=  8.36D-07 NBFU=   279   100
 ExpMin= 3.60D-02 ExpMax= 4.56D+03 ExpMxC= 6.82D+02 IAcc=3 IRadAn=         5 AccDes= 0.00D+00
 Harris functional with IExCor= 1009 and IRadAn=       5 diagonalized for initial guess.
 HarFok:  IExCor= 1009 AccDes= 0.00D+00 IRadAn=         5 IDoV= 1 UseB2=F ITyADJ=14
 ICtDFT=  3500011 ScaDFX=  1.000000  1.000000  1.000000  1.000000
 FoFCou: FMM=F IPFlag=           0 FMFlag=      100000 FMFlg1=           0
         NFxFlg=           0 DoJE=T BraDBF=F KetDBF=T FulRan=T
         wScrn=  0.000000 ICntrl=       500 IOpCl=  0 I1Cent=   200000004 NGrid=           0
         NMat0=    1 NMatS0=      1 NMatT0=    0 NMatD0=    1 NMtDS0=    0 NMtDT0=    0
 Petite list used in FoFCou.
 Initial guess orbital symmetries:
       Occupied  (A') (A') (A') (A') (A') (A') (A') (A') (A') (A')
                 (A') (A') (A') (A') (A') (A') (A') (A') (A') (A')
                 (A') (A') (A') (A') (A') (A') (A') (A') (A') (A')
                 (A') (A') (A") (A') (A') (A') (A') (A') (A') (A")
                 (A") (A') (A') (A") (A") (A") (A")
       Virtual   (A") (A") (A") (A") (A") (A') (A') (A') (A') (A")
                 (A") (A') (A') (A') (A") (A') (A') (A') (A') (A")
                 (A') (A") (A') (A') (A') (A") (A') (A") (A') (A')
                 (A') (A') (A') (A") (A') (A') (A") (A') (A') (A")
                 (A') (A') (A') (A") (A') (A') (A') (A') (A') (A")
                 (A') (A') (A") (A") (A') (A') (A') (A") (A") (A')
                 (A') (A') (A') (A') (A') (A') (A") (A') (A') (A")
                 (A') (A') (A') (A') (A') (A') (A') (A') (A') (A')
                 (A') (A') (A') (A') (A') (A') (A') (A') (A') (A')
                 (A') (A') (A') (A') (A') (A') (A') (A") (A') (A")
                 (A') (A') (A") (A") (A') (A") (A') (A") (A') (A")
                 (A") (A') (A') (A') (A") (A') (A') (A") (A") (A')
                 (A") (A") (A') (A') (A') (A") (A') (A') (A') (A")
                 (A') (A') (A') (A') (A') (A') (A") (A') (A') (A')
                 (A') (A') (A') (A') (A') (A') (A') (A') (A') (A")
                 (A") (A') (A") (A") (A') (A') (A') (A") (A") (A')
                 (A") (A') (A") (A") (A") (A') (A') (A') (A') (A')
                 (A') (A") (A') (A") (A') (A') (A') (A') (A') (A")
                 (A') (A') (A') (A') (A") (A') (A") (A') (A") (A")
                 (A') (A") (A') (A") (A') (A') (A') (A") (A') (A')
                 (A") (A") (A") (A') (A') (A") (A') (A") (A') (A')
                 (A") (A") (A') (A") (A') (A") (A') (A') (A') (A")
                 (A') (A') (A') (A') (A") (A') (A') (A') (A") (A")
                 (A') (A') (A') (A") (A') (A') (A") (A') (A") (A')
                 (A") (A') (A') (A') (A') (A") (A') (A') (A') (A")
                 (A') (A') (A") (A') (A") (A') (A') (A") (A') (A')
                 (A') (A") (A') (A") (A') (A') (A') (A") (A') (A")
                 (A') (A') (A') (A') (A") (A') (A") (A') (A") (A')
                 (A") (A') (A") (A") (A") (A') (A') (A') (A') (A')
                 (A') (A') (A') (A') (A') (A') (A') (A') (A') (A')
                 (A') (A') (A') (A') (A") (A') (A') (A') (A') (A')
                 (A') (A') (A') (A') (A') (A') (A') (A') (A') (A')
                 (A') (A') (A') (A') (A') (A') (A') (A') (A') (A')
                 (A') (A')
 The electronic state of the initial guess is 1-A'.
 Requested convergence on RMS density matrix=1.00D-08 within 128 cycles.
 Requested convergence on MAX density matrix=1.00D-06.
 Requested convergence on             energy=1.00D-06.
 No special actions if energy rises.
 SCF Done:  E(RM062X) =  -539.759182575     A.U. after   15 cycles
            NFock= 15  Conv=0.68D-08     -V/T= 2.0042
 DoSCS=F DFT=T ScalE2(SS,OS)=  1.000000  1.000000
 ExpMin= 3.60D-02 ExpMax= 4.56D+03 ExpMxC= 6.82D+02 IAcc=3 IRadAn=         5 AccDes= 0.00D+00
 HarFok:  IExCor=  205 AccDes= 0.00D+00 IRadAn=         5 IDoV=-2 UseB2=F ITyADJ=14
 ICtDFT= 12500011 ScaDFX=  1.000000  1.000000  1.000000  1.000000
 Range of M.O.s used for correlation:    15   379
 NBasis=   385 NAE=    47 NBE=    47 NFC=    14 NFV=     0
 NROrb=    365 NOA=    33 NOB=    33 NVA=   332 NVB=   332

 **** Warning!!: The largest alpha MO coefficient is  0.14321299D+03

 Orbital symmetries:
       Occupied  (A') (A') (A') (A') (A') (A') (A') (A') (A') (A')
                 (A') (A') (A') (A') (A') (A') (A') (A') (A') (A')
                 (A') (A') (A') (A') (A') (A') (A') (A') (A') (A')
                 (A') (A') (A") (A') (A') (A') (A') (A") (A") (A')
                 (A') (A') (A') (A") (A") (A") (A")
       Virtual   (A") (A") (A") (A") (A') (A') (A') (A') (A") (A')
                 (A') (A") (A') (A') (A") (A') (A") (A') (A') (A')
                 (A") (A") (A') (A') (A') (A") (A') (A") (A') (A')
                 (A") (A') (A") (A') (A') (A') (A') (A') (A") (A')
                 (A") (A') (A') (A") (A") (A') (A") (A') (A") (A')
                 (A') (A') (A') (A') (A') (A") (A') (A') (A') (A')
                 (A') (A") (A') (A') (A') (A") (A') (A') (A') (A')
                 (A') (A') (A') (A') (A') (A') (A') (A') (A') (A')
                 (A') (A') (A') (A') (A') (A') (A') (A') (A') (A')
                 (A') (A') (A') (A') (A") (A') (A") (A") (A') (A")
                 (A') (A') (A') (A') (A") (A") (A') (A") (A") (A')
                 (A') (A') (A") (A') (A') (A") (A') (A") (A') (A")
                 (A") (A') (A") (A') (A') (A') (A") (A') (A') (A')
                 (A') (A') (A') (A') (A') (A') (A') (A') (A') (A')
                 (A') (A') (A') (A") (A') (A') (A') (A') (A') (A')
                 (A') (A') (A") (A') (A") (A') (A") (A") (A') (A")
                 (A") (A') (A') (A") (A") (A") (A') (A") (A') (A')
                 (A') (A') (A') (A") (A") (A') (A') (A') (A') (A")
                 (A') (A') (A') (A") (A') (A") (A') (A') (A") (A")
                 (A") (A') (A') (A") (A') (A") (A') (A') (A') (A')
                 (A") (A") (A") (A') (A") (A') (A') (A") (A') (A')
                 (A') (A") (A') (A") (A") (A') (A") (A') (A') (A")
                 (A') (A') (A') (A') (A") (A') (A') (A') (A") (A")
                 (A') (A') (A') (A") (A') (A') (A') (A") (A") (A')
                 (A") (A') (A') (A") (A') (A') (A') (A') (A') (A')
                 (A") (A') (A') (A') (A') (A") (A") (A") (A') (A')
                 (A') (A') (A') (A') (A') (A') (A") (A') (A') (A')
                 (A') (A") (A') (A") (A") (A") (A') (A") (A') (A")
                 (A') (A") (A") (A') (A") (A") (A') (A') (A') (A')
                 (A') (A') (A') (A') (A') (A') (A') (A') (A') (A')
                 (A') (A') (A') (A") (A') (A') (A') (A') (A') (A')
                 (A') (A') (A') (A') (A') (A') (A') (A') (A') (A')
                 (A') (A') (A') (A') (A') (A') (A') (A') (A') (A')
                 (A') (A')
     4 initial guesses have been made.
 Convergence on wavefunction:    0.001000000000000
 Iteration     1 Dimension     4 NMult     0 NNew      4
 CISAX will form     4 AO SS matrices at one time.
 Iteration     2 Dimension     6 NMult     4 NNew      2
 Iteration     3 Dimension     8 NMult     6 NNew      2
 Iteration     4 Dimension    10 NMult     8 NNew      2
 Iteration     5 Dimension    12 NMult    10 NNew      2
 Iteration     6 Dimension    14 NMult    12 NNew      2
 ***********************************************************************
 Excited states from <AA,BB:AA,BB> singles matrix:
 ***********************************************************************
 
 Ground to excited state transition densities written to RWF  633
 Ground to excited state transition electric dipole moments (Au):
       state          X           Y           Z        Dip. S.      Osc.
         1        -0.5389      0.3086      0.0000      0.3857      0.0264
 Ground to excited state transition velocity dipole moments (Au):
       state          X           Y           Z        Dip. S.      Osc.
         1         0.0629     -0.0334     -0.0000      0.0051      0.0329
 Ground to excited state transition magnetic dipole moments (Au):
       state          X           Y           Z
         1        -0.0000     -0.0000     -0.1141
 Ground to excited state transition velocity quadrupole moments (Au):
       state          XX          YY          ZZ          XY          XZ          YZ
         1         0.1289      0.1856     -0.0094      0.1314      0.0000     -0.0000
 <0|del|b> * <b|rxdel|0> + <0|del|b> * <b|delr+rdel|0>
 Rotatory Strengths (R) in cgs (10**-40 erg-esu-cm/Gauss)
       state          XX          YY          ZZ    R(velocity)    E-M Angle
         1         0.0000      0.0000      0.0000      0.0000       90.00
 1/2[<0|r|b>*<b|rxdel|0> + (<0|rxdel|b>*<b|r|0>)*]
 Rotatory Strengths (R) in cgs (10**-40 erg-esu-cm/Gauss)
       state          XX          YY          ZZ     R(length)
         1        -0.0000      0.0000      0.0000      0.0000
  1/2[<0|del|b>*<b|r|0> + (<0|r|b>*<b|del|0>)*] (Au)
       state          X           Y           Z        Dip. S.   Osc.(frdel)
         1        -0.0339     -0.0103     -0.0000      0.0442      0.0295

 Excitation energies and oscillator strengths:
 
 Excited State   1:      Singlet-A'     2.7920 eV  444.07 nm  f=0.0264  <S**2>=0.000
      47 -> 48         0.70396
 This state for optimization and/or second-order correction.
 Total Energy, E(TD-HF/TD-DFT) =  -539.656577627    
 Copying the excited state density for this state as the 1-particle RhoCI density.
 SavETr:  write IOETrn=   770 NScale= 10 NData=  16 NLR=1 NState=    1 LETran=      28.

 **********************************************************************

            Population analysis using the SCF Density.

 **********************************************************************

 Orbital symmetries:
       Occupied  (A') (A') (A') (A') (A') (A') (A') (A') (A') (A')
                 (A') (A') (A') (A') (A') (A') (A') (A') (A') (A')
                 (A') (A') (A') (A') (A') (A') (A') (A') (A') (A')
                 (A') (A') (A") (A') (A') (A') (A') (A") (A") (A')
                 (A') (A') (A') (A") (A") (A") (A")
       Virtual   (A") (A") (A") (A") (A') (A') (A') (A') (A") (A')
                 (A') (A") (A') (A') (A") (A') (A") (A') (A') (A')
                 (A") (A") (A') (A') (A') (A") (A') (A") (A') (A')
                 (A") (A') (A") (A') (A') (A') (A') (A') (A") (A')
                 (A") (A') (A') (A") (A") (A') (A") (A') (A") (A')
                 (A') (A') (A') (A') (A') (A") (A') (A') (A') (A')
                 (A') (A") (A') (A') (A') (A") (A') (A') (A') (A')
                 (A') (A') (A') (A') (A') (A') (A') (A') (A') (A')
                 (A') (A') (A') (A') (A') (A') (A') (A') (A') (A')
                 (A') (A') (A') (A') (A") (A') (A") (A") (A') (A")
                 (A') (A') (A') (A') (A") (A") (A') (A") (A") (A')
                 (A') (A') (A") (A') (A') (A") (A') (A") (A') (A")
                 (A") (A') (A") (A') (A') (A') (A") (A') (A') (A')
                 (A') (A') (A') (A') (A') (A') (A') (A') (A') (A')
                 (A') (A') (A') (A") (A') (A') (A') (A') (A') (A')
                 (A') (A') (A") (A') (A") (A') (A") (A") (A') (A")
                 (A") (A') (A') (A") (A") (A") (A') (A") (A') (A')
                 (A') (A') (A') (A") (A") (A') (A') (A') (A') (A")
                 (A') (A') (A') (A") (A') (A") (A') (A') (A") (A")
                 (A") (A') (A') (A") (A') (A") (A') (A') (A') (A')
                 (A") (A") (A") (A') (A") (A') (A') (A") (A') (A')
                 (A') (A") (A') (A") (A") (A') (A") (A') (A') (A")
                 (A') (A') (A') (A') (A") (A') (A') (A') (A") (A")
                 (A') (A') (A') (A") (A') (A') (A') (A") (A") (A')
                 (A") (A') (A') (A") (A') (A') (A') (A') (A') (A')
                 (A") (A') (A') (A') (A') (A") (A") (A") (A') (A')
                 (A') (A') (A') (A') (A') (A') (A") (A') (A') (A')
                 (A') (A") (A') (A") (A") (A") (A') (A") (A') (A")
                 (A') (A") (A") (A') (A") (A") (A') (A') (A') (A')
                 (A') (A') (A') (A') (A') (A') (A') (A') (A') (A')
                 (A') (A') (A') (A") (A') (A') (A') (A') (A') (A')
                 (A') (A') (A') (A') (A') (A') (A') (A') (A') (A')
                 (A') (A') (A') (A') (A') (A') (A') (A') (A') (A')
                 (A') (A')
 The electronic state is 1-A'.
 Alpha  occ. eigenvalues --  -10.77648 -10.73435 -10.73003 -10.72598 -10.72248
 Alpha  occ. eigenvalues --  -10.71569 -10.71399 -10.71157 -10.70970 -10.70627
 Alpha  occ. eigenvalues --  -10.70069 -10.69874 -10.69748 -10.69501  -1.16477
 Alpha  occ. eigenvalues --   -1.12480  -1.06944  -1.05779  -1.01310  -1.00245
 Alpha  occ. eigenvalues --   -0.95744  -0.91060  -0.86425  -0.85906  -0.83817
 Alpha  occ. eigenvalues --   -0.78392  -0.76063  -0.74412  -0.69592  -0.69262
 Alpha  occ. eigenvalues --   -0.68476  -0.68179  -0.68093  -0.64850  -0.64276
 Alpha  occ. eigenvalues --   -0.63025  -0.61827  -0.60106  -0.59568  -0.59099
 Alpha  occ. eigenvalues --   -0.56915  -0.55228  -0.54797  -0.52436  -0.46757
 Alpha  occ. eigenvalues --   -0.46077  -0.44356
 Alpha virt. eigenvalues --   -0.26083  -0.14671  -0.14093  -0.12771  -0.11181
 Alpha virt. eigenvalues --   -0.10090  -0.09235  -0.07979  -0.07959  -0.07478
 Alpha virt. eigenvalues --   -0.07207  -0.07145  -0.05642  -0.05582  -0.05337
 Alpha virt. eigenvalues --   -0.03831  -0.03650  -0.03279  -0.03132  -0.02163
 Alpha virt. eigenvalues --   -0.01366  -0.00935   0.00188   0.00593   0.00670
 Alpha virt. eigenvalues --    0.01059   0.01510   0.01936   0.02205   0.02287
 Alpha virt. eigenvalues --    0.02450   0.02672   0.02757   0.03274   0.03389
 Alpha virt. eigenvalues --    0.04236   0.04506   0.04698   0.05030   0.05369
 Alpha virt. eigenvalues --    0.06029   0.06298   0.06595   0.07052   0.07254
 Alpha virt. eigenvalues --    0.07896   0.08152   0.08365   0.08564   0.08925
 Alpha virt. eigenvalues --    0.09533   0.09573   0.10034   0.10872   0.11038
 Alpha virt. eigenvalues --    0.11115   0.12168   0.12250   0.12869   0.13007
 Alpha virt. eigenvalues --    0.13424   0.13523   0.14017   0.14368   0.16138
 Alpha virt. eigenvalues --    0.16331   0.16390   0.17344   0.17603   0.17796
 Alpha virt. eigenvalues --    0.18128   0.19055   0.19269   0.19638   0.19777
 Alpha virt. eigenvalues --    0.21553   0.21620   0.22722   0.23123   0.23568
 Alpha virt. eigenvalues --    0.23802   0.24552   0.25303   0.26924   0.27613
 Alpha virt. eigenvalues --    0.28860   0.29296   0.29887   0.31367   0.35835
 Alpha virt. eigenvalues --    0.36451   0.38186   0.39280   0.41146   0.41384
 Alpha virt. eigenvalues --    0.41985   0.42172   0.42983   0.43702   0.44312
 Alpha virt. eigenvalues --    0.44895   0.45071   0.46033   0.46244   0.47916
 Alpha virt. eigenvalues --    0.48510   0.48868   0.49020   0.50447   0.51199
 Alpha virt. eigenvalues --    0.51495   0.51833   0.52118   0.52898   0.54005
 Alpha virt. eigenvalues --    0.54093   0.54659   0.55673   0.55793   0.57428
 Alpha virt. eigenvalues --    0.58239   0.58840   0.61459   0.62186   0.62363
 Alpha virt. eigenvalues --    0.63211   0.63491   0.64997   0.65160   0.67342
 Alpha virt. eigenvalues --    0.70391   0.70555   0.71071   0.72437   0.72885
 Alpha virt. eigenvalues --    0.75726   0.76036   0.76326   0.76869   0.77106
 Alpha virt. eigenvalues --    0.77854   0.77920   0.78262   0.79878   0.80400
 Alpha virt. eigenvalues --    0.81261   0.81612   0.82190   0.83015   0.85212
 Alpha virt. eigenvalues --    0.87155   0.88202   0.88536   0.89150   0.90466
 Alpha virt. eigenvalues --    0.91112   0.91279   0.93211   0.94633   0.96412
 Alpha virt. eigenvalues --    0.96710   1.00354   1.01297   1.01655   1.02738
 Alpha virt. eigenvalues --    1.03212   1.03635   1.04762   1.05640   1.08803
 Alpha virt. eigenvalues --    1.19572   1.23204   1.24096   1.25093   1.28257
 Alpha virt. eigenvalues --    1.29594   1.31879   1.34271   1.35780   1.36001
 Alpha virt. eigenvalues --    1.39370   1.40078   1.40950   1.42974   1.43514
 Alpha virt. eigenvalues --    1.43519   1.44707   1.45932   1.46376   1.46669
 Alpha virt. eigenvalues --    1.47650   1.48061   1.51772   1.53637   1.55806
 Alpha virt. eigenvalues --    1.55888   1.56344   1.56567   1.57805   1.61477
 Alpha virt. eigenvalues --    1.63200   1.63400   1.63882   1.66126   1.68346
 Alpha virt. eigenvalues --    1.68350   1.68677   1.69737   1.74423   1.76006
 Alpha virt. eigenvalues --    1.77201   1.78055   1.80055   1.80134   1.80755
 Alpha virt. eigenvalues --    1.83110   1.83202   1.83642   1.83832   1.84152
 Alpha virt. eigenvalues --    1.84337   1.85739   1.86189   1.88257   1.91403
 Alpha virt. eigenvalues --    1.92105   1.94131   1.95242   1.97715   1.98170
 Alpha virt. eigenvalues --    1.99773   2.02539   2.04464   2.07268   2.11807
 Alpha virt. eigenvalues --    2.12101   2.14139   2.15226   2.19140   2.21301
 Alpha virt. eigenvalues --    2.22787   2.28551   2.30289   2.34658   2.34943
 Alpha virt. eigenvalues --    2.36248   2.38668   2.39609   2.42379   2.44498
 Alpha virt. eigenvalues --    2.46173   2.46652   2.49357   2.52938   2.53813
 Alpha virt. eigenvalues --    2.54328   2.56739   2.57860   2.58320   2.59600
 Alpha virt. eigenvalues --    2.59857   2.61605   2.62156   2.63559   2.63811
 Alpha virt. eigenvalues --    2.64795   2.65125   2.65170   2.65420   2.68028
 Alpha virt. eigenvalues --    2.68571   2.70964   2.71425   2.73355   2.74825
 Alpha virt. eigenvalues --    2.76299   2.78827   2.79728   2.82994   2.83098
 Alpha virt. eigenvalues --    2.84898   2.86328   2.92130   2.97005   2.99507
 Alpha virt. eigenvalues --    3.00096   3.05253   3.10809   3.11468   3.13387
 Alpha virt. eigenvalues --    3.21028   3.23643   3.26757   3.28405   3.30686
 Alpha virt. eigenvalues --    3.32805   3.33872   3.43497   3.45972   3.46737
 Alpha virt. eigenvalues --    3.48584   3.50196   3.56548   3.65496   3.66976
 Alpha virt. eigenvalues --    3.67541   3.94130   3.94394   3.95260   3.96280
 Alpha virt. eigenvalues --    4.04009   4.06850   4.07592   4.12536   4.35604
 Alpha virt. eigenvalues --    4.61522   4.69772   4.71588  23.45315  23.60500
 Alpha virt. eigenvalues --   23.81912  23.85033  23.87422  23.89192  23.90797
 Alpha virt. eigenvalues --   23.93336  23.97044  23.98486  24.00805  24.02086
 Alpha virt. eigenvalues --   24.10675  24.11105
          Condensed to atoms (all electrons):
               1          2          3          4          5          6
     1  C    8.458796   0.456014  -0.603812   1.820890  -0.003818  -0.090451
     2  C    0.456014   7.115587   0.395726  -1.009966  -0.032692  -0.015176
     3  C   -0.603812   0.395726   6.592220   0.733185  -0.117073   0.016920
     4  C    1.820890  -1.009966   0.733185  11.103306  -0.338389  -0.127946
     5  C   -0.003818  -0.032692  -0.117073  -0.338389  10.773648   0.777761
     6  C   -0.090451  -0.015176   0.016920  -0.127946   0.777761   6.583791
     7  C   -0.028082   0.002349  -0.014260  -0.011308  -1.096235   0.324439
     8  C    0.406004  -0.015027  -0.099583  -0.036029   2.043132  -0.498202
     9  C   -1.213614  -0.810127   0.290503  -0.144494  -0.332463   0.289375
    10  C   -1.220871   0.202405  -0.319304  -2.651159  -2.485981  -0.391807
    11  C    0.283641  -0.882242   0.966208  -0.250887  -1.465974  -0.151297
    12  C   -1.831346   1.186583  -1.353008  -1.537252  -0.276312  -0.235076
    13  C    0.175442  -0.225617  -0.199703  -1.538689  -0.260222   1.063764
    14  C   -1.101574  -0.244286  -0.166018  -0.382289  -1.544087  -1.420368
    15  H    0.365644  -0.104214  -0.002534   0.025896   0.006201   0.001157
    16  H   -0.019918   0.380028  -0.018327   0.015177  -0.001614  -0.000340
    17  H   -0.021393  -0.019460   0.377268  -0.067937   0.000230   0.000402
    18  H    0.048074   0.003202  -0.084700   0.458534   0.006936  -0.004972
    19  H   -0.045535  -0.007794   0.050811  -0.074531  -0.066581   0.051004
    20  H    0.007281   0.001989  -0.005086   0.006853   0.453734  -0.084823
    21  H   -0.001286  -0.000408   0.000391   0.000396  -0.066590   0.371859
    22  H    0.000565   0.000344  -0.000316  -0.001479   0.012153  -0.014195
    23  H    0.006236  -0.002571   0.001045   0.005479   0.027982  -0.000736
    24  H    0.034417   0.014999  -0.001400  -0.011920  -0.012701  -0.001609
    25  H    0.034417   0.014999  -0.001400  -0.011920  -0.012701  -0.001609
               7          8          9         10         11         12
     1  C   -0.028082   0.406004  -1.213614  -1.220871   0.283641  -1.831346
     2  C    0.002349  -0.015027  -0.810127   0.202405  -0.882242   1.186583
     3  C   -0.014260  -0.099583   0.290503  -0.319304   0.966208  -1.353008
     4  C   -0.011308  -0.036029  -0.144494  -2.651159  -0.250887  -1.537252
     5  C   -1.096235   2.043132  -0.332463  -2.485981  -1.465974  -0.276312
     6  C    0.324439  -0.498202   0.289375  -0.391807  -0.151297  -0.235076
     7  C    7.112267   0.245252  -0.774606   0.282569  -0.261604  -0.155303
     8  C    0.245252   8.686000  -1.199081  -1.304492   0.200711  -1.050340
     9  C   -0.774606  -1.199081   9.631457   0.254545   1.708580  -2.046166
    10  C    0.282569  -1.304492   0.254545   9.204245  -0.458275   2.411659
    11  C   -0.261604   0.200711   1.708580  -0.458275  14.601852  -3.944800
    12  C   -0.155303  -1.050340  -2.046166   2.411659  -3.944800  16.137506
    13  C   -0.967296   0.275513   1.642040  -0.535489   1.088016  -4.810048
    14  C    1.471723  -2.153381  -1.888062   2.451287  -4.850266   3.028836
    15  H   -0.002803   0.005479   0.090002  -0.008857  -0.029402  -0.019508
    16  H    0.000378   0.000836   0.003465  -0.010095   0.027631  -0.033528
    17  H   -0.000388  -0.001356  -0.005466   0.020405  -0.027239   0.088709
    18  H    0.002009   0.007368  -0.024393   0.012864  -0.009495  -0.049365
    19  H   -0.007396  -0.047833   0.075960   0.422188   0.076756  -0.074111
    20  H    0.002699   0.050878  -0.025821   0.015698  -0.011868  -0.010636
    21  H   -0.013492  -0.026671  -0.006207   0.020762  -0.006337   0.005348
    22  H    0.376332  -0.018632   0.004332  -0.009130   0.002911  -0.008550
    23  H   -0.105162   0.366878   0.093440  -0.010359   0.003730   0.006082
    24  H    0.013730   0.030081   0.357171   0.005511   0.018276  -0.059645
    25  H    0.013730   0.030081   0.357171   0.005511   0.018276  -0.059645
              13         14         15         16         17         18
     1  C    0.175442  -1.101574   0.365644  -0.019918  -0.021393   0.048074
     2  C   -0.225617  -0.244286  -0.104214   0.380028  -0.019460   0.003202
     3  C   -0.199703  -0.166018  -0.002534  -0.018327   0.377268  -0.084700
     4  C   -1.538689  -0.382289   0.025896   0.015177  -0.067937   0.458534
     5  C   -0.260222  -1.544087   0.006201  -0.001614   0.000230   0.006936
     6  C    1.063764  -1.420368   0.001157  -0.000340   0.000402  -0.004972
     7  C   -0.967296   1.471723  -0.002803   0.000378  -0.000388   0.002009
     8  C    0.275513  -2.153381   0.005479   0.000836  -0.001356   0.007368
     9  C    1.642040  -1.888062   0.090002   0.003465  -0.005466  -0.024393
    10  C   -0.535489   2.451287  -0.008857  -0.010095   0.020405   0.012864
    11  C    1.088016  -4.850266  -0.029402   0.027631  -0.027239  -0.009495
    12  C   -4.810048   3.028836  -0.019508  -0.033528   0.088709  -0.049365
    13  C   14.528692  -3.649426  -0.000615   0.003261  -0.006331  -0.011957
    14  C   -3.649426  15.998585   0.007110  -0.009673   0.005236  -0.016039
    15  H   -0.000615   0.007110   0.436602  -0.008946   0.001551   0.000224
    16  H    0.003261  -0.009673  -0.008946   0.417933  -0.006849   0.001933
    17  H   -0.006331   0.005236   0.001551  -0.006849   0.421320  -0.010118
    18  H   -0.011957  -0.016039   0.000224   0.001933  -0.010118   0.451043
    19  H    0.079545  -0.056710   0.000341  -0.000561   0.001532  -0.005932
    20  H   -0.006828  -0.056989  -0.000117   0.000016  -0.000152   0.001276
    21  H   -0.028413   0.093993   0.000015  -0.000007   0.000010  -0.000132
    22  H    0.028166  -0.034979  -0.000125   0.000007  -0.000007   0.000013
    23  H   -0.031244  -0.029358   0.000592  -0.000128   0.000012  -0.000106
    24  H    0.008551  -0.060136  -0.000908   0.000627  -0.000138   0.000160
    25  H    0.008551  -0.060136  -0.000908   0.000627  -0.000138   0.000160
              19         20         21         22         23         24
     1  C   -0.045535   0.007281  -0.001286   0.000565   0.006236   0.034417
     2  C   -0.007794   0.001989  -0.000408   0.000344  -0.002571   0.014999
     3  C    0.050811  -0.005086   0.000391  -0.000316   0.001045  -0.001400
     4  C   -0.074531   0.006853   0.000396  -0.001479   0.005479  -0.011920
     5  C   -0.066581   0.453734  -0.066590   0.012153   0.027982  -0.012701
     6  C    0.051004  -0.084823   0.371859  -0.014195  -0.000736  -0.001609
     7  C   -0.007396   0.002699  -0.013492   0.376332  -0.105162   0.013730
     8  C   -0.047833   0.050878  -0.026671  -0.018632   0.366878   0.030081
     9  C    0.075960  -0.025821  -0.006207   0.004332   0.093440   0.357171
    10  C    0.422188   0.015698   0.020762  -0.009130  -0.010359   0.005511
    11  C    0.076756  -0.011868  -0.006337   0.002911   0.003730   0.018276
    12  C   -0.074111  -0.010636   0.005348  -0.008550   0.006082  -0.059645
    13  C    0.079545  -0.006828  -0.028413   0.028166  -0.031244   0.008551
    14  C   -0.056710  -0.056989   0.093993  -0.034979  -0.029358  -0.060136
    15  H    0.000341  -0.000117   0.000015  -0.000125   0.000592  -0.000908
    16  H   -0.000561   0.000016  -0.000007   0.000007  -0.000128   0.000627
    17  H    0.001532  -0.000152   0.000010  -0.000007   0.000012  -0.000138
    18  H   -0.005932   0.001276  -0.000132   0.000013  -0.000106   0.000160
    19  H    0.442797  -0.006380   0.001282  -0.000507   0.000258   0.000610
    20  H   -0.006380   0.455536  -0.010284   0.001897   0.000149   0.000195
    21  H    0.001282  -0.010284   0.423479  -0.006392   0.001371  -0.000145
    22  H   -0.000507   0.001897  -0.006392   0.420610  -0.008962   0.000631
    23  H    0.000258   0.000149   0.001371  -0.008962   0.440957  -0.000887
    24  H    0.000610   0.000195  -0.000145   0.000631  -0.000887   0.494312
    25  H    0.000610   0.000195  -0.000145   0.000631  -0.000887  -0.080201
              25
     1  C    0.034417
     2  C    0.014999
     3  C   -0.001400
     4  C   -0.011920
     5  C   -0.012701
     6  C   -0.001609
     7  C    0.013730
     8  C    0.030081
     9  C    0.357171
    10  C    0.005511
    11  C    0.018276
    12  C   -0.059645
    13  C    0.008551
    14  C   -0.060136
    15  H   -0.000908
    16  H    0.000627
    17  H   -0.000138
    18  H    0.000160
    19  H    0.000610
    20  H    0.000195
    21  H   -0.000145
    22  H    0.000631
    23  H   -0.000887
    24  H   -0.080201
    25  H    0.494312
 Mulliken charges:
               1
     1  C    0.084280
     2  C   -0.404645
     3  C   -0.437752
     4  C    0.026481
     5  C    0.011657
     6  C   -0.441865
     7  C   -0.409539
     8  C    0.102413
     9  C   -0.327541
    10  C    0.096172
    11  C   -0.646900
    12  C    0.689917
    13  C   -0.629663
    14  C    0.667008
    15  H    0.238123
    16  H    0.258066
    17  H    0.250299
    18  H    0.223414
    19  H    0.190176
    20  H    0.220587
    21  H    0.247605
    22  H    0.254681
    23  H    0.236188
    24  H    0.250420
    25  H    0.250420
 Sum of Mulliken charges =   1.00000
 Mulliken charges with hydrogens summed into heavy atoms:
               1
     1  C    0.322404
     2  C   -0.146579
     3  C   -0.187453
     4  C    0.249894
     5  C    0.232244
     6  C   -0.194260
     7  C   -0.154858
     8  C    0.338600
     9  C    0.173299
    10  C    0.286347
    11  C   -0.646900
    12  C    0.689917
    13  C   -0.629663
    14  C    0.667008
 Electronic spatial extent (au):  <R**2>=           2854.9843
 Charge=              1.0000 electrons
 Dipole moment (field-independent basis, Debye):
    X=             -0.0363    Y=             -0.4565    Z=              0.0000  Tot=              0.4579
 Quadrupole moment (field-independent basis, Debye-Ang):
   XX=            -50.8638   YY=            -36.5140   ZZ=            -84.1397
   XY=             10.3245   XZ=             -0.0000   YZ=              0.0000
 Traceless Quadrupole moment (field-independent basis, Debye-Ang):
   XX=              6.3087   YY=             20.6585   ZZ=            -26.9672
   XY=             10.3245   XZ=             -0.0000   YZ=              0.0000
 Octapole moment (field-independent basis, Debye-Ang**2):
  XXX=             -1.0911  YYY=              1.5564  ZZZ=              0.0000  XYY=             -1.4543
  XXY=             -6.3228  XXZ=              0.0000  XZZ=             -3.0009  YZZ=              0.9095
  YYZ=              0.0000  XYZ=             -0.0000
 Hexadecapole moment (field-independent basis, Debye-Ang**3):
 XXXX=           -993.7945 YYYY=          -1844.2842 ZZZZ=            -99.3190 XXXY=           -349.4198
 XXXZ=             -0.0000 YYYX=           -276.3109 YYYZ=              0.0000 ZZZX=             -0.0000
 ZZZY=             -0.0000 XXYY=           -453.9323 XXZZ=           -243.0043 YYZZ=           -493.1987
 XXYZ=              0.0000 YYXZ=             -0.0000 ZZXY=           -183.9203
 N-N= 7.813484120434D+02 E-N=-2.799045731725D+03  KE= 5.375171719216D+02
 Symmetry A'   KE= 5.228689749770D+02
 Symmetry A"   KE= 1.464819694458D+01
 Unable to Open any file for archive entry.
 1\1\GINC-GADI-CPU-CLX-0648\SP\RM062X TD-FC\6-311++G(d,p)\C14H11(1+)\TS
 1578\27-Jul-2022\0\\#n M062X/6-311++G(d,p) TD(NStates=1) EmpiricalDisp
 ersion=GD3 SP\\SP_-75\\1,1\C,0,2.481,1.37,0.\C,0,3.68845,0.675675,0.\C
 ,0,3.68,-0.71365,0.\C,0,2.474825,-1.405575,0.\C,0,-2.451425,-1.391925,
 0.\C,0,-3.6869,-0.69505,0.\C,0,-3.713125,0.68625,0.\C,0,-2.50155,1.369
 1,0.\C,0,-0.006525,1.4588,0.\C,0,0.0183,-1.42035,0.\C,0,1.264725,0.691
 4,0.\C,0,1.2453,-0.723225,0.\C,0,-1.25925,0.679925,0.\C,0,-1.2303,-0.7
 21425,0.\H,0,2.4833,2.453125,0.\H,0,4.62345,1.21665,0.\H,0,4.61125,-1.
 262425,0.\H,0,2.4732,-2.487925,0.\H,0,0.016875,-2.501525,0.\H,0,-2.462
 25,-2.47465,0.\H,0,-4.6069,-1.2631,0.\H,0,-4.648425,1.225275,0.\H,0,-2
 .4896,2.45245,0.\H,0,-0.024,2.15375,-0.858775\H,0,-0.024,2.15375,0.858
 775\\Version=ES64L-G16RevC.01\State=1-A'\HF=-539.7591826\RMSD=6.769e-0
 9\PG=CS [SG(C14H9),X(H2)]\\@
 The archive entry for this job was punched.


 We find comfort among those who agree with us -- growth among those who don't.
 -- Frank A. Clark
 Job cpu time:       0 days  0 hours 46 minutes 18.9 seconds.
 Elapsed time:       0 days  0 hours  1 minutes 28.4 seconds.
 File lengths (MBytes):  RWF=    460 Int=      0 D2E=      0 Chk=     15 Scr=      1
 Normal termination of Gaussian 16 at Wed Jul 27 10:29:25 2022.
