 Entering Gaussian System, Link 0=g16
 Initial command:
 /apps/gaussian/g16c01/g16/l1.exe "/jobfs/52804872.gadi-pbs/Gau-1586289.inp" -scrdir="/jobfs/52804872.gadi-pbs/"
 Entering Link 1 = /apps/gaussian/g16c01/g16/l1.exe PID=   1586290.
  
 Copyright (c) 1988-2019, Gaussian, Inc.  All Rights Reserved.
  
 This is part of the Gaussian(R) 16 program.  It is based on
 the Gaussian(R) 09 system (copyright 2009, Gaussian, Inc.),
 the Gaussian(R) 03 system (copyright 2003, Gaussian, Inc.),
 the Gaussian(R) 98 system (copyright 1998, Gaussian, Inc.),
 the Gaussian(R) 94 system (copyright 1995, Gaussian, Inc.),
 the Gaussian 92(TM) system (copyright 1992, Gaussian, Inc.),
 the Gaussian 90(TM) system (copyright 1990, Gaussian, Inc.),
 the Gaussian 88(TM) system (copyright 1988, Gaussian, Inc.),
 the Gaussian 86(TM) system (copyright 1986, Carnegie Mellon
 University), and the Gaussian 82(TM) system (copyright 1983,
 Carnegie Mellon University). Gaussian is a federally registered
 trademark of Gaussian, Inc.
  
 This software contains proprietary and confidential information,
 including trade secrets, belonging to Gaussian, Inc.
  
 This software is provided under written license and may be
 used, copied, transmitted, or stored only in accord with that
 written license.
  
 The following legend is applicable only to US Government
 contracts under FAR:
  
                    RESTRICTED RIGHTS LEGEND
  
 Use, reproduction and disclosure by the US Government is
 subject to restrictions as set forth in subparagraphs (a)
 and (c) of the Commercial Computer Software - Restricted
 Rights clause in FAR 52.227-19.
  
 Gaussian, Inc.
 340 Quinnipiac St., Bldg. 40, Wallingford CT 06492
  
  
 ---------------------------------------------------------------
 Warning -- This program may not be used in any manner that
 competes with the business of Gaussian, Inc. or will provide
 assistance to any competitor of Gaussian, Inc.  The licensee
 of this program is prohibited from giving any competitor of
 Gaussian, Inc. access to this program.  By using this program,
 the user acknowledges that Gaussian, Inc. is engaged in the
 business of creating and licensing software in the field of
 computational chemistry and represents and warrants to the
 licensee that it is not a competitor of Gaussian, Inc. and that
 it will not use this program in any manner prohibited above.
 ---------------------------------------------------------------
  

 Cite this work as:
 Gaussian 16, Revision C.01,
 M. J. Frisch, G. W. Trucks, H. B. Schlegel, G. E. Scuseria, 
 M. A. Robb, J. R. Cheeseman, G. Scalmani, V. Barone, 
 G. A. Petersson, H. Nakatsuji, X. Li, M. Caricato, A. V. Marenich, 
 J. Bloino, B. G. Janesko, R. Gomperts, B. Mennucci, H. P. Hratchian, 
 J. V. Ortiz, A. F. Izmaylov, J. L. Sonnenberg, D. Williams-Young, 
 F. Ding, F. Lipparini, F. Egidi, J. Goings, B. Peng, A. Petrone, 
 T. Henderson, D. Ranasinghe, V. G. Zakrzewski, J. Gao, N. Rega, 
 G. Zheng, W. Liang, M. Hada, M. Ehara, K. Toyota, R. Fukuda, 
 J. Hasegawa, M. Ishida, T. Nakajima, Y. Honda, O. Kitao, H. Nakai, 
 T. Vreven, K. Throssell, J. A. Montgomery, Jr., J. E. Peralta, 
 F. Ogliaro, M. J. Bearpark, J. J. Heyd, E. N. Brothers, K. N. Kudin, 
 V. N. Staroverov, T. A. Keith, R. Kobayashi, J. Normand, 
 K. Raghavachari, A. P. Rendell, J. C. Burant, S. S. Iyengar, 
 J. Tomasi, M. Cossi, J. M. Millam, M. Klene, C. Adamo, R. Cammi, 
 J. W. Ochterski, R. L. Martin, K. Morokuma, O. Farkas, 
 J. B. Foresman, and D. J. Fox, Gaussian, Inc., Wallingford CT, 2019.
 
 ******************************************
 Gaussian 16:  ES64L-G16RevC.01  3-Jul-2019
                27-Jul-2022 
 ******************************************
 %NProcShared=32
 Will use up to   32 processors via shared memory.
 %mem = 128GB
 ---------------------------------------------------------------
 #n M062X/6-311++G(d,p) TD(NStates=1) EmpiricalDispersion=GD3 SP
 ---------------------------------------------------------------
 1/38=1,172=1/1;
 2/12=2,17=6,18=5,40=1/2;
 3/5=4,6=6,7=1111,11=9,25=1,30=1,74=-55,124=31/1,2,3,8;
 4//1;
 5/5=2,38=5/2;
 8/6=1,10=2,108=1/1;
 9/41=1,42=1,70=2/14;
 6/7=2,8=2,9=2,10=2/1;
 99/5=1,9=1/99;
 ----
 SP_0
 ----
 Symbolic Z-matrix:
 Charge =  1 Multiplicity = 1
 C                     2.47795   1.3691    0. 
 C                     3.68213   0.67145   0. 
 C                     3.6789   -0.72185   0. 
 C                     2.48283  -1.41053   0. 
 C                    -2.44383  -1.38778   0. 
 C                    -3.6904   -0.69085   0. 
 C                    -3.72325   0.68908   0. 
 C                    -2.5122    1.3676    0. 
 C                    -0.011     1.4676    0. 
 C                     0.0305   -1.42075   0. 
 C                     1.26685   0.69533   0. 
 C                     1.2495   -0.72323   0. 
 C                    -1.25773   0.6762    0. 
 C                    -1.2245   -0.72023   0. 
 H                     2.4856    2.45205   0. 
 H                     4.61742   1.21227   0. 
 H                     4.6133   -1.2647    0. 
 H                     2.47625  -2.49265   0. 
 H                     0.02813  -2.50173   0. 
 H                    -2.458    -2.47053   0. 
 H                    -4.60605  -1.26582   0. 
 H                    -4.65905   1.22665   0. 
 H                    -2.4961    2.45093   0. 
 H                    -0.04      2.15575  -0.86098 
 H                    -0.04      2.15575   0.86098 
 
                          Input orientation:                          
 ---------------------------------------------------------------------
 Center     Atomic      Atomic             Coordinates (Angstroms)
 Number     Number       Type             X           Y           Z
 ---------------------------------------------------------------------
      1          6           0        2.477950    1.369100    0.000000
      2          6           0        3.682125    0.671450    0.000000
      3          6           0        3.678900   -0.721850    0.000000
      4          6           0        2.482825   -1.410525    0.000000
      5          6           0       -2.443825   -1.387775    0.000000
      6          6           0       -3.690400   -0.690850    0.000000
      7          6           0       -3.723250    0.689075    0.000000
      8          6           0       -2.512200    1.367600    0.000000
      9          6           0       -0.011000    1.467600    0.000000
     10          6           0        0.030500   -1.420750    0.000000
     11          6           0        1.266850    0.695325    0.000000
     12          6           0        1.249500   -0.723225    0.000000
     13          6           0       -1.257725    0.676200    0.000000
     14          6           0       -1.224500   -0.720225    0.000000
     15          1           0        2.485600    2.452050    0.000000
     16          1           0        4.617425    1.212275    0.000000
     17          1           0        4.613300   -1.264700    0.000000
     18          1           0        2.476250   -2.492650    0.000000
     19          1           0        0.028125   -2.501725    0.000000
     20          1           0       -2.458000   -2.470525    0.000000
     21          1           0       -4.606050   -1.265825    0.000000
     22          1           0       -4.659050    1.226650    0.000000
     23          1           0       -2.496100    2.450925    0.000000
     24          1           0       -0.040000    2.155750   -0.860975
     25          1           0       -0.040000    2.155750    0.860975
 ---------------------------------------------------------------------
                    Distance matrix (angstroms):
                    1          2          3          4          5
     1  C    0.000000
     2  C    1.391673   0.000000
     3  C    2.411297   1.393304   0.000000
     4  C    2.779629   2.402694   1.380170   0.000000
     5  C    5.641297   6.462791   6.158832   4.926703   0.000000
     6  C    6.503225   7.497332   7.369365   6.215033   1.428164
     7  C    6.238374   7.405396   7.535419   6.551617   2.439310
     8  C    4.990150   6.233321   6.534181   5.715615   2.756223
     9  C    2.490898   3.777966   4.290577   3.808250   3.751240
    10  C    3.711236   4.208523   3.714739   2.452346   2.474545
    11  C    1.385906   2.415393   2.797565   2.431707   4.255398
    12  C    2.426296   2.804065   2.429400   1.411904   3.752636
    13  C    3.799392   4.939852   5.130771   4.283239   2.380510
    14  C    4.251284   5.100169   4.903400   3.771044   1.390099
    15  H    1.082977   2.145276   3.390812   3.862576   6.248479
    16  H    2.145215   1.080406   2.149807   3.381656   7.524727
    17  H    3.390667   2.148433   1.080643   2.135460   7.058198
    18  H    3.861750   3.386099   2.140584   1.082145   5.042607
    19  H    4.580931   4.839500   4.061541   2.686312   2.711350
    20  H    6.253505   6.897329   6.381176   5.053252   1.082843
    21  H    7.558167   8.511573   8.302789   7.090352   2.165661
    22  H    7.138421   8.359632   8.562597   7.613217   3.426724
    23  H    5.090336   6.429385   6.942415   6.300833   3.839056
    24  H    2.774918   4.098614   4.780385   4.452442   4.367633
    25  H    2.774918   4.098614   4.780385   4.452442   4.367633
                    6          7          8          9         10
     6  C    0.000000
     7  C    1.380316   0.000000
     8  C    2.371787   1.388178   0.000000
     9  C    4.265781   3.793007   2.503198   0.000000
    10  C    3.791814   4.306042   3.773621   2.888648   0.000000
    11  C    5.147408   4.990104   3.838382   1.493087   2.450782
    12  C    4.940006   5.169413   4.303712   2.527563   1.404458
    13  C    2.790472   2.465559   1.432390   1.476698   2.461041
    14  C    2.466075   2.868776   2.452995   2.501831   1.437275
    15  H    6.929704   6.454293   5.114102   2.683683   4.585422
    16  H    8.523018   8.357069   7.131317   4.635462   5.288923
    17  H    8.323505   8.562436   7.596167   5.371184   4.585456
    18  H    6.424489   6.968298   6.307627   4.676536   2.670330
    19  H    4.136024   4.924837   4.628707   3.969518   1.080978
    20  H    2.164729   3.403517   3.838508   4.636447   2.700863
    21  H    1.081208   2.144987   3.364392   5.346597   4.639138
    22  H    2.148276   1.079217   2.151472   4.654291   5.385221
    23  H    3.361116   2.147094   1.083445   2.672574   4.623156
    24  H    4.708485   4.056938   2.733904   1.102574   3.679348
    25  H    4.708485   4.056938   2.733904   1.102574   3.679348
                   11         12         13         14         15
    11  C    0.000000
    12  C    1.418656   0.000000
    13  C    2.524647   2.871335   0.000000
    14  C    2.865416   2.474002   1.396820   0.000000
    15  H    2.138091   3.407391   4.143202   4.881411   0.000000
    16  H    3.390220   3.884466   5.899556   6.153263   2.466114
    17  H    3.878199   3.407102   6.183529   5.863136   4.282679
    18  H    3.409668   2.153086   4.897365   4.103296   4.944709
    19  H    3.428639   2.157503   3.428209   2.177800   5.529835
    20  H    4.888467   4.098611   3.367869   2.141278   6.976455
    21  H    6.191693   5.880636   3.870755   3.425282   8.007128
    22  H    5.949672   6.221975   3.445578   3.947969   7.248974
    23  H    4.152340   4.909659   2.164075   3.416600   4.981700
    24  H    2.140555   3.269952   2.100762   3.227313   2.684721
    25  H    2.140555   3.269952   2.100762   3.227313   2.684721
                   16         17         18         19         20
    16  H    0.000000
    17  H    2.476978   0.000000
    18  H    4.279147   2.464720   0.000000
    19  H    5.903852   4.749112   2.448142   0.000000
    20  H    7.976506   7.173374   4.934300   2.486321   0.000000
    21  H    9.550574   9.219350   7.187772   4.796147   2.462808
    22  H    9.276486   9.601213   8.046471   5.989189   4.302758
    23  H    7.220560   8.021810   7.011647   5.558818   4.921597
    24  H    4.829392   5.839003   5.355410   4.736876   5.290598
    25  H    4.829392   5.839003   5.355410   4.736876   5.290598
                   21         22         23         24         25
    21  H    0.000000
    22  H    2.493038   0.000000
    23  H    4.273888   2.485398   0.000000
    24  H    5.770378   4.789585   2.619319   0.000000
    25  H    5.770378   4.789585   2.619319   1.721950   0.000000
 Stoichiometry    C14H11(1+)
 Framework group  CS[SG(C14H9),X(H2)]
 Deg. of freedom    46
 Full point group                 CS      NOp   2
 Largest Abelian subgroup         CS      NOp   2
 Largest concise Abelian subgroup CS      NOp   2
                         Standard orientation:                         
 ---------------------------------------------------------------------
 Center     Atomic      Atomic             Coordinates (Angstroms)
 Number     Number       Type             X           Y           Z
 ---------------------------------------------------------------------
      1          6           0       -2.363778   -1.551070    0.000000
      2          6           0       -2.312270   -2.941789    0.000000
      3          6           0       -1.080149   -3.592307    0.000000
      4          6           0        0.088992   -2.858837    0.000000
      5          6           0        2.379174    1.503211    0.000000
      6          6           0        2.348188    2.931039    0.000000
      7          6           0        1.144798    3.607148    0.000000
      8          6           0       -0.022401    2.855692    0.000000
      9          6           0       -1.283623    0.693443    0.000000
     10          6           0        1.248003   -0.697658    0.000000
     11          6           0       -1.200752   -0.797343    0.000000
     12          6           0        0.060295   -1.447225    0.000000
     13          6           0        0.000000    1.423477    0.000000
     14          6           0        1.217788    0.739300    0.000000
     15          1           0       -3.323863   -1.049995    0.000000
     16          1           0       -3.228538   -3.514266    0.000000
     17          1           0       -1.038858   -4.672161    0.000000
     18          1           0        1.047844   -3.360476    0.000000
     19          1           0        2.203869   -1.202466    0.000000
     20          1           0        3.342142    1.007992    0.000000
     21          1           0        3.285405    3.470146    0.000000
     22          1           0        1.108822    4.685764    0.000000
     23          1           0       -0.986779    3.349480    0.000000
     24          1           0       -1.877820    1.041754    0.860975
     25          1           0       -1.877820    1.041754   -0.860975
 ---------------------------------------------------------------------
 Rotational constants (GHZ):           2.1345763           0.4443181           0.3685680
 Standard basis: 6-311++G(d,p) (5D, 7F)
 There are   299 symmetry adapted cartesian basis functions of A'  symmetry.
 There are   100 symmetry adapted cartesian basis functions of A"  symmetry.
 There are   285 symmetry adapted basis functions of A'  symmetry.
 There are   100 symmetry adapted basis functions of A"  symmetry.
   385 basis functions,   603 primitive gaussians,   399 cartesian basis functions
    47 alpha electrons       47 beta electrons
       nuclear repulsion energy       780.9650711787 Hartrees.
 NAtoms=   25 NActive=   25 NUniq=   24 SFac= 1.09D+00 NAtFMM=   60 NAOKFM=F Big=F
 Integral buffers will be    131072 words long.
 Regular integral format.
 Two-electron integral symmetry is turned on.
 Nuclear repulsion after empirical dispersion term =      780.9640917744 Hartrees.
 One-electron integrals computed using PRISM.
 NBasis=   385 RedAO= T EigKep=  1.13D-06  NBF=   285   100
 NBsUse=   379 1.00D-06 EigRej=  8.41D-07 NBFU=   279   100
 ExpMin= 3.60D-02 ExpMax= 4.56D+03 ExpMxC= 6.82D+02 IAcc=3 IRadAn=         5 AccDes= 0.00D+00
 Harris functional with IExCor= 1009 and IRadAn=       5 diagonalized for initial guess.
 HarFok:  IExCor= 1009 AccDes= 0.00D+00 IRadAn=         5 IDoV= 1 UseB2=F ITyADJ=14
 ICtDFT=  3500011 ScaDFX=  1.000000  1.000000  1.000000  1.000000
 FoFCou: FMM=F IPFlag=           0 FMFlag=      100000 FMFlg1=           0
         NFxFlg=           0 DoJE=T BraDBF=F KetDBF=T FulRan=T
         wScrn=  0.000000 ICntrl=       500 IOpCl=  0 I1Cent=   200000004 NGrid=           0
         NMat0=    1 NMatS0=      1 NMatT0=    0 NMatD0=    1 NMtDS0=    0 NMtDT0=    0
 Petite list used in FoFCou.
 Initial guess orbital symmetries:
       Occupied  (A') (A') (A') (A') (A') (A') (A') (A') (A') (A')
                 (A') (A') (A') (A') (A') (A') (A') (A') (A') (A')
                 (A') (A') (A') (A') (A') (A') (A') (A') (A') (A')
                 (A') (A') (A") (A') (A') (A') (A') (A') (A") (A')
                 (A") (A') (A') (A") (A") (A") (A")
       Virtual   (A") (A") (A") (A") (A") (A') (A') (A') (A') (A")
                 (A") (A') (A') (A') (A") (A') (A') (A') (A') (A")
                 (A') (A") (A') (A') (A') (A") (A') (A") (A') (A')
                 (A') (A') (A') (A') (A") (A') (A") (A') (A') (A')
                 (A") (A') (A') (A") (A') (A') (A') (A') (A") (A')
                 (A') (A') (A") (A") (A') (A') (A') (A") (A") (A')
                 (A') (A') (A') (A') (A') (A') (A") (A') (A') (A")
                 (A') (A') (A') (A') (A') (A') (A') (A') (A') (A')
                 (A') (A') (A') (A') (A') (A') (A') (A') (A') (A')
                 (A') (A') (A') (A') (A') (A') (A') (A") (A') (A")
                 (A') (A') (A") (A") (A') (A") (A') (A") (A') (A")
                 (A") (A') (A') (A') (A") (A') (A') (A") (A") (A')
                 (A") (A") (A') (A') (A') (A") (A') (A') (A') (A")
                 (A') (A') (A') (A') (A') (A') (A") (A') (A') (A')
                 (A') (A') (A') (A') (A') (A') (A') (A') (A') (A")
                 (A") (A') (A") (A") (A') (A') (A') (A") (A") (A')
                 (A") (A') (A") (A") (A") (A') (A') (A') (A') (A')
                 (A') (A") (A') (A") (A') (A') (A') (A') (A') (A")
                 (A') (A') (A') (A') (A") (A') (A") (A') (A") (A")
                 (A') (A") (A') (A") (A') (A') (A') (A") (A') (A')
                 (A") (A") (A") (A') (A') (A") (A') (A") (A') (A')
                 (A") (A") (A') (A") (A') (A") (A') (A') (A') (A")
                 (A') (A') (A') (A') (A") (A') (A') (A') (A") (A")
                 (A') (A') (A') (A") (A') (A') (A") (A') (A") (A')
                 (A") (A') (A') (A') (A') (A") (A') (A') (A') (A")
                 (A') (A') (A") (A') (A") (A') (A') (A") (A') (A')
                 (A') (A") (A') (A") (A') (A') (A') (A") (A') (A")
                 (A') (A') (A') (A') (A") (A') (A") (A') (A") (A')
                 (A") (A') (A") (A") (A") (A') (A') (A') (A') (A')
                 (A') (A') (A') (A') (A') (A') (A') (A') (A') (A')
                 (A') (A') (A') (A') (A') (A") (A') (A') (A') (A')
                 (A') (A') (A') (A') (A') (A') (A') (A') (A') (A')
                 (A') (A') (A') (A') (A') (A') (A') (A') (A') (A')
                 (A') (A')
 The electronic state of the initial guess is 1-A'.
 Requested convergence on RMS density matrix=1.00D-08 within 128 cycles.
 Requested convergence on MAX density matrix=1.00D-06.
 Requested convergence on             energy=1.00D-06.
 No special actions if energy rises.
 SCF Done:  E(RM062X) =  -539.757547483     A.U. after   15 cycles
            NFock= 15  Conv=0.81D-08     -V/T= 2.0042
 DoSCS=F DFT=T ScalE2(SS,OS)=  1.000000  1.000000
 ExpMin= 3.60D-02 ExpMax= 4.56D+03 ExpMxC= 6.82D+02 IAcc=3 IRadAn=         5 AccDes= 0.00D+00
 HarFok:  IExCor=  205 AccDes= 0.00D+00 IRadAn=         5 IDoV=-2 UseB2=F ITyADJ=14
 ICtDFT= 12500011 ScaDFX=  1.000000  1.000000  1.000000  1.000000
 Range of M.O.s used for correlation:    15   379
 NBasis=   385 NAE=    47 NBE=    47 NFC=    14 NFV=     0
 NROrb=    365 NOA=    33 NOB=    33 NVA=   332 NVB=   332

 **** Warning!!: The largest alpha MO coefficient is  0.13473349D+03

 Orbital symmetries:
       Occupied  (A') (A') (A') (A') (A') (A') (A') (A') (A') (A')
                 (A') (A') (A') (A') (A') (A') (A') (A') (A') (A')
                 (A') (A') (A') (A') (A') (A') (A') (A') (A') (A')
                 (A') (A') (A") (A') (A') (A') (A') (A") (A") (A')
                 (A') (A') (A') (A") (A") (A") (A")
       Virtual   (A") (A") (A") (A") (A') (A') (A') (A') (A") (A')
                 (A') (A") (A') (A') (A") (A') (A") (A') (A') (A')
                 (A") (A") (A') (A') (A') (A") (A') (A") (A') (A')
                 (A") (A') (A") (A') (A') (A') (A') (A') (A") (A')
                 (A") (A') (A') (A") (A") (A') (A") (A') (A") (A')
                 (A') (A') (A') (A') (A') (A") (A') (A') (A') (A')
                 (A') (A") (A') (A') (A') (A") (A') (A') (A') (A')
                 (A') (A') (A') (A') (A') (A') (A') (A') (A') (A')
                 (A') (A') (A') (A') (A') (A') (A') (A') (A') (A')
                 (A') (A') (A') (A') (A") (A') (A") (A") (A') (A")
                 (A') (A') (A') (A') (A") (A") (A') (A") (A") (A')
                 (A') (A') (A") (A') (A') (A") (A') (A") (A') (A")
                 (A") (A') (A") (A') (A') (A') (A") (A') (A') (A')
                 (A') (A') (A') (A') (A') (A') (A') (A') (A') (A')
                 (A') (A') (A') (A") (A') (A') (A') (A') (A') (A')
                 (A') (A') (A") (A') (A") (A') (A") (A") (A') (A")
                 (A") (A') (A') (A") (A") (A") (A') (A") (A') (A')
                 (A') (A') (A') (A") (A") (A') (A') (A') (A') (A")
                 (A') (A') (A') (A") (A") (A') (A') (A') (A") (A")
                 (A") (A') (A') (A") (A") (A') (A') (A') (A') (A')
                 (A") (A") (A") (A') (A') (A") (A') (A") (A') (A')
                 (A') (A") (A') (A") (A") (A') (A") (A') (A') (A")
                 (A') (A') (A') (A') (A") (A') (A') (A') (A") (A")
                 (A') (A') (A') (A") (A') (A') (A') (A") (A") (A')
                 (A") (A') (A') (A") (A') (A') (A') (A') (A') (A')
                 (A") (A') (A') (A') (A') (A") (A") (A") (A') (A')
                 (A') (A') (A') (A') (A') (A') (A") (A') (A') (A')
                 (A') (A") (A') (A") (A") (A") (A') (A") (A') (A")
                 (A') (A") (A") (A') (A") (A") (A') (A') (A') (A')
                 (A') (A') (A') (A') (A') (A') (A') (A') (A') (A')
                 (A') (A') (A') (A") (A') (A') (A') (A') (A') (A')
                 (A') (A') (A') (A') (A') (A') (A') (A') (A') (A')
                 (A') (A') (A') (A') (A') (A') (A') (A') (A') (A')
                 (A') (A')
     4 initial guesses have been made.
 Convergence on wavefunction:    0.001000000000000
 Iteration     1 Dimension     4 NMult     0 NNew      4
 CISAX will form     4 AO SS matrices at one time.
 Iteration     2 Dimension     6 NMult     4 NNew      2
 Iteration     3 Dimension     8 NMult     6 NNew      2
 Iteration     4 Dimension    10 NMult     8 NNew      2
 Iteration     5 Dimension    12 NMult    10 NNew      2
 Iteration     6 Dimension    14 NMult    12 NNew      2
 ***********************************************************************
 Excited states from <AA,BB:AA,BB> singles matrix:
 ***********************************************************************
 
 Ground to excited state transition densities written to RWF  633
 Ground to excited state transition electric dipole moments (Au):
       state          X           Y           Z        Dip. S.      Osc.
         1        -0.5003      0.3009      0.0000      0.3408      0.0229
 Ground to excited state transition velocity dipole moments (Au):
       state          X           Y           Z        Dip. S.      Osc.
         1         0.0582     -0.0310     -0.0000      0.0044      0.0288
 Ground to excited state transition magnetic dipole moments (Au):
       state          X           Y           Z
         1        -0.0000     -0.0000     -0.1647
 Ground to excited state transition velocity quadrupole moments (Au):
       state          XX          YY          ZZ          XY          XZ          YZ
         1         0.1406      0.1535     -0.0089      0.1376     -0.0000      0.0000
 <0|del|b> * <b|rxdel|0> + <0|del|b> * <b|delr+rdel|0>
 Rotatory Strengths (R) in cgs (10**-40 erg-esu-cm/Gauss)
       state          XX          YY          ZZ    R(velocity)    E-M Angle
         1         0.0000      0.0000     -0.0000      0.0000       90.00
 1/2[<0|r|b>*<b|rxdel|0> + (<0|rxdel|b>*<b|r|0>)*]
 Rotatory Strengths (R) in cgs (10**-40 erg-esu-cm/Gauss)
       state          XX          YY          ZZ     R(length)
         1        -0.0000      0.0000      0.0000      0.0000
  1/2[<0|del|b>*<b|r|0> + (<0|r|b>*<b|del|0>)*] (Au)
       state          X           Y           Z        Dip. S.   Osc.(frdel)
         1        -0.0291     -0.0093     -0.0000      0.0385      0.0256

 Excitation energies and oscillator strengths:
 
 Excited State   1:      Singlet-A'     2.7445 eV  451.76 nm  f=0.0229  <S**2>=0.000
      47 -> 48         0.70371
 This state for optimization and/or second-order correction.
 Total Energy, E(TD-HF/TD-DFT) =  -539.656689813    
 Copying the excited state density for this state as the 1-particle RhoCI density.
 SavETr:  write IOETrn=   770 NScale= 10 NData=  16 NLR=1 NState=    1 LETran=      28.

 **********************************************************************

            Population analysis using the SCF Density.

 **********************************************************************

 Orbital symmetries:
       Occupied  (A') (A') (A') (A') (A') (A') (A') (A') (A') (A')
                 (A') (A') (A') (A') (A') (A') (A') (A') (A') (A')
                 (A') (A') (A') (A') (A') (A') (A') (A') (A') (A')
                 (A') (A') (A") (A') (A') (A') (A') (A") (A") (A')
                 (A') (A') (A') (A") (A") (A") (A")
       Virtual   (A") (A") (A") (A") (A') (A') (A') (A') (A") (A')
                 (A') (A") (A') (A') (A") (A') (A") (A') (A') (A')
                 (A") (A") (A') (A') (A') (A") (A') (A") (A') (A')
                 (A") (A') (A") (A') (A') (A') (A') (A') (A") (A')
                 (A") (A') (A') (A") (A") (A') (A") (A') (A") (A')
                 (A') (A') (A') (A') (A') (A") (A') (A') (A') (A')
                 (A') (A") (A') (A') (A') (A") (A') (A') (A') (A')
                 (A') (A') (A') (A') (A') (A') (A') (A') (A') (A')
                 (A') (A') (A') (A') (A') (A') (A') (A') (A') (A')
                 (A') (A') (A') (A') (A") (A') (A") (A") (A') (A")
                 (A') (A') (A') (A') (A") (A") (A') (A") (A") (A')
                 (A') (A') (A") (A') (A') (A") (A') (A") (A') (A")
                 (A") (A') (A") (A') (A') (A') (A") (A') (A') (A')
                 (A') (A') (A') (A') (A') (A') (A') (A') (A') (A')
                 (A') (A') (A') (A") (A') (A') (A') (A') (A') (A')
                 (A') (A') (A") (A') (A") (A') (A") (A") (A') (A")
                 (A") (A') (A') (A") (A") (A") (A') (A") (A') (A')
                 (A') (A') (A') (A") (A") (A') (A') (A') (A') (A")
                 (A') (A') (A') (A") (A") (A') (A') (A') (A") (A")
                 (A") (A') (A') (A") (A") (A') (A') (A') (A') (A')
                 (A") (A") (A") (A') (A') (A") (A') (A") (A') (A')
                 (A') (A") (A') (A") (A") (A') (A") (A') (A') (A")
                 (A') (A') (A') (A') (A") (A') (A') (A') (A") (A")
                 (A') (A') (A') (A") (A') (A') (A') (A") (A") (A')
                 (A") (A') (A') (A") (A') (A') (A') (A') (A') (A')
                 (A") (A') (A') (A') (A') (A") (A") (A") (A') (A')
                 (A') (A') (A') (A') (A') (A') (A") (A') (A') (A')
                 (A') (A") (A') (A") (A") (A") (A') (A") (A') (A")
                 (A') (A") (A") (A') (A") (A") (A') (A') (A') (A')
                 (A') (A') (A') (A') (A') (A') (A') (A') (A') (A')
                 (A') (A') (A') (A") (A') (A') (A') (A') (A') (A')
                 (A') (A') (A') (A') (A') (A') (A') (A') (A') (A')
                 (A') (A') (A') (A') (A') (A') (A') (A') (A') (A')
                 (A') (A')
 The electronic state is 1-A'.
 Alpha  occ. eigenvalues --  -10.77642 -10.73630 -10.72906 -10.72721 -10.72138
 Alpha  occ. eigenvalues --  -10.71702 -10.71658 -10.71019 -10.70999 -10.70373
 Alpha  occ. eigenvalues --  -10.70137 -10.69841 -10.69809 -10.69434  -1.16454
 Alpha  occ. eigenvalues --   -1.12448  -1.06942  -1.05731  -1.01301  -1.00251
 Alpha  occ. eigenvalues --   -0.95689  -0.91032  -0.86425  -0.85885  -0.83791
 Alpha  occ. eigenvalues --   -0.78365  -0.76048  -0.74391  -0.69675  -0.69273
 Alpha  occ. eigenvalues --   -0.68404  -0.68123  -0.68106  -0.64988  -0.64240
 Alpha  occ. eigenvalues --   -0.62866  -0.61739  -0.60278  -0.59438  -0.59129
 Alpha  occ. eigenvalues --   -0.56904  -0.55253  -0.54681  -0.52443  -0.46927
 Alpha  occ. eigenvalues --   -0.46102  -0.44170
 Alpha virt. eigenvalues --   -0.26107  -0.14665  -0.14089  -0.12771  -0.11182
 Alpha virt. eigenvalues --   -0.10086  -0.09243  -0.07973  -0.07957  -0.07478
 Alpha virt. eigenvalues --   -0.07203  -0.07139  -0.05646  -0.05576  -0.05339
 Alpha virt. eigenvalues --   -0.03837  -0.03653  -0.03276  -0.03135  -0.02163
 Alpha virt. eigenvalues --   -0.01357  -0.00940   0.00195   0.00593   0.00636
 Alpha virt. eigenvalues --    0.01060   0.01511   0.01941   0.02182   0.02305
 Alpha virt. eigenvalues --    0.02449   0.02669   0.02764   0.03296   0.03435
 Alpha virt. eigenvalues --    0.04234   0.04496   0.04711   0.05037   0.05377
 Alpha virt. eigenvalues --    0.06031   0.06288   0.06587   0.07038   0.07266
 Alpha virt. eigenvalues --    0.07896   0.08117   0.08351   0.08576   0.08920
 Alpha virt. eigenvalues --    0.09509   0.09578   0.09998   0.10831   0.10973
 Alpha virt. eigenvalues --    0.11126   0.12127   0.12244   0.12784   0.13004
 Alpha virt. eigenvalues --    0.13436   0.13526   0.13991   0.14361   0.15991
 Alpha virt. eigenvalues --    0.16401   0.16403   0.17335   0.17544   0.17794
 Alpha virt. eigenvalues --    0.18115   0.19078   0.19319   0.19614   0.19811
 Alpha virt. eigenvalues --    0.21490   0.21611   0.22685   0.23135   0.23549
 Alpha virt. eigenvalues --    0.23905   0.24579   0.25445   0.26930   0.27602
 Alpha virt. eigenvalues --    0.28833   0.29263   0.29867   0.31342   0.35762
 Alpha virt. eigenvalues --    0.36421   0.38201   0.39274   0.41102   0.41354
 Alpha virt. eigenvalues --    0.41941   0.42182   0.42984   0.43670   0.44336
 Alpha virt. eigenvalues --    0.44846   0.45088   0.45966   0.46299   0.47954
 Alpha virt. eigenvalues --    0.48465   0.48806   0.49043   0.50463   0.51050
 Alpha virt. eigenvalues --    0.51318   0.51884   0.52129   0.52810   0.54050
 Alpha virt. eigenvalues --    0.54107   0.54594   0.55664   0.55844   0.57600
 Alpha virt. eigenvalues --    0.58230   0.58876   0.61459   0.62249   0.62372
 Alpha virt. eigenvalues --    0.63178   0.63480   0.64895   0.65148   0.67279
 Alpha virt. eigenvalues --    0.70404   0.70552   0.71103   0.72444   0.72876
 Alpha virt. eigenvalues --    0.75672   0.76035   0.76347   0.76815   0.77110
 Alpha virt. eigenvalues --    0.77845   0.77916   0.78233   0.79914   0.80386
 Alpha virt. eigenvalues --    0.81224   0.81592   0.82286   0.82993   0.85184
 Alpha virt. eigenvalues --    0.87084   0.88132   0.88349   0.89222   0.90515
 Alpha virt. eigenvalues --    0.91018   0.91341   0.93239   0.94599   0.96324
 Alpha virt. eigenvalues --    0.96794   1.00316   1.01255   1.01613   1.02770
 Alpha virt. eigenvalues --    1.03226   1.03307   1.04797   1.06003   1.08795
 Alpha virt. eigenvalues --    1.19549   1.23118   1.24099   1.24713   1.28406
 Alpha virt. eigenvalues --    1.29516   1.31982   1.34341   1.35739   1.35978
 Alpha virt. eigenvalues --    1.39307   1.39882   1.40899   1.43027   1.43469
 Alpha virt. eigenvalues --    1.43509   1.44362   1.46340   1.46345   1.46629
 Alpha virt. eigenvalues --    1.47669   1.48067   1.51699   1.53636   1.55597
 Alpha virt. eigenvalues --    1.55804   1.56310   1.56590   1.57769   1.61414
 Alpha virt. eigenvalues --    1.63148   1.63401   1.64047   1.66070   1.68278
 Alpha virt. eigenvalues --    1.68327   1.68731   1.69805   1.74360   1.75984
 Alpha virt. eigenvalues --    1.77129   1.78064   1.79830   1.80032   1.80764
 Alpha virt. eigenvalues --    1.82971   1.83208   1.83572   1.83815   1.84195
 Alpha virt. eigenvalues --    1.84425   1.85607   1.86288   1.88279   1.91386
 Alpha virt. eigenvalues --    1.92080   1.94071   1.95234   1.97722   1.98130
 Alpha virt. eigenvalues --    1.99736   2.02246   2.04418   2.07283   2.11746
 Alpha virt. eigenvalues --    2.12076   2.14173   2.15247   2.19026   2.21143
 Alpha virt. eigenvalues --    2.22761   2.28603   2.30074   2.34504   2.34840
 Alpha virt. eigenvalues --    2.36285   2.38634   2.39636   2.42326   2.44844
 Alpha virt. eigenvalues --    2.46118   2.46291   2.49252   2.52897   2.53772
 Alpha virt. eigenvalues --    2.54134   2.56904   2.57866   2.58359   2.59505
 Alpha virt. eigenvalues --    2.59872   2.61550   2.62113   2.63530   2.63723
 Alpha virt. eigenvalues --    2.64795   2.65068   2.65100   2.65478   2.67833
 Alpha virt. eigenvalues --    2.68391   2.70925   2.71437   2.73349   2.74803
 Alpha virt. eigenvalues --    2.76294   2.78439   2.79658   2.82849   2.83114
 Alpha virt. eigenvalues --    2.84839   2.86220   2.92088   2.97077   2.99443
 Alpha virt. eigenvalues --    3.00075   3.04804   3.10081   3.11225   3.13641
 Alpha virt. eigenvalues --    3.20678   3.22554   3.26426   3.28394   3.30591
 Alpha virt. eigenvalues --    3.32773   3.34224   3.43644   3.46041   3.46536
 Alpha virt. eigenvalues --    3.48269   3.49984   3.56346   3.66377   3.66707
 Alpha virt. eigenvalues --    3.67616   3.93997   3.94178   3.95366   3.96319
 Alpha virt. eigenvalues --    4.03952   4.06633   4.07521   4.12547   4.35228
 Alpha virt. eigenvalues --    4.60809   4.69435   4.71378  23.45293  23.60238
 Alpha virt. eigenvalues --   23.81096  23.83690  23.86284  23.89004  23.91341
 Alpha virt. eigenvalues --   23.94353  23.96178  23.97782  24.01760  24.03583
 Alpha virt. eigenvalues --   24.10877  24.11687
          Condensed to atoms (all electrons):
               1          2          3          4          5          6
     1  C    8.461667   0.412521  -0.610728   1.897431  -0.023728  -0.089253
     2  C    0.412521   7.200170   0.395694  -1.051960  -0.028607  -0.014721
     3  C   -0.610728   0.395694   6.600775   0.741345  -0.117688   0.016911
     4  C    1.897431  -1.051960   0.741345  11.478280  -0.411176  -0.137708
     5  C   -0.023728  -0.028607  -0.117688  -0.411176  10.891215   0.821203
     6  C   -0.089253  -0.014721   0.016911  -0.137708   0.821203   6.595694
     7  C   -0.024325  -0.000430  -0.013310   0.009511  -1.200903   0.269999
     8  C    0.403085  -0.002349  -0.103477  -0.084503   2.254890  -0.420605
     9  C   -1.101664  -0.857137   0.299132  -0.016443  -0.334083   0.298589
    10  C   -1.253194   0.194850  -0.287306  -2.737822  -2.452036  -0.408803
    11  C    0.342350  -0.810522   0.917157  -0.340578  -1.449698  -0.128866
    12  C   -2.006870   1.163784  -1.371687  -1.713184  -0.259114  -0.259205
    13  C    0.225550  -0.218000  -0.209138  -1.573409  -0.331978   1.072058
    14  C   -1.128168  -0.261250  -0.139676  -0.425236  -1.705477  -1.489302
    15  H    0.368682  -0.107791  -0.002383   0.026546   0.006107   0.001195
    16  H   -0.020032   0.382863  -0.020636   0.015863  -0.001647  -0.000350
    17  H   -0.022331  -0.020633   0.379812  -0.070146   0.000200   0.000413
    18  H    0.049190   0.003434  -0.083862   0.466607   0.005380  -0.005102
    19  H   -0.044793  -0.008182   0.051468  -0.077332  -0.063631   0.051826
    20  H    0.006899   0.002086  -0.005269   0.005401   0.457741  -0.084344
    21  H   -0.001250  -0.000415   0.000392   0.000425  -0.067486   0.370387
    22  H    0.000511   0.000336  -0.000306  -0.001384   0.011011  -0.014036
    23  H    0.006218  -0.002371   0.001016   0.004755   0.029850   0.000831
    24  H    0.037064   0.015657  -0.001431  -0.011487  -0.012853  -0.001778
    25  H    0.037064   0.015657  -0.001431  -0.011487  -0.012853  -0.001778
               7          8          9         10         11         12
     1  C   -0.024325   0.403085  -1.101664  -1.253194   0.342350  -2.006870
     2  C   -0.000430  -0.002349  -0.857137   0.194850  -0.810522   1.163784
     3  C   -0.013310  -0.103477   0.299132  -0.287306   0.917157  -1.371687
     4  C    0.009511  -0.084503  -0.016443  -2.737822  -0.340578  -1.713184
     5  C   -1.200903   2.254890  -0.334083  -2.452036  -1.449698  -0.259114
     6  C    0.269999  -0.420605   0.298589  -0.408803  -0.128866  -0.259205
     7  C    7.210239   0.035790  -0.799199   0.327138  -0.284489  -0.107799
     8  C    0.035790   8.909556  -1.090814  -1.382947   0.292227  -1.067380
     9  C   -0.799199  -1.090814   9.564334   0.262600   1.536912  -2.014431
    10  C    0.327138  -1.382947   0.262600   9.076042  -0.298278   2.390466
    11  C   -0.284489   0.292227   1.536912  -0.298278  14.457848  -3.968948
    12  C   -0.107799  -1.067380  -2.014431   2.390466  -3.968948  16.239114
    13  C   -0.947790   0.316748   1.437277  -0.413126   1.094103  -4.705301
    14  C    1.658351  -2.566664  -1.747422   2.445980  -4.784503   3.181386
    15  H   -0.002805   0.004954   0.088214  -0.008422  -0.029827  -0.016438
    16  H    0.000397   0.000959   0.001764  -0.009839   0.024172  -0.029704
    17  H   -0.000383  -0.001373  -0.004938   0.020047  -0.025585   0.088543
    18  H    0.002150   0.006941  -0.022939   0.006949  -0.006961  -0.051696
    19  H   -0.007587  -0.047927   0.074715   0.421946   0.077055  -0.080208
    20  H    0.002077   0.053996  -0.025387   0.012198  -0.012073  -0.010824
    21  H   -0.010069  -0.031373  -0.006073   0.020186  -0.006210   0.005325
    22  H    0.376230  -0.017556   0.003331  -0.008130   0.002586  -0.008032
    23  H   -0.109513   0.371186   0.093615  -0.010765   0.005417   0.005156
    24  H    0.013568   0.030267   0.355178   0.005228   0.021598  -0.060378
    25  H    0.013568   0.030267   0.355178   0.005228   0.021598  -0.060378
              13         14         15         16         17         18
     1  C    0.225550  -1.128168   0.368682  -0.020032  -0.022331   0.049190
     2  C   -0.218000  -0.261250  -0.107791   0.382863  -0.020633   0.003434
     3  C   -0.209138  -0.139676  -0.002383  -0.020636   0.379812  -0.083862
     4  C   -1.573409  -0.425236   0.026546   0.015863  -0.070146   0.466607
     5  C   -0.331978  -1.705477   0.006107  -0.001647   0.000200   0.005380
     6  C    1.072058  -1.489302   0.001195  -0.000350   0.000413  -0.005102
     7  C   -0.947790   1.658351  -0.002805   0.000397  -0.000383   0.002150
     8  C    0.316748  -2.566664   0.004954   0.000959  -0.001373   0.006941
     9  C    1.437277  -1.747422   0.088214   0.001764  -0.004938  -0.022939
    10  C   -0.413126   2.445980  -0.008422  -0.009839   0.020047   0.006949
    11  C    1.094103  -4.784503  -0.029827   0.024172  -0.025585  -0.006961
    12  C   -4.705301   3.181386  -0.016438  -0.029704   0.088543  -0.051696
    13  C   14.254688  -3.427554  -0.002100   0.003290  -0.006269  -0.012306
    14  C   -3.427554  15.927902   0.007291  -0.009998   0.005284  -0.019960
    15  H   -0.002100   0.007291   0.435939  -0.009017   0.001619   0.000206
    16  H    0.003290  -0.009998  -0.009017   0.417314  -0.006968   0.001964
    17  H   -0.006269   0.005284   0.001619  -0.006968   0.420642  -0.010226
    18  H   -0.012306  -0.019960   0.000206   0.001964  -0.010226   0.450494
    19  H    0.080356  -0.052122   0.000388  -0.000593   0.001643  -0.005950
    20  H   -0.002416  -0.064068  -0.000123   0.000019  -0.000161   0.001243
    21  H   -0.026682   0.096593   0.000017  -0.000007   0.000010  -0.000128
    22  H    0.024842  -0.031888  -0.000126   0.000008  -0.000007   0.000013
    23  H   -0.032822  -0.032984   0.000551  -0.000130   0.000012  -0.000106
    24  H    0.005932  -0.060619  -0.000948   0.000632  -0.000138   0.000160
    25  H    0.005932  -0.060619  -0.000948   0.000632  -0.000138   0.000160
              19         20         21         22         23         24
     1  C   -0.044793   0.006899  -0.001250   0.000511   0.006218   0.037064
     2  C   -0.008182   0.002086  -0.000415   0.000336  -0.002371   0.015657
     3  C    0.051468  -0.005269   0.000392  -0.000306   0.001016  -0.001431
     4  C   -0.077332   0.005401   0.000425  -0.001384   0.004755  -0.011487
     5  C   -0.063631   0.457741  -0.067486   0.011011   0.029850  -0.012853
     6  C    0.051826  -0.084344   0.370387  -0.014036   0.000831  -0.001778
     7  C   -0.007587   0.002077  -0.010069   0.376230  -0.109513   0.013568
     8  C   -0.047927   0.053996  -0.031373  -0.017556   0.371186   0.030267
     9  C    0.074715  -0.025387  -0.006073   0.003331   0.093615   0.355178
    10  C    0.421946   0.012198   0.020186  -0.008130  -0.010765   0.005228
    11  C    0.077055  -0.012073  -0.006210   0.002586   0.005417   0.021598
    12  C   -0.080208  -0.010824   0.005325  -0.008032   0.005156  -0.060378
    13  C    0.080356  -0.002416  -0.026682   0.024842  -0.032822   0.005932
    14  C   -0.052122  -0.064068   0.096593  -0.031888  -0.032984  -0.060619
    15  H    0.000388  -0.000123   0.000017  -0.000126   0.000551  -0.000948
    16  H   -0.000593   0.000019  -0.000007   0.000008  -0.000130   0.000632
    17  H    0.001643  -0.000161   0.000010  -0.000007   0.000012  -0.000138
    18  H   -0.005950   0.001243  -0.000128   0.000013  -0.000106   0.000160
    19  H    0.443329  -0.006713   0.001224  -0.000504   0.000258   0.000574
    20  H   -0.006713   0.457909  -0.010439   0.001905   0.000078   0.000217
    21  H    0.001224  -0.010439   0.424132  -0.006172   0.001307  -0.000149
    22  H   -0.000504   0.001905  -0.006172   0.421727  -0.009022   0.000636
    23  H    0.000258   0.000078   0.001307  -0.009022   0.443243  -0.000900
    24  H    0.000574   0.000217  -0.000149   0.000636  -0.000900   0.492923
    25  H    0.000574   0.000217  -0.000149   0.000636  -0.000900  -0.078506
              25
     1  C    0.037064
     2  C    0.015657
     3  C   -0.001431
     4  C   -0.011487
     5  C   -0.012853
     6  C   -0.001778
     7  C    0.013568
     8  C    0.030267
     9  C    0.355178
    10  C    0.005228
    11  C    0.021598
    12  C   -0.060378
    13  C    0.005932
    14  C   -0.060619
    15  H   -0.000948
    16  H    0.000632
    17  H   -0.000138
    18  H    0.000160
    19  H    0.000574
    20  H    0.000217
    21  H   -0.000149
    22  H    0.000636
    23  H   -0.000900
    24  H   -0.078506
    25  H    0.492923
 Mulliken charges:
               1
     1  C    0.078105
     2  C   -0.402682
     3  C   -0.435375
     4  C    0.017691
     5  C   -0.004641
     6  C   -0.443255
     7  C   -0.410417
     8  C    0.106100
     9  C   -0.350310
    10  C    0.081810
    11  C   -0.646485
    12  C    0.717803
    13  C   -0.611885
    14  C    0.684725
    15  H    0.239217
    16  H    0.259045
    17  H    0.251071
    18  H    0.224346
    19  H    0.190184
    20  H    0.219831
    21  H    0.246603
    22  H    0.253390
    23  H    0.236022
    24  H    0.249554
    25  H    0.249554
 Sum of Mulliken charges =   1.00000
 Mulliken charges with hydrogens summed into heavy atoms:
               1
     1  C    0.317323
     2  C   -0.143637
     3  C   -0.184304
     4  C    0.242037
     5  C    0.215190
     6  C   -0.196652
     7  C   -0.157028
     8  C    0.342121
     9  C    0.148797
    10  C    0.271994
    11  C   -0.646485
    12  C    0.717803
    13  C   -0.611885
    14  C    0.684725
 Electronic spatial extent (au):  <R**2>=           2857.7370
 Charge=              1.0000 electrons
 Dipole moment (field-independent basis, Debye):
    X=             -0.1642    Y=             -0.7046    Z=              0.0000  Tot=              0.7235
 Quadrupole moment (field-independent basis, Debye-Ang):
   XX=            -51.0087   YY=            -36.3112   ZZ=            -84.1387
   XY=             10.2626   XZ=             -0.0000   YZ=              0.0000
 Traceless Quadrupole moment (field-independent basis, Debye-Ang):
   XX=              6.1442   YY=             20.8417   ZZ=            -26.9858
   XY=             10.2626   XZ=             -0.0000   YZ=              0.0000
 Octapole moment (field-independent basis, Debye-Ang**2):
  XXX=             -2.0862  YYY=             -0.8246  ZZZ=              0.0000  XYY=             -2.0886
  XXY=             -7.1450  XXZ=              0.0000  XZZ=             -3.2240  YZZ=              0.5620
  YYZ=              0.0000  XYZ=             -0.0000
 Hexadecapole moment (field-independent basis, Debye-Ang**3):
 XXXX=           -989.7524 YYYY=          -1849.1592 ZZZZ=            -99.3362 XXXY=           -348.2126
 XXXZ=             -0.0000 YYYX=           -274.2179 YYYZ=              0.0000 ZZZX=             -0.0000
 ZZZY=             -0.0000 XXYY=           -454.8049 XXZZ=           -241.8154 YYZZ=           -495.0558
 XXYZ=              0.0000 YYXZ=              0.0000 ZZXY=           -183.1672
 N-N= 7.809640917744D+02 E-N=-2.798267888256D+03  KE= 5.375031957849D+02
 Symmetry A'   KE= 5.228531980879D+02
 Symmetry A"   KE= 1.464999769711D+01
 Unable to Open any file for archive entry.
 1\1\GINC-GADI-CPU-CLX-0648\SP\RM062X TD-FC\6-311++G(d,p)\C14H11(1+)\TS
 1578\27-Jul-2022\0\\#n M062X/6-311++G(d,p) TD(NStates=1) EmpiricalDisp
 ersion=GD3 SP\\SP_0\\1,1\C,0,2.47795,1.3691,0.\C,0,3.682125,0.67145,0.
 \C,0,3.6789,-0.72185,0.\C,0,2.482825,-1.410525,0.\C,0,-2.443825,-1.387
 775,0.\C,0,-3.6904,-0.69085,0.\C,0,-3.72325,0.689075,0.\C,0,-2.5122,1.
 3676,0.\C,0,-0.011,1.4676,0.\C,0,0.0305,-1.42075,0.\C,0,1.26685,0.6953
 25,0.\C,0,1.2495,-0.723225,0.\C,0,-1.257725,0.6762,0.\C,0,-1.2245,-0.7
 20225,0.\H,0,2.4856,2.45205,0.\H,0,4.617425,1.212275,0.\H,0,4.6133,-1.
 2647,0.\H,0,2.47625,-2.49265,0.\H,0,0.028125,-2.501725,0.\H,0,-2.458,-
 2.470525,0.\H,0,-4.60605,-1.265825,0.\H,0,-4.65905,1.22665,0.\H,0,-2.4
 961,2.450925,0.\H,0,-0.04,2.15575,-0.860975\H,0,-0.04,2.15575,0.860975
 \\Version=ES64L-G16RevC.01\State=1-A'\HF=-539.7575475\RMSD=8.131e-09\P
 G=CS [SG(C14H9),X(H2)]\\@
 The archive entry for this job was punched.


 ALL MEN WHO EXPLORE
 DEPLORE
 THAT FRUSTRATING HURDLE
 THE GIRDLE.

         -- COLIN FLETCHER
 Job cpu time:       0 days  0 hours 45 minutes  7.9 seconds.
 Elapsed time:       0 days  0 hours  1 minutes 25.7 seconds.
 File lengths (MBytes):  RWF=    460 Int=      0 D2E=      0 Chk=     15 Scr=      1
 Normal termination of Gaussian 16 at Wed Jul 27 11:25:29 2022.
