 Entering Gaussian System, Link 0=g16
 Initial command:
 /apps/gaussian/g16c01/g16/l1.exe "/jobfs/52804872.gadi-pbs/Gau-1750774.inp" -scrdir="/jobfs/52804872.gadi-pbs/"
 Entering Link 1 = /apps/gaussian/g16c01/g16/l1.exe PID=   1750775.
  
 Copyright (c) 1988-2019, Gaussian, Inc.  All Rights Reserved.
  
 This is part of the Gaussian(R) 16 program.  It is based on
 the Gaussian(R) 09 system (copyright 2009, Gaussian, Inc.),
 the Gaussian(R) 03 system (copyright 2003, Gaussian, Inc.),
 the Gaussian(R) 98 system (copyright 1998, Gaussian, Inc.),
 the Gaussian(R) 94 system (copyright 1995, Gaussian, Inc.),
 the Gaussian 92(TM) system (copyright 1992, Gaussian, Inc.),
 the Gaussian 90(TM) system (copyright 1990, Gaussian, Inc.),
 the Gaussian 88(TM) system (copyright 1988, Gaussian, Inc.),
 the Gaussian 86(TM) system (copyright 1986, Carnegie Mellon
 University), and the Gaussian 82(TM) system (copyright 1983,
 Carnegie Mellon University). Gaussian is a federally registered
 trademark of Gaussian, Inc.
  
 This software contains proprietary and confidential information,
 including trade secrets, belonging to Gaussian, Inc.
  
 This software is provided under written license and may be
 used, copied, transmitted, or stored only in accord with that
 written license.
  
 The following legend is applicable only to US Government
 contracts under FAR:
  
                    RESTRICTED RIGHTS LEGEND
  
 Use, reproduction and disclosure by the US Government is
 subject to restrictions as set forth in subparagraphs (a)
 and (c) of the Commercial Computer Software - Restricted
 Rights clause in FAR 52.227-19.
  
 Gaussian, Inc.
 340 Quinnipiac St., Bldg. 40, Wallingford CT 06492
  
  
 ---------------------------------------------------------------
 Warning -- This program may not be used in any manner that
 competes with the business of Gaussian, Inc. or will provide
 assistance to any competitor of Gaussian, Inc.  The licensee
 of this program is prohibited from giving any competitor of
 Gaussian, Inc. access to this program.  By using this program,
 the user acknowledges that Gaussian, Inc. is engaged in the
 business of creating and licensing software in the field of
 computational chemistry and represents and warrants to the
 licensee that it is not a competitor of Gaussian, Inc. and that
 it will not use this program in any manner prohibited above.
 ---------------------------------------------------------------
  

 Cite this work as:
 Gaussian 16, Revision C.01,
 M. J. Frisch, G. W. Trucks, H. B. Schlegel, G. E. Scuseria, 
 M. A. Robb, J. R. Cheeseman, G. Scalmani, V. Barone, 
 G. A. Petersson, H. Nakatsuji, X. Li, M. Caricato, A. V. Marenich, 
 J. Bloino, B. G. Janesko, R. Gomperts, B. Mennucci, H. P. Hratchian, 
 J. V. Ortiz, A. F. Izmaylov, J. L. Sonnenberg, D. Williams-Young, 
 F. Ding, F. Lipparini, F. Egidi, J. Goings, B. Peng, A. Petrone, 
 T. Henderson, D. Ranasinghe, V. G. Zakrzewski, J. Gao, N. Rega, 
 G. Zheng, W. Liang, M. Hada, M. Ehara, K. Toyota, R. Fukuda, 
 J. Hasegawa, M. Ishida, T. Nakajima, Y. Honda, O. Kitao, H. Nakai, 
 T. Vreven, K. Throssell, J. A. Montgomery, Jr., J. E. Peralta, 
 F. Ogliaro, M. J. Bearpark, J. J. Heyd, E. N. Brothers, K. N. Kudin, 
 V. N. Staroverov, T. A. Keith, R. Kobayashi, J. Normand, 
 K. Raghavachari, A. P. Rendell, J. C. Burant, S. S. Iyengar, 
 J. Tomasi, M. Cossi, J. M. Millam, M. Klene, C. Adamo, R. Cammi, 
 J. W. Ochterski, R. L. Martin, K. Morokuma, O. Farkas, 
 J. B. Foresman, and D. J. Fox, Gaussian, Inc., Wallingford CT, 2019.
 
 ******************************************
 Gaussian 16:  ES64L-G16RevC.01  3-Jul-2019
                27-Jul-2022 
 ******************************************
 %NProcShared=32
 Will use up to   32 processors via shared memory.
 %mem = 128GB
 ---------------------------------------------------------------
 #n M062X/6-311++G(d,p) TD(NStates=1) EmpiricalDispersion=GD3 SP
 ---------------------------------------------------------------
 1/38=1,172=1/1;
 2/12=2,17=6,18=5,40=1/2;
 3/5=4,6=6,7=1111,11=9,25=1,30=1,74=-55,124=31/1,2,3,8;
 4//1;
 5/5=2,38=5/2;
 8/6=1,10=2,108=1/1;
 9/41=1,42=1,70=2/14;
 6/7=2,8=2,9=2,10=2/1;
 99/5=1,9=1/99;
 ------
 SP_100
 ------
 Symbolic Z-matrix:
 Charge =  1 Multiplicity = 1
 C                     2.51125   1.3679    0. 
 C                     3.72278   0.68925   0. 
 C                     3.6901   -0.69035   0. 
 C                     2.44378  -1.38768   0. 
 C                    -2.48278  -1.41043   0. 
 C                    -3.6786   -0.72135   0. 
 C                    -3.68165   0.67163   0. 
 C                    -2.477     1.3694    0. 
 C                     0.0109    1.4654    0. 
 C                    -0.0305   -1.42065   0. 
 C                     1.25765   0.67618   0. 
 C                     1.2247   -0.72038   0. 
 C                    -1.26677   0.6953    0. 
 C                    -1.2497   -0.72338   0. 
 H                     2.495     2.45125   0. 
 H                     4.65848   1.22703   0. 
 H                     4.6059   -1.2652    0. 
 H                     2.45815  -2.47045   0. 
 H                    -0.02813  -2.50168   0. 
 H                    -2.4764   -2.49258   0. 
 H                    -4.61315  -1.26408   0. 
 H                    -4.61685   1.21265   0. 
 H                    -2.4845    2.45237   0. 
 H                     0.04      2.15525  -0.86043 
 H                     0.04      2.15525   0.86043 
 
                          Input orientation:                          
 ---------------------------------------------------------------------
 Center     Atomic      Atomic             Coordinates (Angstroms)
 Number     Number       Type             X           Y           Z
 ---------------------------------------------------------------------
      1          6           0        2.511250    1.367900    0.000000
      2          6           0        3.722775    0.689250    0.000000
      3          6           0        3.690100   -0.690350    0.000000
      4          6           0        2.443775   -1.387675    0.000000
      5          6           0       -2.482775   -1.410425    0.000000
      6          6           0       -3.678600   -0.721350    0.000000
      7          6           0       -3.681650    0.671625    0.000000
      8          6           0       -2.477000    1.369400    0.000000
      9          6           0        0.010900    1.465400    0.000000
     10          6           0       -0.030500   -1.420650    0.000000
     11          6           0        1.257650    0.676175    0.000000
     12          6           0        1.224700   -0.720375    0.000000
     13          6           0       -1.266775    0.695300    0.000000
     14          6           0       -1.249700   -0.723375    0.000000
     15          1           0        2.495000    2.451250    0.000000
     16          1           0        4.658475    1.227025    0.000000
     17          1           0        4.605900   -1.265200    0.000000
     18          1           0        2.458150   -2.470450    0.000000
     19          1           0       -0.028125   -2.501675    0.000000
     20          1           0       -2.476400   -2.492575    0.000000
     21          1           0       -4.613150   -1.264075    0.000000
     22          1           0       -4.616850    1.212650    0.000000
     23          1           0       -2.484500    2.452375    0.000000
     24          1           0        0.040000    2.155250   -0.860425
     25          1           0        0.040000    2.155250    0.860425
 ---------------------------------------------------------------------
                    Distance matrix (angstroms):
                    1          2          3          4          5
     1  C    0.000000
     2  C    1.388654   0.000000
     3  C    2.371936   1.379987   0.000000
     4  C    2.756401   2.439151   1.428142   0.000000
     5  C    5.714838   6.551144   6.214732   4.926603   0.000000
     6  C    6.532933   7.534596   7.368765   6.158528   1.380153
     7  C    6.231919   7.404446   7.496511   6.462318   2.402547
     8  C    4.988250   6.236972   6.501976   5.640522   2.779831
     9  C    2.502250   3.792153   4.264243   3.749522   3.806414
    10  C    3.773129   4.305665   3.791596   2.474495   2.452296
    11  C    1.431781   2.465160   2.790019   2.380414   4.283069
    12  C    2.452775   2.868348   2.465583   1.389760   3.771146
    13  C    3.837429   4.989554   5.146905   4.255228   2.431611
    14  C    4.303275   5.169238   4.939910   3.752739   1.411564
    15  H    1.083472   2.147574   3.361237   3.839267   6.300062
    16  H    2.151841   1.079230   2.148040   3.426595   7.612726
    17  H    3.364636   2.144711   1.081269   2.165591   7.090162
    18  H    3.838717   3.403378   2.164823   1.082870   5.053355
    19  H    4.628395   4.924556   4.135952   2.711325   2.686286
    20  H    6.307132   6.968054   6.424464   5.042710   1.082169
    21  H    7.595023   8.561724   8.323048   7.058007   2.135396
    22  H    7.129790   8.356033   8.522137   7.524235   3.381538
    23  H    5.112104   6.452819   6.928377   6.247710   3.862800
    24  H    2.732641   4.056146   4.707547   4.367011   4.451827
    25  H    2.732641   4.056146   4.707547   4.367011   4.451827
                    6          7          8          9         10
     6  C    0.000000
     7  C    1.392978   0.000000
     8  C    2.411447   1.392146   0.000000
     9  C    4.288856   3.776904   2.489751   0.000000
    10  C    3.714519   4.208148   3.710760   2.886347   0.000000
    11  C    5.130267   4.939302   3.798443   1.475555   2.460895
    12  C    4.903300   5.099994   4.250852   2.500185   1.437328
    13  C    2.797105   2.414991   1.385300   1.491813   2.450637
    14  C    2.428901   2.803642   2.426102   2.525836   1.404507
    15  H    6.941090   6.427913   5.088338   2.672574   4.622744
    16  H    8.561716   8.358598   7.136895   4.653684   5.384856
    17  H    8.302332   8.510862   7.557023   5.345110   4.639005
    18  H    6.381148   6.897085   6.253012   4.634646   2.701011
    19  H    4.061468   4.839223   4.580634   3.967267   1.081028
    20  H    2.140683   3.385969   3.861975   4.674637   2.670477
    21  H    1.080710   2.148168   3.390918   5.369532   4.585324
    22  H    2.149574   1.080420   2.145584   4.634647   5.288561
    23  H    3.390930   2.145749   1.083001   2.683494   4.585023
    24  H    4.779450   4.097823   2.773658   1.103209   3.678636
    25  H    4.779450   4.097823   2.773658   1.103209   3.678636
                   11         12         13         14         15
    11  C    0.000000
    12  C    1.396939   0.000000
    13  C    2.524497   2.865586   0.000000
    14  C    2.871506   2.474402   1.418778   0.000000
    15  H    2.163776   3.416558   4.151423   4.909279   0.000000
    16  H    3.445148   3.947553   5.949060   6.221784   2.485830
    17  H    3.870364   3.424814   6.191274   5.880614   4.274096
    18  H    3.367855   2.141065   4.888460   4.098832   4.921838
    19  H    3.428111   2.177751   3.428542   2.157451   5.558563
    20  H    4.897357   4.103515   3.409654   2.152873   7.011150
    21  H    6.183111   5.863114   3.877806   3.406634   8.020563
    22  H    5.898945   6.153072   3.389787   3.884056   7.218902
    23  H    4.142291   4.881035   2.137795   3.407362   4.979500
    24  H    2.100158   3.226928   2.139964   3.269578   2.618200
    25  H    2.100158   3.226928   2.139964   3.269578   2.618200
                   16         17         18         19         20
    16  H    0.000000
    17  H    2.492779   0.000000
    18  H    4.302645   2.462815   0.000000
    19  H    5.988942   4.796150   2.486471   0.000000
    20  H    8.046233   7.187866   4.934600   2.448292   0.000000
    21  H    9.600448   9.219050   7.173467   4.749117   2.464734
    22  H    9.275336   9.549809   7.976268   5.903610   4.279044
    23  H    7.247315   8.005881   6.975958   5.529592   4.944957
    24  H    4.788762   5.769511   5.290074   4.736235   5.354893
    25  H    4.788762   5.769511   5.290074   4.736235   5.354893
                   21         22         23         24         25
    21  H    0.000000
    22  H    2.476728   0.000000
    23  H    4.282891   2.466543   0.000000
    24  H    5.838144   4.828569   2.683601   0.000000
    25  H    5.838144   4.828569   2.683601   1.720850   0.000000
 Stoichiometry    C14H11(1+)
 Framework group  CS[SG(C14H9),X(H2)]
 Deg. of freedom    46
 Full point group                 CS      NOp   2
 Largest Abelian subgroup         CS      NOp   2
 Largest concise Abelian subgroup CS      NOp   2
                         Standard orientation:                         
 ---------------------------------------------------------------------
 Center     Atomic      Atomic             Coordinates (Angstroms)
 Number     Number       Type             X           Y           Z
 ---------------------------------------------------------------------
      1          6           0        0.023089    2.854999    0.000000
      2          6           0       -1.144448    3.606808    0.000000
      3          6           0       -2.347629    2.930998    0.000000
      4          6           0       -2.379076    1.503203    0.000000
      5          6           0       -0.088912   -2.858742    0.000000
      6          6           0        1.080471   -3.591795    0.000000
      7          6           0        2.312218   -2.941267    0.000000
      8          6           0        2.363605   -1.550069    0.000000
      9          6           0        1.281718    0.692337    0.000000
     10          6           0       -1.247913   -0.697614    0.000000
     11          6           0        0.000000    1.423404    0.000000
     12          6           0       -1.218023    0.739403    0.000000
     13          6           0        1.200696   -0.797275    0.000000
     14          6           0       -0.060327   -1.447468    0.000000
     15          1           0        0.987556    3.348673    0.000000
     16          1           0       -1.108257    4.685430    0.000000
     17          1           0       -3.284810    3.470290    0.000000
     18          1           0       -3.342156    1.008143    0.000000
     19          1           0       -2.203820   -1.202453    0.000000
     20          1           0       -1.047688   -3.360575    0.000000
     21          1           0        1.039368   -4.671723    0.000000
     22          1           0        3.228620   -3.513555    0.000000
     23          1           0        3.323638   -1.048843    0.000000
     24          1           0        1.877368    1.041537    0.860425
     25          1           0        1.877368    1.041537   -0.860425
 ---------------------------------------------------------------------
 Rotational constants (GHZ):           2.1352985           0.4444255           0.3686624
 Standard basis: 6-311++G(d,p) (5D, 7F)
 There are   299 symmetry adapted cartesian basis functions of A'  symmetry.
 There are   100 symmetry adapted cartesian basis functions of A"  symmetry.
 There are   285 symmetry adapted basis functions of A'  symmetry.
 There are   100 symmetry adapted basis functions of A"  symmetry.
   385 basis functions,   603 primitive gaussians,   399 cartesian basis functions
    47 alpha electrons       47 beta electrons
       nuclear repulsion energy       781.0645325848 Hartrees.
 NAtoms=   25 NActive=   25 NUniq=   24 SFac= 1.09D+00 NAtFMM=   60 NAOKFM=F Big=F
 Integral buffers will be    131072 words long.
 Regular integral format.
 Two-electron integral symmetry is turned on.
 Nuclear repulsion after empirical dispersion term =      781.0635532128 Hartrees.
 One-electron integrals computed using PRISM.
 NBasis=   385 RedAO= T EigKep=  1.13D-06  NBF=   285   100
 NBsUse=   379 1.00D-06 EigRej=  8.40D-07 NBFU=   279   100
 ExpMin= 3.60D-02 ExpMax= 4.56D+03 ExpMxC= 6.82D+02 IAcc=3 IRadAn=         5 AccDes= 0.00D+00
 Harris functional with IExCor= 1009 and IRadAn=       5 diagonalized for initial guess.
 HarFok:  IExCor= 1009 AccDes= 0.00D+00 IRadAn=         5 IDoV= 1 UseB2=F ITyADJ=14
 ICtDFT=  3500011 ScaDFX=  1.000000  1.000000  1.000000  1.000000
 FoFCou: FMM=F IPFlag=           0 FMFlag=      100000 FMFlg1=           0
         NFxFlg=           0 DoJE=T BraDBF=F KetDBF=T FulRan=T
         wScrn=  0.000000 ICntrl=       500 IOpCl=  0 I1Cent=   200000004 NGrid=           0
         NMat0=    1 NMatS0=      1 NMatT0=    0 NMatD0=    1 NMtDS0=    0 NMtDT0=    0
 Petite list used in FoFCou.
 Initial guess orbital symmetries:
       Occupied  (A') (A') (A') (A') (A') (A') (A') (A') (A') (A')
                 (A') (A') (A') (A') (A') (A') (A') (A') (A') (A')
                 (A') (A') (A') (A') (A') (A') (A') (A') (A') (A')
                 (A') (A') (A") (A') (A') (A') (A') (A') (A") (A')
                 (A") (A') (A') (A") (A") (A") (A")
       Virtual   (A") (A") (A") (A") (A") (A') (A') (A') (A') (A")
                 (A") (A') (A') (A') (A") (A') (A') (A') (A') (A")
                 (A') (A") (A') (A') (A') (A") (A') (A") (A') (A')
                 (A') (A') (A') (A') (A") (A') (A") (A') (A') (A')
                 (A") (A') (A') (A") (A') (A') (A') (A') (A') (A")
                 (A') (A') (A") (A") (A') (A') (A') (A") (A") (A')
                 (A') (A') (A') (A') (A') (A') (A") (A') (A') (A")
                 (A') (A') (A') (A') (A') (A') (A') (A') (A') (A')
                 (A') (A') (A') (A') (A') (A') (A') (A') (A') (A')
                 (A') (A') (A') (A') (A') (A') (A') (A") (A') (A")
                 (A') (A') (A") (A") (A') (A") (A') (A") (A') (A")
                 (A") (A') (A') (A') (A") (A') (A') (A") (A") (A')
                 (A") (A") (A') (A') (A') (A") (A') (A') (A') (A")
                 (A') (A') (A') (A') (A') (A') (A") (A') (A') (A')
                 (A') (A') (A') (A') (A') (A') (A') (A') (A') (A")
                 (A") (A') (A") (A") (A') (A') (A') (A") (A") (A')
                 (A") (A') (A") (A") (A") (A') (A') (A') (A') (A')
                 (A') (A") (A') (A") (A') (A') (A') (A') (A') (A")
                 (A') (A') (A') (A') (A") (A') (A") (A') (A") (A")
                 (A') (A") (A') (A") (A') (A') (A') (A") (A') (A')
                 (A") (A") (A") (A') (A') (A") (A') (A") (A') (A')
                 (A") (A") (A') (A") (A') (A") (A') (A') (A') (A")
                 (A') (A') (A') (A') (A") (A') (A') (A') (A") (A")
                 (A') (A') (A') (A") (A') (A') (A") (A') (A") (A')
                 (A") (A') (A') (A') (A') (A") (A') (A') (A') (A")
                 (A') (A') (A") (A') (A") (A') (A') (A") (A') (A')
                 (A') (A") (A') (A") (A') (A') (A') (A") (A') (A")
                 (A') (A') (A') (A') (A") (A') (A") (A') (A") (A')
                 (A") (A') (A") (A") (A") (A') (A') (A') (A') (A')
                 (A') (A') (A') (A') (A') (A') (A') (A') (A') (A')
                 (A') (A') (A') (A') (A') (A") (A') (A') (A') (A')
                 (A') (A') (A') (A') (A') (A') (A') (A') (A') (A')
                 (A') (A') (A') (A') (A') (A') (A') (A') (A') (A')
                 (A') (A')
 The electronic state of the initial guess is 1-A'.
 Requested convergence on RMS density matrix=1.00D-08 within 128 cycles.
 Requested convergence on MAX density matrix=1.00D-06.
 Requested convergence on             energy=1.00D-06.
 No special actions if energy rises.
 SCF Done:  E(RM062X) =  -539.757534838     A.U. after   15 cycles
            NFock= 15  Conv=0.83D-08     -V/T= 2.0042
 DoSCS=F DFT=T ScalE2(SS,OS)=  1.000000  1.000000
 ExpMin= 3.60D-02 ExpMax= 4.56D+03 ExpMxC= 6.82D+02 IAcc=3 IRadAn=         5 AccDes= 0.00D+00
 HarFok:  IExCor=  205 AccDes= 0.00D+00 IRadAn=         5 IDoV=-2 UseB2=F ITyADJ=14
 ICtDFT= 12500011 ScaDFX=  1.000000  1.000000  1.000000  1.000000
 Range of M.O.s used for correlation:    15   379
 NBasis=   385 NAE=    47 NBE=    47 NFC=    14 NFV=     0
 NROrb=    365 NOA=    33 NOB=    33 NVA=   332 NVB=   332

 **** Warning!!: The largest alpha MO coefficient is  0.13531311D+03

 Orbital symmetries:
       Occupied  (A') (A') (A') (A') (A') (A') (A') (A') (A') (A')
                 (A') (A') (A') (A') (A') (A') (A') (A') (A') (A')
                 (A') (A') (A') (A') (A') (A') (A') (A') (A') (A')
                 (A') (A') (A") (A') (A') (A') (A') (A") (A") (A')
                 (A') (A') (A') (A") (A") (A") (A")
       Virtual   (A") (A") (A") (A") (A') (A') (A') (A') (A") (A')
                 (A') (A") (A') (A') (A") (A') (A") (A') (A') (A')
                 (A") (A") (A') (A') (A') (A") (A') (A") (A') (A')
                 (A") (A') (A") (A') (A') (A') (A') (A') (A") (A')
                 (A") (A') (A') (A") (A") (A') (A") (A') (A") (A')
                 (A') (A') (A') (A') (A') (A") (A') (A') (A') (A')
                 (A') (A") (A') (A') (A') (A") (A') (A') (A') (A')
                 (A') (A') (A') (A') (A') (A') (A') (A') (A') (A')
                 (A') (A') (A') (A') (A') (A') (A') (A') (A') (A')
                 (A') (A') (A') (A') (A") (A') (A") (A") (A') (A")
                 (A') (A') (A') (A') (A") (A") (A') (A") (A") (A')
                 (A') (A') (A") (A') (A') (A") (A') (A") (A') (A")
                 (A") (A') (A") (A') (A') (A') (A") (A') (A') (A')
                 (A') (A') (A') (A') (A') (A') (A') (A') (A') (A')
                 (A') (A') (A') (A") (A') (A') (A') (A') (A') (A')
                 (A') (A') (A") (A') (A") (A') (A") (A") (A') (A")
                 (A") (A') (A') (A") (A") (A") (A') (A") (A') (A')
                 (A') (A') (A') (A") (A") (A') (A') (A') (A') (A")
                 (A') (A') (A') (A") (A") (A') (A') (A') (A") (A")
                 (A") (A') (A') (A") (A") (A') (A') (A') (A') (A')
                 (A") (A") (A") (A') (A') (A") (A') (A") (A') (A')
                 (A') (A") (A') (A") (A") (A') (A") (A') (A') (A")
                 (A') (A') (A') (A') (A") (A') (A') (A') (A") (A")
                 (A') (A') (A') (A") (A') (A') (A') (A") (A") (A')
                 (A") (A') (A') (A") (A') (A') (A') (A') (A') (A')
                 (A") (A') (A') (A') (A') (A") (A") (A") (A') (A')
                 (A') (A') (A') (A') (A') (A') (A") (A') (A') (A')
                 (A') (A") (A') (A") (A") (A") (A') (A") (A') (A")
                 (A') (A") (A") (A') (A") (A") (A') (A') (A') (A')
                 (A') (A') (A') (A') (A') (A') (A') (A') (A') (A')
                 (A') (A') (A') (A") (A') (A') (A') (A') (A') (A')
                 (A') (A') (A') (A') (A') (A') (A') (A') (A') (A')
                 (A') (A') (A') (A') (A') (A') (A') (A') (A') (A')
                 (A') (A')
     4 initial guesses have been made.
 Convergence on wavefunction:    0.001000000000000
 Iteration     1 Dimension     4 NMult     0 NNew      4
 CISAX will form     4 AO SS matrices at one time.
 Iteration     2 Dimension     6 NMult     4 NNew      2
 Iteration     3 Dimension     8 NMult     6 NNew      2
 Iteration     4 Dimension    10 NMult     8 NNew      2
 Iteration     5 Dimension    12 NMult    10 NNew      2
 Iteration     6 Dimension    14 NMult    12 NNew      2
 ***********************************************************************
 Excited states from <AA,BB:AA,BB> singles matrix:
 ***********************************************************************
 
 Ground to excited state transition densities written to RWF  633
 Ground to excited state transition electric dipole moments (Au):
       state          X           Y           Z        Dip. S.      Osc.
         1         0.5016      0.3020      0.0000      0.3429      0.0231
 Ground to excited state transition velocity dipole moments (Au):
       state          X           Y           Z        Dip. S.      Osc.
         1        -0.0584     -0.0312      0.0000      0.0044      0.0289
 Ground to excited state transition magnetic dipole moments (Au):
       state          X           Y           Z
         1        -0.0000      0.0000      0.1619
 Ground to excited state transition velocity quadrupole moments (Au):
       state          XX          YY          ZZ          XY          XZ          YZ
         1         0.1401      0.1538     -0.0089     -0.1373     -0.0000      0.0000
 <0|del|b> * <b|rxdel|0> + <0|del|b> * <b|delr+rdel|0>
 Rotatory Strengths (R) in cgs (10**-40 erg-esu-cm/Gauss)
       state          XX          YY          ZZ    R(velocity)    E-M Angle
         1        -0.0000      0.0000      0.0000      0.0000       90.00
 1/2[<0|r|b>*<b|rxdel|0> + (<0|rxdel|b>*<b|r|0>)*]
 Rotatory Strengths (R) in cgs (10**-40 erg-esu-cm/Gauss)
       state          XX          YY          ZZ     R(length)
         1         0.0000     -0.0000     -0.0000     -0.0000
  1/2[<0|del|b>*<b|r|0> + (<0|r|b>*<b|del|0>)*] (Au)
       state          X           Y           Z        Dip. S.   Osc.(frdel)
         1        -0.0293     -0.0094      0.0000      0.0387      0.0258

 Excitation energies and oscillator strengths:
 
 Excited State   1:      Singlet-A'     2.7448 eV  451.70 nm  f=0.0231  <S**2>=0.000
      47 -> 48         0.70370
 This state for optimization and/or second-order correction.
 Total Energy, E(TD-HF/TD-DFT) =  -539.656664181    
 Copying the excited state density for this state as the 1-particle RhoCI density.
 SavETr:  write IOETrn=   770 NScale= 10 NData=  16 NLR=1 NState=    1 LETran=      28.

 **********************************************************************

            Population analysis using the SCF Density.

 **********************************************************************

 Orbital symmetries:
       Occupied  (A') (A') (A') (A') (A') (A') (A') (A') (A') (A')
                 (A') (A') (A') (A') (A') (A') (A') (A') (A') (A')
                 (A') (A') (A') (A') (A') (A') (A') (A') (A') (A')
                 (A') (A') (A") (A') (A') (A') (A') (A") (A") (A')
                 (A') (A') (A') (A") (A") (A") (A")
       Virtual   (A") (A") (A") (A") (A') (A') (A') (A') (A") (A')
                 (A') (A") (A') (A') (A") (A') (A") (A') (A') (A')
                 (A") (A") (A') (A') (A') (A") (A') (A") (A') (A')
                 (A") (A') (A") (A') (A') (A') (A') (A') (A") (A')
                 (A") (A') (A') (A") (A") (A') (A") (A') (A") (A')
                 (A') (A') (A') (A') (A') (A") (A') (A') (A') (A')
                 (A') (A") (A') (A') (A') (A") (A') (A') (A') (A')
                 (A') (A') (A') (A') (A') (A') (A') (A') (A') (A')
                 (A') (A') (A') (A') (A') (A') (A') (A') (A') (A')
                 (A') (A') (A') (A') (A") (A') (A") (A") (A') (A")
                 (A') (A') (A') (A') (A") (A") (A') (A") (A") (A')
                 (A') (A') (A") (A') (A') (A") (A') (A") (A') (A")
                 (A") (A') (A") (A') (A') (A') (A") (A') (A') (A')
                 (A') (A') (A') (A') (A') (A') (A') (A') (A') (A')
                 (A') (A') (A') (A") (A') (A') (A') (A') (A') (A')
                 (A') (A') (A") (A') (A") (A') (A") (A") (A') (A")
                 (A") (A') (A') (A") (A") (A") (A') (A") (A') (A')
                 (A') (A') (A') (A") (A") (A') (A') (A') (A') (A")
                 (A') (A') (A') (A") (A") (A') (A') (A') (A") (A")
                 (A") (A') (A') (A") (A") (A') (A') (A') (A') (A')
                 (A") (A") (A") (A') (A') (A") (A') (A") (A') (A')
                 (A') (A") (A') (A") (A") (A') (A") (A') (A') (A")
                 (A') (A') (A') (A') (A") (A') (A') (A') (A") (A")
                 (A') (A') (A') (A") (A') (A') (A') (A") (A") (A')
                 (A") (A') (A') (A") (A') (A') (A') (A') (A') (A')
                 (A") (A') (A') (A') (A') (A") (A") (A") (A') (A')
                 (A') (A') (A') (A') (A') (A') (A") (A') (A') (A')
                 (A') (A") (A') (A") (A") (A") (A') (A") (A') (A")
                 (A') (A") (A") (A') (A") (A") (A') (A') (A') (A')
                 (A') (A') (A') (A') (A') (A') (A') (A') (A') (A')
                 (A') (A') (A') (A") (A') (A') (A') (A') (A') (A')
                 (A') (A') (A') (A') (A') (A') (A') (A') (A') (A')
                 (A') (A') (A') (A') (A') (A') (A') (A') (A') (A')
                 (A') (A')
 The electronic state is 1-A'.
 Alpha  occ. eigenvalues --  -10.77638 -10.73616 -10.72894 -10.72716 -10.72134
 Alpha  occ. eigenvalues --  -10.71701 -10.71660 -10.71018 -10.70992 -10.70375
 Alpha  occ. eigenvalues --  -10.70136 -10.69838 -10.69810 -10.69430  -1.16467
 Alpha  occ. eigenvalues --   -1.12457  -1.06942  -1.05752  -1.01301  -1.00266
 Alpha  occ. eigenvalues --   -0.95688  -0.91037  -0.86427  -0.85890  -0.83795
 Alpha  occ. eigenvalues --   -0.78367  -0.76060  -0.74393  -0.69671  -0.69275
 Alpha  occ. eigenvalues --   -0.68408  -0.68128  -0.68102  -0.64993  -0.64245
 Alpha  occ. eigenvalues --   -0.62881  -0.61743  -0.60269  -0.59438  -0.59127
 Alpha  occ. eigenvalues --   -0.56910  -0.55251  -0.54689  -0.52441  -0.46933
 Alpha  occ. eigenvalues --   -0.46101  -0.44165
 Alpha virt. eigenvalues --   -0.26102  -0.14666  -0.14089  -0.12770  -0.11183
 Alpha virt. eigenvalues --   -0.10087  -0.09242  -0.07973  -0.07955  -0.07479
 Alpha virt. eigenvalues --   -0.07204  -0.07140  -0.05645  -0.05577  -0.05340
 Alpha virt. eigenvalues --   -0.03837  -0.03654  -0.03276  -0.03134  -0.02162
 Alpha virt. eigenvalues --   -0.01358  -0.00941   0.00193   0.00593   0.00643
 Alpha virt. eigenvalues --    0.01060   0.01510   0.01939   0.02182   0.02302
 Alpha virt. eigenvalues --    0.02449   0.02670   0.02765   0.03286   0.03428
 Alpha virt. eigenvalues --    0.04233   0.04498   0.04710   0.05036   0.05376
 Alpha virt. eigenvalues --    0.06030   0.06290   0.06588   0.07043   0.07264
 Alpha virt. eigenvalues --    0.07897   0.08119   0.08353   0.08580   0.08920
 Alpha virt. eigenvalues --    0.09511   0.09579   0.10002   0.10838   0.10985
 Alpha virt. eigenvalues --    0.11124   0.12131   0.12246   0.12790   0.13008
 Alpha virt. eigenvalues --    0.13438   0.13525   0.13995   0.14358   0.16002
 Alpha virt. eigenvalues --    0.16384   0.16414   0.17336   0.17548   0.17795
 Alpha virt. eigenvalues --    0.18118   0.19071   0.19318   0.19621   0.19815
 Alpha virt. eigenvalues --    0.21501   0.21618   0.22691   0.23136   0.23554
 Alpha virt. eigenvalues --    0.23892   0.24569   0.25414   0.26930   0.27606
 Alpha virt. eigenvalues --    0.28841   0.29269   0.29877   0.31348   0.35777
 Alpha virt. eigenvalues --    0.36432   0.38199   0.39276   0.41106   0.41353
 Alpha virt. eigenvalues --    0.41952   0.42172   0.42983   0.43681   0.44337
 Alpha virt. eigenvalues --    0.44844   0.45094   0.45967   0.46302   0.47940
 Alpha virt. eigenvalues --    0.48467   0.48816   0.49038   0.50466   0.51085
 Alpha virt. eigenvalues --    0.51337   0.51900   0.52128   0.52822   0.54052
 Alpha virt. eigenvalues --    0.54106   0.54606   0.55662   0.55846   0.57562
 Alpha virt. eigenvalues --    0.58230   0.58878   0.61464   0.62238   0.62377
 Alpha virt. eigenvalues --    0.63182   0.63482   0.64919   0.65152   0.67309
 Alpha virt. eigenvalues --    0.70394   0.70542   0.71111   0.72450   0.72881
 Alpha virt. eigenvalues --    0.75669   0.76040   0.76353   0.76815   0.77112
 Alpha virt. eigenvalues --    0.77851   0.77926   0.78244   0.79907   0.80390
 Alpha virt. eigenvalues --    0.81233   0.81587   0.82284   0.82997   0.85196
 Alpha virt. eigenvalues --    0.87093   0.88150   0.88361   0.89218   0.90521
 Alpha virt. eigenvalues --    0.91040   0.91339   0.93241   0.94605   0.96331
 Alpha virt. eigenvalues --    0.96796   1.00311   1.01264   1.01610   1.02772
 Alpha virt. eigenvalues --    1.03228   1.03315   1.04799   1.05996   1.08806
 Alpha virt. eigenvalues --    1.19558   1.23116   1.24107   1.24730   1.28444
 Alpha virt. eigenvalues --    1.29502   1.31996   1.34321   1.35749   1.35981
 Alpha virt. eigenvalues --    1.39322   1.39891   1.40903   1.43008   1.43472
 Alpha virt. eigenvalues --    1.43520   1.44379   1.46350   1.46353   1.46633
 Alpha virt. eigenvalues --    1.47669   1.48080   1.51722   1.53643   1.55670
 Alpha virt. eigenvalues --    1.55800   1.56316   1.56584   1.57782   1.61433
 Alpha virt. eigenvalues --    1.63144   1.63383   1.64041   1.66083   1.68303
 Alpha virt. eigenvalues --    1.68327   1.68718   1.69796   1.74379   1.75993
 Alpha virt. eigenvalues --    1.77148   1.78065   1.79873   1.80047   1.80775
 Alpha virt. eigenvalues --    1.82979   1.83205   1.83591   1.83824   1.84185
 Alpha virt. eigenvalues --    1.84426   1.85606   1.86292   1.88285   1.91394
 Alpha virt. eigenvalues --    1.92093   1.94081   1.95248   1.97728   1.98141
 Alpha virt. eigenvalues --    1.99752   2.02320   2.04441   2.07283   2.11754
 Alpha virt. eigenvalues --    2.12093   2.14176   2.15245   2.19053   2.21182
 Alpha virt. eigenvalues --    2.22764   2.28580   2.30140   2.34530   2.34855
 Alpha virt. eigenvalues --    2.36287   2.38635   2.39637   2.42337   2.44745
 Alpha virt. eigenvalues --    2.46128   2.46382   2.49266   2.52912   2.53781
 Alpha virt. eigenvalues --    2.54187   2.56867   2.57870   2.58359   2.59512
 Alpha virt. eigenvalues --    2.59878   2.61559   2.62124   2.63541   2.63741
 Alpha virt. eigenvalues --    2.64800   2.65079   2.65104   2.65485   2.67883
 Alpha virt. eigenvalues --    2.68427   2.70933   2.71438   2.73353   2.74808
 Alpha virt. eigenvalues --    2.76293   2.78509   2.79670   2.82909   2.83122
 Alpha virt. eigenvalues --    2.84853   2.86247   2.92100   2.97068   2.99452
 Alpha virt. eigenvalues --    3.00088   3.04911   3.10138   3.11272   3.13671
 Alpha virt. eigenvalues --    3.20737   3.22708   3.26477   3.28457   3.30594
 Alpha virt. eigenvalues --    3.32785   3.34229   3.43646   3.46052   3.46603
 Alpha virt. eigenvalues --    3.48331   3.50033   3.56394   3.66144   3.66786
 Alpha virt. eigenvalues --    3.67634   3.93990   3.94186   3.95361   3.96331
 Alpha virt. eigenvalues --    4.03960   4.06656   4.07556   4.12543   4.35310
 Alpha virt. eigenvalues --    4.60961   4.69472   4.71398  23.45290  23.60271
 Alpha virt. eigenvalues --   23.81141  23.83769  23.86343  23.89061  23.91330
 Alpha virt. eigenvalues --   23.94389  23.96194  23.97810  24.01807  24.03629
 Alpha virt. eigenvalues --   24.10888  24.11717
          Condensed to atoms (all electrons):
               1          2          3          4          5          6
     1  C    8.877092   0.066549  -0.428937   2.222363  -0.076288  -0.103251
     2  C    0.066549   7.189365   0.275854  -1.183380   0.006510  -0.013448
     3  C   -0.428937   0.275854   6.593316   0.815147  -0.136394   0.016908
     4  C    2.222363  -1.183380   0.815147  10.841406  -0.394545  -0.116816
     5  C   -0.076288   0.006510  -0.136394  -0.394545  11.420214   0.736490
     6  C   -0.103251  -0.013448   0.016908  -0.116816   0.736490   6.600273
     7  C   -0.004362   0.000172  -0.014888  -0.031069  -1.035682   0.400230
     8  C    0.404612  -0.026360  -0.088788  -0.016871   1.861393  -0.616020
     9  C   -1.113566  -0.792012   0.296446  -0.346540  -0.030063   0.297200
    10  C   -1.372037   0.323250  -0.410534  -2.448211  -2.731493  -0.289167
    11  C    0.309226  -0.958759   1.077530  -0.316121  -1.570871  -0.210390
    12  C   -2.501464   1.639751  -1.480393  -1.670185  -0.424194  -0.140635
    13  C    0.274865  -0.283208  -0.130018  -1.447878  -0.319463   0.921079
    14  C   -1.060577  -0.111462  -0.259173  -0.256098  -1.673186  -1.363986
    15  H    0.370308  -0.108615   0.000622   0.029556   0.004859   0.001014
    16  H   -0.017592   0.375865  -0.013739   0.011058  -0.001394  -0.000306
    17  H   -0.030747  -0.010319   0.370276  -0.067179   0.000431   0.000391
    18  H    0.053473   0.002187  -0.084413   0.456514   0.005729  -0.005238
    19  H   -0.048032  -0.007521   0.051650  -0.063818  -0.077412   0.051306
    20  H    0.007036   0.002119  -0.005065   0.005749   0.465197  -0.083979
    21  H   -0.001374  -0.000382   0.000411   0.000194  -0.069748   0.379606
    22  H    0.000950   0.000395  -0.000349  -0.001649   0.015945  -0.020397
    23  H    0.005039  -0.002821   0.001196   0.006180   0.026211  -0.002549
    24  H    0.029855   0.013496  -0.001754  -0.012882  -0.011526  -0.001405
    25  H    0.029855   0.013496  -0.001754  -0.012882  -0.011526  -0.001405
               7          8          9         10         11         12
     1  C   -0.004362   0.404612  -1.113566  -1.372037   0.309226  -2.501464
     2  C    0.000172  -0.026360  -0.792012   0.323250  -0.958759   1.639751
     3  C   -0.014888  -0.088788   0.296446  -0.410534   1.077530  -1.480393
     4  C   -0.031069  -0.016871  -0.346540  -2.448211  -0.316121  -1.670185
     5  C   -1.035682   1.861393  -0.030063  -2.731493  -1.570871  -0.424194
     6  C    0.400230  -0.616020   0.297200  -0.289167  -0.210390  -0.140635
     7  C    7.182882   0.437828  -0.850080   0.190601  -0.218253  -0.263925
     8  C    0.437828   8.443933  -1.127981  -1.239781   0.213013  -1.126733
     9  C   -0.850080  -1.127981   9.584820   0.259500   1.478322  -1.770132
    10  C    0.190601  -1.239781   0.259500   9.105909  -0.446785   2.452104
    11  C   -0.218253   0.213013   1.478322  -0.446785  14.311482  -3.453863
    12  C   -0.263925  -1.126733  -1.770132   2.452104  -3.453863  15.939083
    13  C   -0.820514   0.332637   1.580854  -0.329242   1.088782  -4.802865
    14  C    1.149180  -1.945428  -2.036117   2.394173  -4.725965   3.146706
    15  H   -0.002397   0.006304   0.093927  -0.010781  -0.032711  -0.032955
    16  H    0.000335   0.000502   0.003618  -0.008280   0.025581  -0.032663
    17  H   -0.000415  -0.001253  -0.006164   0.020338  -0.027133   0.096383
    18  H    0.002061   0.006973  -0.025566   0.013116  -0.003136  -0.063062
    19  H   -0.008128  -0.044748   0.074975   0.422046   0.080479  -0.051903
    20  H    0.003425   0.048687  -0.023137   0.007992  -0.012256  -0.019512
    21  H   -0.020744  -0.021762  -0.005004   0.020104  -0.006285   0.005265
    22  H    0.382400  -0.020015   0.002071  -0.009965   0.003302  -0.010007
    23  H   -0.106911   0.367884   0.088414  -0.008399  -0.002048   0.007315
    24  H    0.015591   0.036752   0.355706   0.005305   0.005751  -0.060514
    25  H    0.015591   0.036752   0.355706   0.005305   0.005751  -0.060514
              13         14         15         16         17         18
     1  C    0.274865  -1.060577   0.370308  -0.017592  -0.030747   0.053473
     2  C   -0.283208  -0.111462  -0.108615   0.375865  -0.010319   0.002187
     3  C   -0.130018  -0.259173   0.000622  -0.013739   0.370276  -0.084413
     4  C   -1.447878  -0.256098   0.029556   0.011058  -0.067179   0.456514
     5  C   -0.319463  -1.673186   0.004859  -0.001394   0.000431   0.005729
     6  C    0.921079  -1.363986   0.001014  -0.000306   0.000391  -0.005238
     7  C   -0.820514   1.149180  -0.002397   0.000335  -0.000415   0.002061
     8  C    0.332637  -1.945428   0.006304   0.000502  -0.001253   0.006973
     9  C    1.580854  -2.036117   0.093927   0.003618  -0.006164  -0.025566
    10  C   -0.329242   2.394173  -0.010781  -0.008280   0.020338   0.013116
    11  C    1.088782  -4.725965  -0.032711   0.025581  -0.027133  -0.003136
    12  C   -4.802865   3.146706  -0.032955  -0.032663   0.096383  -0.063062
    13  C   14.497019  -3.985383   0.005417   0.002626  -0.006241  -0.012043
    14  C   -3.985383  16.231854   0.005268  -0.008062   0.005337  -0.010409
    15  H    0.005417   0.005268   0.443066  -0.008999   0.001306   0.000087
    16  H    0.002626  -0.008062  -0.008999   0.421643  -0.006179   0.001901
    17  H   -0.006241   0.005337   0.001306  -0.006179   0.424137  -0.010412
    18  H   -0.012043  -0.010409   0.000087   0.001901  -0.010412   0.457704
    19  H    0.076912  -0.080181   0.000253  -0.000500   0.001219  -0.006675
    20  H   -0.007681  -0.050611  -0.000106   0.000012  -0.000128   0.001251
    21  H   -0.025855   0.088172   0.000012  -0.000007   0.000010  -0.000160
    22  H    0.024859  -0.030408  -0.000130   0.000008  -0.000007   0.000018
    23  H   -0.029685  -0.016396   0.000560  -0.000125   0.000016  -0.000122
    24  H    0.021559  -0.060149  -0.000895   0.000635  -0.000148   0.000214
    25  H    0.021559  -0.060149  -0.000895   0.000635  -0.000148   0.000214
              19         20         21         22         23         24
     1  C   -0.048032   0.007036  -0.001374   0.000950   0.005039   0.029855
     2  C   -0.007521   0.002119  -0.000382   0.000395  -0.002821   0.013496
     3  C    0.051650  -0.005065   0.000411  -0.000349   0.001196  -0.001754
     4  C   -0.063818   0.005749   0.000194  -0.001649   0.006180  -0.012882
     5  C   -0.077412   0.465197  -0.069748   0.015945   0.026211  -0.011526
     6  C    0.051306  -0.083979   0.379606  -0.020397  -0.002549  -0.001405
     7  C   -0.008128   0.003425  -0.020744   0.382400  -0.106911   0.015591
     8  C   -0.044748   0.048687  -0.021762  -0.020015   0.367884   0.036752
     9  C    0.074975  -0.023137  -0.005004   0.002071   0.088414   0.355706
    10  C    0.422046   0.007992   0.020104  -0.009965  -0.008399   0.005305
    11  C    0.080479  -0.012256  -0.006285   0.003302  -0.002048   0.005751
    12  C   -0.051903  -0.019512   0.005265  -0.010007   0.007315  -0.060514
    13  C    0.076912  -0.007681  -0.025855   0.024859  -0.029685   0.021559
    14  C   -0.080181  -0.050611   0.088172  -0.030408  -0.016396  -0.060149
    15  H    0.000253  -0.000106   0.000012  -0.000130   0.000560  -0.000895
    16  H   -0.000500   0.000012  -0.000007   0.000008  -0.000125   0.000635
    17  H    0.001219  -0.000128   0.000010  -0.000007   0.000016  -0.000148
    18  H   -0.006675   0.001251  -0.000160   0.000018  -0.000122   0.000214
    19  H    0.443277  -0.005916   0.001637  -0.000589   0.000384   0.000583
    20  H   -0.005916   0.450273  -0.010186   0.001960   0.000214   0.000157
    21  H    0.001637  -0.010186   0.420623  -0.006967   0.001615  -0.000137
    22  H   -0.000589   0.001960  -0.006967   0.417225  -0.008988   0.000630
    23  H    0.000384   0.000214   0.001615  -0.008988   0.435773  -0.000939
    24  H    0.000583   0.000157  -0.000137   0.000630  -0.000939   0.493241
    25  H    0.000583   0.000157  -0.000137   0.000630  -0.000939  -0.078913
              25
     1  C    0.029855
     2  C    0.013496
     3  C   -0.001754
     4  C   -0.012882
     5  C   -0.011526
     6  C   -0.001405
     7  C    0.015591
     8  C    0.036752
     9  C    0.355706
    10  C    0.005305
    11  C    0.005751
    12  C   -0.060514
    13  C    0.021559
    14  C   -0.060149
    15  H   -0.000895
    16  H    0.000635
    17  H   -0.000148
    18  H    0.000214
    19  H    0.000583
    20  H    0.000157
    21  H   -0.000137
    22  H    0.000630
    23  H   -0.000939
    24  H   -0.078913
    25  H    0.493241
 Mulliken charges:
               1
     1  C    0.107004
     2  C   -0.410720
     3  C   -0.443157
     4  C   -0.002047
     5  C    0.020803
     6  C   -0.435505
     7  C   -0.402927
     8  C    0.078468
     9  C   -0.345197
    10  C    0.084931
    11  C   -0.614642
    12  C    0.678910
    13  C   -0.648092
    14  C    0.713049
    15  H    0.235923
    16  H    0.253429
    17  H    0.246630
    18  H    0.219794
    19  H    0.190119
    20  H    0.224349
    21  H    0.251101
    22  H    0.259079
    23  H    0.239122
    24  H    0.249787
    25  H    0.249787
 Sum of Mulliken charges =   1.00000
 Mulliken charges with hydrogens summed into heavy atoms:
               1
     1  C    0.342927
     2  C   -0.157291
     3  C   -0.196527
     4  C    0.217748
     5  C    0.245152
     6  C   -0.184404
     7  C   -0.143848
     8  C    0.317590
     9  C    0.154377
    10  C    0.275050
    11  C   -0.614642
    12  C    0.678910
    13  C   -0.648092
    14  C    0.713049
 Electronic spatial extent (au):  <R**2>=           2857.0623
 Charge=              1.0000 electrons
 Dipole moment (field-independent basis, Debye):
    X=              0.1657    Y=             -0.7036    Z=              0.0000  Tot=              0.7229
 Quadrupole moment (field-independent basis, Debye-Ang):
   XX=            -51.0087   YY=            -36.3193   ZZ=            -84.1382
   XY=            -10.2566   XZ=             -0.0000   YZ=             -0.0000
 Traceless Quadrupole moment (field-independent basis, Debye-Ang):
   XX=              6.1467   YY=             20.8361   ZZ=            -26.9828
   XY=            -10.2566   XZ=             -0.0000   YZ=             -0.0000
 Octapole moment (field-independent basis, Debye-Ang**2):
  XXX=              2.0992  YYY=             -0.8224  ZZZ=              0.0000  XYY=              2.0914
  XXY=             -7.1361  XXZ=              0.0000  XZZ=              3.2162  YZZ=              0.5580
  YYZ=             -0.0000  XYZ=             -0.0000
 Hexadecapole moment (field-independent basis, Debye-Ang**3):
 XXXX=           -989.4710 YYYY=          -1848.8589 ZZZZ=            -99.3309 XXXY=            348.1741
 XXXZ=             -0.0000 YYYX=            274.2719 YYYZ=             -0.0000 ZZZX=              0.0000
 ZZZY=              0.0000 XXYY=           -454.7323 XXZZ=           -241.7669 YYZZ=           -494.9327
 XXYZ=              0.0000 YYXZ=              0.0000 ZZXY=            183.1172
 N-N= 7.810635532128D+02 E-N=-2.798470191988D+03  KE= 5.375084462451D+02
 Symmetry A'   KE= 5.228584611150D+02
 Symmetry A"   KE= 1.464998513005D+01
 Unable to Open any file for archive entry.
 1\1\GINC-GADI-CPU-CLX-0648\SP\RM062X TD-FC\6-311++G(d,p)\C14H11(1+)\TS
 1578\27-Jul-2022\0\\#n M062X/6-311++G(d,p) TD(NStates=1) EmpiricalDisp
 ersion=GD3 SP\\SP_100\\1,1\C,0,2.51125,1.3679,0.\C,0,3.722775,0.68925,
 0.\C,0,3.6901,-0.69035,0.\C,0,2.443775,-1.387675,0.\C,0,-2.482775,-1.4
 10425,0.\C,0,-3.6786,-0.72135,0.\C,0,-3.68165,0.671625,0.\C,0,-2.477,1
 .3694,0.\C,0,0.0109,1.4654,0.\C,0,-0.0305,-1.42065,0.\C,0,1.25765,0.67
 6175,0.\C,0,1.2247,-0.720375,0.\C,0,-1.266775,0.6953,0.\C,0,-1.2497,-0
 .723375,0.\H,0,2.495,2.45125,0.\H,0,4.658475,1.227025,0.\H,0,4.6059,-1
 .2652,0.\H,0,2.45815,-2.47045,0.\H,0,-0.028125,-2.501675,0.\H,0,-2.476
 4,-2.492575,0.\H,0,-4.61315,-1.264075,0.\H,0,-4.61685,1.21265,0.\H,0,-
 2.4845,2.452375,0.\H,0,0.04,2.15525,-0.860425\H,0,0.04,2.15525,0.86042
 5\\Version=ES64L-G16RevC.01\State=1-A'\HF=-539.7575348\RMSD=8.281e-09\
 PG=CS [SG(C14H9),X(H2)]\\@
 The archive entry for this job was punched.


 PENOTUS DIED A HUNDRED YEARS OLD WANTING BUT TWO...
 AND HE USED TO SAY BEFORE HE DIED, HAVING SPENT HIS
 WHOLE LIFE IN VAINLY SEARCHING AFTER THE PHILOSOPHER'S
 STONE, THAT IF HE HAD A MORTAL ENEMY HE DID NOT DARE
 TO ENCOUNTER OPENLY, HE WOULD ADVISE HIM ABOVE ALL
 THINGS TO GIVE HIMSELF UP TO THE STUDY AND PRACTICE
 OF ALCHEMY.  --  NICOLAS LEMERY, M.D.
 "A COURSE OF CHYMISTRY", WALTER KETTILBY, LONDON, 1686
 Job cpu time:       0 days  0 hours 45 minutes 10.5 seconds.
 Elapsed time:       0 days  0 hours  1 minutes 25.2 seconds.
 File lengths (MBytes):  RWF=    460 Int=      0 D2E=      0 Chk=     15 Scr=      1
 Normal termination of Gaussian 16 at Wed Jul 27 12:20:54 2022.
