 Entering Gaussian System, Link 0=g16
 Initial command:
 /apps/gaussian/g16c01/g16/l1.exe "/jobfs/52804872.gadi-pbs/Gau-1421975.inp" -scrdir="/jobfs/52804872.gadi-pbs/"
 Entering Link 1 = /apps/gaussian/g16c01/g16/l1.exe PID=   1421976.
  
 Copyright (c) 1988-2019, Gaussian, Inc.  All Rights Reserved.
  
 This is part of the Gaussian(R) 16 program.  It is based on
 the Gaussian(R) 09 system (copyright 2009, Gaussian, Inc.),
 the Gaussian(R) 03 system (copyright 2003, Gaussian, Inc.),
 the Gaussian(R) 98 system (copyright 1998, Gaussian, Inc.),
 the Gaussian(R) 94 system (copyright 1995, Gaussian, Inc.),
 the Gaussian 92(TM) system (copyright 1992, Gaussian, Inc.),
 the Gaussian 90(TM) system (copyright 1990, Gaussian, Inc.),
 the Gaussian 88(TM) system (copyright 1988, Gaussian, Inc.),
 the Gaussian 86(TM) system (copyright 1986, Carnegie Mellon
 University), and the Gaussian 82(TM) system (copyright 1983,
 Carnegie Mellon University). Gaussian is a federally registered
 trademark of Gaussian, Inc.
  
 This software contains proprietary and confidential information,
 including trade secrets, belonging to Gaussian, Inc.
  
 This software is provided under written license and may be
 used, copied, transmitted, or stored only in accord with that
 written license.
  
 The following legend is applicable only to US Government
 contracts under FAR:
  
                    RESTRICTED RIGHTS LEGEND
  
 Use, reproduction and disclosure by the US Government is
 subject to restrictions as set forth in subparagraphs (a)
 and (c) of the Commercial Computer Software - Restricted
 Rights clause in FAR 52.227-19.
  
 Gaussian, Inc.
 340 Quinnipiac St., Bldg. 40, Wallingford CT 06492
  
  
 ---------------------------------------------------------------
 Warning -- This program may not be used in any manner that
 competes with the business of Gaussian, Inc. or will provide
 assistance to any competitor of Gaussian, Inc.  The licensee
 of this program is prohibited from giving any competitor of
 Gaussian, Inc. access to this program.  By using this program,
 the user acknowledges that Gaussian, Inc. is engaged in the
 business of creating and licensing software in the field of
 computational chemistry and represents and warrants to the
 licensee that it is not a competitor of Gaussian, Inc. and that
 it will not use this program in any manner prohibited above.
 ---------------------------------------------------------------
  

 Cite this work as:
 Gaussian 16, Revision C.01,
 M. J. Frisch, G. W. Trucks, H. B. Schlegel, G. E. Scuseria, 
 M. A. Robb, J. R. Cheeseman, G. Scalmani, V. Barone, 
 G. A. Petersson, H. Nakatsuji, X. Li, M. Caricato, A. V. Marenich, 
 J. Bloino, B. G. Janesko, R. Gomperts, B. Mennucci, H. P. Hratchian, 
 J. V. Ortiz, A. F. Izmaylov, J. L. Sonnenberg, D. Williams-Young, 
 F. Ding, F. Lipparini, F. Egidi, J. Goings, B. Peng, A. Petrone, 
 T. Henderson, D. Ranasinghe, V. G. Zakrzewski, J. Gao, N. Rega, 
 G. Zheng, W. Liang, M. Hada, M. Ehara, K. Toyota, R. Fukuda, 
 J. Hasegawa, M. Ishida, T. Nakajima, Y. Honda, O. Kitao, H. Nakai, 
 T. Vreven, K. Throssell, J. A. Montgomery, Jr., J. E. Peralta, 
 F. Ogliaro, M. J. Bearpark, J. J. Heyd, E. N. Brothers, K. N. Kudin, 
 V. N. Staroverov, T. A. Keith, R. Kobayashi, J. Normand, 
 K. Raghavachari, A. P. Rendell, J. C. Burant, S. S. Iyengar, 
 J. Tomasi, M. Cossi, J. M. Millam, M. Klene, C. Adamo, R. Cammi, 
 J. W. Ochterski, R. L. Martin, K. Morokuma, O. Farkas, 
 J. B. Foresman, and D. J. Fox, Gaussian, Inc., Wallingford CT, 2019.
 
 ******************************************
 Gaussian 16:  ES64L-G16RevC.01  3-Jul-2019
                27-Jul-2022 
 ******************************************
 %NProcShared=32
 Will use up to   32 processors via shared memory.
 %mem = 128GB
 ---------------------------------------------------------------
 #n M062X/6-311++G(d,p) TD(NStates=1) EmpiricalDispersion=GD3 SP
 ---------------------------------------------------------------
 1/38=1,172=1/1;
 2/12=2,17=6,18=5,40=1/2;
 3/5=4,6=6,7=1111,11=9,25=1,30=1,74=-55,124=31/1,2,3,8;
 4//1;
 5/5=2,38=5/2;
 8/6=1,10=2,108=1/1;
 9/41=1,42=1,70=2/14;
 6/7=2,8=2,9=2,10=2/1;
 99/5=1,9=1/99;
 ------
 SP_-50
 ------
 Symbolic Z-matrix:
 Charge =  1 Multiplicity = 1
 C                     2.4731    1.3697    0. 
 C                     3.6773    0.66995   0. 
 C                     3.6773   -0.7242    0. 
 C                     2.48665  -1.41265   0. 
 C                    -2.43985  -1.38535   0. 
 C                    -3.6911   -0.687     0. 
 C                    -3.72665   0.6911    0. 
 C                    -2.5142    1.3679    0. 
 C                    -0.01315   1.4643    0. 
 C                     0.0366   -1.4206    0. 
 C                     1.26765   0.6972    0. 
 C                     1.2523   -0.72375   0. 
 C                    -1.2567    0.67425   0. 
 C                    -1.2223   -0.72015   0. 
 H                     2.4829    2.45265   0. 
 H                     4.6124    1.2114    0. 
 H                     4.6138   -1.26365   0. 
 H                     2.4783   -2.49475   0. 
 H                     0.03375  -2.50165   0. 
 H                    -2.4564   -2.4682    0. 
 H                    -4.6051   -1.265     0. 
 H                    -4.66235   1.22865   0. 
 H                    -2.4955    2.4513    0. 
 H                    -0.048     2.155    -0.86015 
 H                    -0.048     2.155     0.86015 
 
                          Input orientation:                          
 ---------------------------------------------------------------------
 Center     Atomic      Atomic             Coordinates (Angstroms)
 Number     Number       Type             X           Y           Z
 ---------------------------------------------------------------------
      1          6           0        2.473100    1.369700    0.000000
      2          6           0        3.677300    0.669950    0.000000
      3          6           0        3.677300   -0.724200    0.000000
      4          6           0        2.486650   -1.412650    0.000000
      5          6           0       -2.439850   -1.385350    0.000000
      6          6           0       -3.691100   -0.687000    0.000000
      7          6           0       -3.726650    0.691100    0.000000
      8          6           0       -2.514200    1.367900    0.000000
      9          6           0       -0.013150    1.464300    0.000000
     10          6           0        0.036600   -1.420600    0.000000
     11          6           0        1.267650    0.697200    0.000000
     12          6           0        1.252300   -0.723750    0.000000
     13          6           0       -1.256700    0.674250    0.000000
     14          6           0       -1.222300   -0.720150    0.000000
     15          1           0        2.482900    2.452650    0.000000
     16          1           0        4.612400    1.211400    0.000000
     17          1           0        4.613800   -1.263650    0.000000
     18          1           0        2.478300   -2.494750    0.000000
     19          1           0        0.033750   -2.501650    0.000000
     20          1           0       -2.456400   -2.468200    0.000000
     21          1           0       -4.605100   -1.265000    0.000000
     22          1           0       -4.662350    1.228650    0.000000
     23          1           0       -2.495500    2.451300    0.000000
     24          1           0       -0.048000    2.155000   -0.860150
     25          1           0       -0.048000    2.155000    0.860150
 ---------------------------------------------------------------------
                    Distance matrix (angstroms):
                    1          2          3          4          5
     1  C    0.000000
     2  C    1.392748   0.000000
     3  C    2.415474   1.394150   0.000000
     4  C    2.782383   2.398931   1.375358   0.000000
     5  C    5.632706   6.453199   6.152775   4.926576   0.000000
     6  C    6.498260   7.492305   7.368494   6.220222   1.432941
     7  C    6.236778   7.403980   7.538007   6.559791   2.442846
     8  C    4.987300   6.230715   6.535408   5.721884   2.754254
     9  C    2.488049   3.774972   4.290566   3.811278   3.742910
    10  C    3.704363   4.198225   3.706706   2.450063   2.476701
    11  C    1.380350   2.409804   2.797640   2.436684   4.252361
    12  C    2.423404   2.796967   2.425000   1.413578   3.750958
    13  C    3.794082   4.934002   5.128354   4.285770   2.375247
    14  C    4.245404   5.092981   4.899602   3.773045   1.387415
    15  H    1.082994   2.145836   3.393960   3.865302   6.242092
    16  H    2.145149   1.080546   2.149642   3.377048   7.515141
    17  H    3.393690   2.148451   1.080758   2.132362   7.054700
    18  H    3.864453   3.384217   2.138328   1.082132   5.041723
    19  H    4.575782   4.830580   4.053984   2.683773   2.713821
    20  H    6.247355   6.889867   6.376818   5.054496   1.082976
    21  H    7.552652   8.505421   8.300037   7.093287   2.168592
    22  H    7.136844   8.358344   8.565243   7.621330   3.431108
    23  H    5.084963   6.424692   6.941704   6.304913   3.837054
    24  H    2.777139   4.101596   4.786179   4.460094   4.358312
    25  H    2.777139   4.101596   4.786179   4.460094   4.358312
                    6          7          8          9         10
     6  C    0.000000
     7  C    1.378558   0.000000
     8  C    2.368060   1.388558   0.000000
     9  C    4.260916   3.793141   2.502907   0.000000
    10  C    3.799199   4.315244   3.779195   2.885329   0.000000
    11  C    5.148321   4.994304   3.840863   1.492947   2.449604
    12  C    4.943537   5.176074   4.308308   2.527633   1.401259
    13  C    2.789141   2.470007   1.436126   1.473294   2.461914
    14  C    2.469023   2.874612   2.455394   2.496771   1.440645
    15  H    6.926448   6.454577   5.113481   2.684605   4.581097
    16  H    8.517748   8.355266   7.128318   4.632458   5.278766
    17  H    8.324896   8.566455   7.598252   5.371255   4.579890
    18  H    6.428799   6.975030   6.312299   4.677756   2.667526
    19  H    4.143364   4.932977   4.633084   3.966227   1.081054
    20  H    2.167293   3.405101   3.836535   4.629690   2.704166
    21  H    1.081425   2.144295   3.362146   5.341824   4.644307
    22  H    2.147799   1.079117   2.152659   4.655168   5.394317
    23  H    3.358331   2.148030   1.083561   2.671372   4.626353
    24  H    4.699894   4.051583   2.727916   1.103693   3.678577
    25  H    4.699894   4.051583   2.727916   1.103693   3.678577
                   11         12         13         14         15
    11  C    0.000000
    12  C    1.421033   0.000000
    13  C    2.524454   2.872192   0.000000
    14  C    2.865088   2.474603   1.394824   0.000000
    15  H    2.135050   3.406449   4.140932   4.878029   0.000000
    16  H    3.384044   3.877509   5.893629   6.146105   2.464847
    17  H    3.878357   3.404581   6.182089   5.861353   4.283879
    18  H    3.413828   2.153954   4.898243   4.104101   4.947402
    19  H    3.428579   2.155410   3.428061   2.179772   5.526611
    20  H    4.887566   4.098483   3.363669   2.139785   6.972191
    21  H    6.191884   5.882354   3.869428   3.426397   8.003791
    22  H    5.953767   6.228559   3.450480   3.953703   7.249329
    23  H    4.151887   4.911919   2.166225   3.417475   4.978400
    24  H    2.143822   3.273811   2.096052   3.222627   2.689593
    25  H    2.143822   3.273811   2.096052   3.222627   2.689593
                   16         17         18         19         20
    16  H    0.000000
    17  H    2.475050   0.000000
    18  H    4.276673   2.464948   0.000000
    19  H    5.894979   4.744418   2.444560   0.000000
    20  H    7.969152   7.172076   4.934771   2.490375   0.000000
    21  H    9.544363   9.218900   7.189356   4.800857   2.462641
    22  H    9.274766   9.605130   8.053111   5.997374   4.304987
    23  H    7.215233   8.021409   7.014421   5.561368   4.919655
    24  H    4.832139   5.844605   5.361178   4.736130   5.283392
    25  H    4.832139   5.844605   5.361178   4.736130   5.283392
                   21         22         23         24         25
    21  H    0.000000
    22  H    2.494307   0.000000
    23  H    4.273324   2.487994   0.000000
    24  H    5.762241   4.784371   2.611112   0.000000
    25  H    5.762241   4.784371   2.611112   1.720300   0.000000
 Stoichiometry    C14H11(1+)
 Framework group  CS[SG(C14H9),X(H2)]
 Deg. of freedom    46
 Full point group                 CS      NOp   2
 Largest Abelian subgroup         CS      NOp   2
 Largest concise Abelian subgroup CS      NOp   2
                         Standard orientation:                         
 ---------------------------------------------------------------------
 Center     Atomic      Atomic             Coordinates (Angstroms)
 Number     Number       Type             X           Y           Z
 ---------------------------------------------------------------------
      1          6           0       -2.360768   -1.548579    0.000000
      2          6           0       -2.306242   -2.940259    0.000000
      3          6           0       -1.074331   -3.592984    0.000000
      4          6           0        0.091452   -2.863215    0.000000
      5          6           0        2.373859    1.502763    0.000000
      6          6           0        2.342597    2.935363    0.000000
      7          6           0        1.141513    3.611986    0.000000
      8          6           0       -0.024182    2.857500    0.000000
      9          6           0       -1.280326    0.692634    0.000000
     10          6           0        1.245562   -0.702003    0.000000
     11          6           0       -1.202150   -0.798265    0.000000
     12          6           0        0.060628   -1.449973    0.000000
     13          6           0        0.000000    1.421578    0.000000
     14          6           0        1.216026    0.738340    0.000000
     15          1           0       -3.322282   -1.050214    0.000000
     16          1           0       -3.222485   -3.513040    0.000000
     17          1           0       -1.036115   -4.673066    0.000000
     18          1           0        1.051536   -3.362464    0.000000
     19          1           0        2.202143   -1.205620    0.000000
     20          1           0        3.338445    1.010409    0.000000
     21          1           0        3.281259    3.472386    0.000000
     22          1           0        1.104602    4.690472    0.000000
     23          1           0       -0.990261    3.348212    0.000000
     24          1           0       -1.874332    1.046806    0.860150
     25          1           0       -1.874332    1.046806   -0.860150
 ---------------------------------------------------------------------
 Rotational constants (GHZ):           2.1357321           0.4444653           0.3687022
 Standard basis: 6-311++G(d,p) (5D, 7F)
 There are   299 symmetry adapted cartesian basis functions of A'  symmetry.
 There are   100 symmetry adapted cartesian basis functions of A"  symmetry.
 There are   285 symmetry adapted basis functions of A'  symmetry.
 There are   100 symmetry adapted basis functions of A"  symmetry.
   385 basis functions,   603 primitive gaussians,   399 cartesian basis functions
    47 alpha electrons       47 beta electrons
       nuclear repulsion energy       781.1236209212 Hartrees.
 NAtoms=   25 NActive=   25 NUniq=   24 SFac= 1.09D+00 NAtFMM=   60 NAOKFM=F Big=F
 Integral buffers will be    131072 words long.
 Regular integral format.
 Two-electron integral symmetry is turned on.
 Nuclear repulsion after empirical dispersion term =      781.1226416403 Hartrees.
 One-electron integrals computed using PRISM.
 NBasis=   385 RedAO= T EigKep=  1.12D-06  NBF=   285   100
 NBsUse=   379 1.00D-06 EigRej=  8.39D-07 NBFU=   279   100
 ExpMin= 3.60D-02 ExpMax= 4.56D+03 ExpMxC= 6.82D+02 IAcc=3 IRadAn=         5 AccDes= 0.00D+00
 Harris functional with IExCor= 1009 and IRadAn=       5 diagonalized for initial guess.
 HarFok:  IExCor= 1009 AccDes= 0.00D+00 IRadAn=         5 IDoV= 1 UseB2=F ITyADJ=14
 ICtDFT=  3500011 ScaDFX=  1.000000  1.000000  1.000000  1.000000
 FoFCou: FMM=F IPFlag=           0 FMFlag=      100000 FMFlg1=           0
         NFxFlg=           0 DoJE=T BraDBF=F KetDBF=T FulRan=T
         wScrn=  0.000000 ICntrl=       500 IOpCl=  0 I1Cent=   200000004 NGrid=           0
         NMat0=    1 NMatS0=      1 NMatT0=    0 NMatD0=    1 NMtDS0=    0 NMtDT0=    0
 Petite list used in FoFCou.
 Initial guess orbital symmetries:
       Occupied  (A') (A') (A') (A') (A') (A') (A') (A') (A') (A')
                 (A') (A') (A') (A') (A') (A') (A') (A') (A') (A')
                 (A') (A') (A') (A') (A') (A') (A') (A') (A') (A')
                 (A') (A') (A") (A') (A') (A') (A') (A') (A") (A')
                 (A") (A') (A') (A") (A") (A") (A")
       Virtual   (A") (A") (A") (A") (A") (A') (A') (A') (A') (A")
                 (A") (A') (A') (A') (A") (A') (A') (A') (A') (A")
                 (A') (A") (A') (A') (A') (A") (A') (A") (A') (A')
                 (A') (A') (A') (A') (A") (A') (A") (A') (A') (A')
                 (A") (A') (A') (A") (A') (A') (A') (A') (A") (A')
                 (A') (A') (A") (A") (A') (A') (A') (A") (A") (A')
                 (A') (A') (A') (A') (A') (A') (A") (A') (A') (A")
                 (A') (A') (A') (A') (A') (A') (A') (A') (A') (A')
                 (A') (A') (A') (A') (A') (A') (A') (A') (A') (A')
                 (A') (A') (A') (A') (A') (A') (A') (A") (A') (A")
                 (A') (A') (A") (A") (A') (A") (A') (A") (A") (A')
                 (A") (A') (A') (A') (A") (A') (A') (A") (A") (A')
                 (A") (A") (A') (A') (A') (A") (A') (A') (A') (A")
                 (A') (A') (A') (A') (A') (A') (A") (A') (A') (A')
                 (A') (A') (A') (A') (A') (A') (A') (A') (A') (A")
                 (A") (A') (A") (A") (A') (A') (A') (A") (A") (A')
                 (A") (A') (A") (A") (A") (A') (A') (A') (A') (A')
                 (A') (A") (A') (A") (A') (A') (A') (A') (A') (A")
                 (A') (A') (A') (A') (A") (A') (A") (A') (A") (A")
                 (A') (A") (A') (A") (A') (A') (A') (A") (A') (A')
                 (A") (A") (A") (A') (A') (A") (A') (A") (A') (A')
                 (A") (A") (A') (A") (A') (A") (A') (A') (A') (A")
                 (A') (A') (A') (A') (A") (A') (A') (A') (A") (A")
                 (A') (A') (A') (A") (A') (A') (A") (A') (A") (A')
                 (A") (A') (A') (A') (A') (A") (A') (A') (A') (A")
                 (A') (A') (A") (A') (A") (A') (A') (A") (A') (A')
                 (A') (A") (A') (A") (A') (A') (A') (A") (A') (A")
                 (A') (A') (A') (A') (A") (A') (A") (A') (A") (A')
                 (A") (A') (A") (A") (A") (A') (A') (A') (A') (A')
                 (A') (A') (A') (A') (A') (A') (A') (A') (A') (A')
                 (A') (A') (A') (A') (A') (A") (A') (A') (A') (A')
                 (A') (A') (A') (A') (A') (A') (A') (A') (A') (A')
                 (A') (A') (A') (A') (A') (A') (A') (A') (A') (A')
                 (A') (A')
 The electronic state of the initial guess is 1-A'.
 Requested convergence on RMS density matrix=1.00D-08 within 128 cycles.
 Requested convergence on MAX density matrix=1.00D-06.
 Requested convergence on             energy=1.00D-06.
 No special actions if energy rises.
 SCF Done:  E(RM062X) =  -539.756331665     A.U. after   15 cycles
            NFock= 15  Conv=0.88D-08     -V/T= 2.0042
 DoSCS=F DFT=T ScalE2(SS,OS)=  1.000000  1.000000
 ExpMin= 3.60D-02 ExpMax= 4.56D+03 ExpMxC= 6.82D+02 IAcc=3 IRadAn=         5 AccDes= 0.00D+00
 HarFok:  IExCor=  205 AccDes= 0.00D+00 IRadAn=         5 IDoV=-2 UseB2=F ITyADJ=14
 ICtDFT= 12500011 ScaDFX=  1.000000  1.000000  1.000000  1.000000
 Range of M.O.s used for correlation:    15   379
 NBasis=   385 NAE=    47 NBE=    47 NFC=    14 NFV=     0
 NROrb=    365 NOA=    33 NOB=    33 NVA=   332 NVB=   332

 **** Warning!!: The largest alpha MO coefficient is  0.13716467D+03

 Orbital symmetries:
       Occupied  (A') (A') (A') (A') (A') (A') (A') (A') (A') (A')
                 (A') (A') (A') (A') (A') (A') (A') (A') (A') (A')
                 (A') (A') (A') (A') (A') (A') (A') (A') (A') (A')
                 (A') (A') (A") (A') (A') (A') (A') (A") (A") (A')
                 (A') (A') (A') (A") (A") (A") (A")
       Virtual   (A") (A") (A") (A") (A') (A') (A') (A') (A") (A')
                 (A') (A") (A') (A') (A") (A') (A") (A') (A') (A')
                 (A") (A") (A') (A') (A') (A") (A') (A") (A') (A')
                 (A") (A') (A") (A') (A') (A') (A') (A') (A") (A')
                 (A") (A') (A') (A") (A") (A') (A") (A') (A") (A')
                 (A') (A') (A') (A') (A') (A") (A') (A') (A') (A')
                 (A') (A") (A') (A') (A') (A") (A') (A') (A') (A')
                 (A') (A') (A') (A') (A') (A') (A') (A') (A') (A')
                 (A') (A') (A') (A') (A') (A') (A') (A') (A') (A')
                 (A') (A') (A') (A') (A") (A') (A") (A") (A') (A")
                 (A') (A') (A') (A') (A") (A") (A') (A") (A") (A')
                 (A') (A') (A") (A') (A') (A") (A') (A") (A') (A")
                 (A") (A') (A") (A') (A') (A') (A") (A') (A') (A')
                 (A') (A') (A') (A') (A') (A') (A') (A') (A') (A')
                 (A') (A') (A') (A") (A') (A') (A') (A') (A') (A')
                 (A') (A') (A") (A') (A") (A') (A") (A") (A') (A")
                 (A") (A') (A') (A") (A") (A') (A") (A") (A') (A')
                 (A') (A') (A') (A") (A") (A') (A') (A') (A') (A")
                 (A') (A') (A') (A") (A") (A') (A') (A") (A') (A")
                 (A") (A') (A') (A") (A") (A') (A') (A') (A') (A')
                 (A") (A") (A") (A') (A") (A') (A') (A") (A') (A')
                 (A') (A") (A') (A") (A") (A') (A") (A') (A') (A")
                 (A') (A') (A') (A') (A") (A') (A') (A') (A") (A")
                 (A') (A') (A') (A") (A') (A') (A') (A") (A") (A')
                 (A") (A') (A') (A") (A') (A') (A') (A') (A') (A')
                 (A") (A') (A') (A') (A') (A") (A") (A") (A') (A')
                 (A') (A') (A') (A') (A') (A') (A") (A') (A') (A')
                 (A') (A") (A') (A") (A") (A") (A') (A") (A') (A")
                 (A') (A") (A") (A') (A") (A") (A') (A') (A') (A')
                 (A') (A') (A') (A') (A') (A') (A') (A') (A') (A')
                 (A') (A') (A') (A") (A') (A') (A') (A') (A') (A')
                 (A') (A') (A') (A') (A') (A') (A') (A') (A') (A')
                 (A') (A') (A') (A') (A') (A') (A') (A') (A') (A')
                 (A') (A')
     4 initial guesses have been made.
 Convergence on wavefunction:    0.001000000000000
 Iteration     1 Dimension     4 NMult     0 NNew      4
 CISAX will form     4 AO SS matrices at one time.
 Iteration     2 Dimension     6 NMult     4 NNew      2
 Iteration     3 Dimension     8 NMult     6 NNew      2
 Iteration     4 Dimension    10 NMult     8 NNew      2
 Iteration     5 Dimension    12 NMult    10 NNew      2
 Iteration     6 Dimension    14 NMult    12 NNew      2
 ***********************************************************************
 Excited states from <AA,BB:AA,BB> singles matrix:
 ***********************************************************************
 
 Ground to excited state transition densities written to RWF  633
 Ground to excited state transition electric dipole moments (Au):
       state          X           Y           Z        Dip. S.      Osc.
         1        -0.4851      0.3016      0.0000      0.3263      0.0217
 Ground to excited state transition velocity dipole moments (Au):
       state          X           Y           Z        Dip. S.      Osc.
         1         0.0562     -0.0305      0.0000      0.0041      0.0273
 Ground to excited state transition magnetic dipole moments (Au):
       state          X           Y           Z
         1        -0.0000      0.0000     -0.1703
 Ground to excited state transition velocity quadrupole moments (Au):
       state          XX          YY          ZZ          XY          XZ          YZ
         1         0.1414      0.1410     -0.0086      0.1375      0.0000     -0.0000
 <0|del|b> * <b|rxdel|0> + <0|del|b> * <b|delr+rdel|0>
 Rotatory Strengths (R) in cgs (10**-40 erg-esu-cm/Gauss)
       state          XX          YY          ZZ    R(velocity)    E-M Angle
         1         0.0000     -0.0000     -0.0000     -0.0000       90.00
 1/2[<0|r|b>*<b|rxdel|0> + (<0|rxdel|b>*<b|r|0>)*]
 Rotatory Strengths (R) in cgs (10**-40 erg-esu-cm/Gauss)
       state          XX          YY          ZZ     R(length)
         1        -0.0000     -0.0000      0.0000      0.0000
  1/2[<0|del|b>*<b|r|0> + (<0|r|b>*<b|del|0>)*] (Au)
       state          X           Y           Z        Dip. S.   Osc.(frdel)
         1        -0.0273     -0.0092      0.0000      0.0365      0.0243

 Excitation energies and oscillator strengths:
 
 Excited State   1:      Singlet-A'     2.7167 eV  456.38 nm  f=0.0217  <S**2>=0.000
      47 -> 48         0.70361
 This state for optimization and/or second-order correction.
 Total Energy, E(TD-HF/TD-DFT) =  -539.656494715    
 Copying the excited state density for this state as the 1-particle RhoCI density.
 SavETr:  write IOETrn=   770 NScale= 10 NData=  16 NLR=1 NState=    1 LETran=      28.

 **********************************************************************

            Population analysis using the SCF Density.

 **********************************************************************

 Orbital symmetries:
       Occupied  (A') (A') (A') (A') (A') (A') (A') (A') (A') (A')
                 (A') (A') (A') (A') (A') (A') (A') (A') (A') (A')
                 (A') (A') (A') (A') (A') (A') (A') (A') (A') (A')
                 (A') (A') (A") (A') (A') (A') (A') (A") (A") (A')
                 (A') (A') (A') (A") (A") (A") (A")
       Virtual   (A") (A") (A") (A") (A') (A') (A') (A') (A") (A')
                 (A') (A") (A') (A') (A") (A') (A") (A') (A') (A')
                 (A") (A") (A') (A') (A') (A") (A') (A") (A') (A')
                 (A") (A') (A") (A') (A') (A') (A') (A') (A") (A')
                 (A") (A') (A') (A") (A") (A') (A") (A') (A") (A')
                 (A') (A') (A') (A') (A') (A") (A') (A') (A') (A')
                 (A') (A") (A') (A') (A') (A") (A') (A') (A') (A')
                 (A') (A') (A') (A') (A') (A') (A') (A') (A') (A')
                 (A') (A') (A') (A') (A') (A') (A') (A') (A') (A')
                 (A') (A') (A') (A') (A") (A') (A") (A") (A') (A")
                 (A') (A') (A') (A') (A") (A") (A') (A") (A") (A')
                 (A') (A') (A") (A') (A') (A") (A') (A") (A') (A")
                 (A") (A') (A") (A') (A') (A') (A") (A') (A') (A')
                 (A') (A') (A') (A') (A') (A') (A') (A') (A') (A')
                 (A') (A') (A') (A") (A') (A') (A') (A') (A') (A')
                 (A') (A') (A") (A') (A") (A') (A") (A") (A') (A")
                 (A") (A') (A') (A") (A") (A') (A") (A") (A') (A')
                 (A') (A') (A') (A") (A") (A') (A') (A') (A') (A")
                 (A') (A') (A') (A") (A") (A') (A') (A") (A') (A")
                 (A") (A') (A') (A") (A") (A') (A') (A') (A') (A')
                 (A") (A") (A") (A') (A") (A') (A') (A") (A') (A')
                 (A') (A") (A') (A") (A") (A') (A") (A') (A') (A")
                 (A') (A') (A') (A') (A") (A') (A') (A') (A") (A")
                 (A') (A') (A') (A") (A') (A') (A') (A") (A") (A')
                 (A") (A') (A') (A") (A') (A') (A') (A') (A') (A')
                 (A") (A') (A') (A') (A') (A") (A") (A") (A') (A')
                 (A') (A') (A') (A') (A') (A') (A") (A') (A') (A')
                 (A') (A") (A') (A") (A") (A") (A') (A") (A') (A")
                 (A') (A") (A") (A') (A") (A") (A') (A') (A') (A')
                 (A') (A') (A') (A') (A') (A') (A') (A') (A') (A')
                 (A') (A') (A') (A") (A') (A') (A') (A') (A') (A')
                 (A') (A') (A') (A') (A') (A') (A') (A') (A') (A')
                 (A') (A') (A') (A') (A') (A') (A') (A') (A') (A')
                 (A') (A')
 The electronic state is 1-A'.
 Alpha  occ. eigenvalues --  -10.77620 -10.73679 -10.72813 -10.72764 -10.72066
 Alpha  occ. eigenvalues --  -10.71796 -10.71763 -10.70990 -10.70944 -10.70256
 Alpha  occ. eigenvalues --  -10.70169 -10.69877 -10.69777 -10.69388  -1.16492
 Alpha  occ. eigenvalues --   -1.12463  -1.06940  -1.05786  -1.01296  -1.00317
 Alpha  occ. eigenvalues --   -0.95647  -0.91035  -0.86432  -0.85891  -0.83790
 Alpha  occ. eigenvalues --   -0.78356  -0.76087  -0.74384  -0.69708  -0.69291
 Alpha  occ. eigenvalues --   -0.68375  -0.68107  -0.68097  -0.65087  -0.64241
 Alpha  occ. eigenvalues --   -0.62835  -0.61692  -0.60336  -0.59371  -0.59139
 Alpha  occ. eigenvalues --   -0.56922  -0.55258  -0.54641  -0.52441  -0.47060
 Alpha  occ. eigenvalues --   -0.46110  -0.44037
 Alpha virt. eigenvalues --   -0.26103  -0.14667  -0.14085  -0.12767  -0.11185
 Alpha virt. eigenvalues --   -0.10089  -0.09248  -0.07969  -0.07945  -0.07481
 Alpha virt. eigenvalues --   -0.07207  -0.07138  -0.05646  -0.05576  -0.05344
 Alpha virt. eigenvalues --   -0.03841  -0.03658  -0.03275  -0.03133  -0.02160
 Alpha virt. eigenvalues --   -0.01355  -0.00946   0.00191   0.00593   0.00644
 Alpha virt. eigenvalues --    0.01062   0.01508   0.01936   0.02169   0.02303
 Alpha virt. eigenvalues --    0.02449   0.02671   0.02775   0.03268   0.03437
 Alpha virt. eigenvalues --    0.04228   0.04497   0.04714   0.05037   0.05381
 Alpha virt. eigenvalues --    0.06028   0.06290   0.06584   0.07047   0.07266
 Alpha virt. eigenvalues --    0.07900   0.08105   0.08353   0.08602   0.08916
 Alpha virt. eigenvalues --    0.09502   0.09584   0.09991   0.10832   0.10980
 Alpha virt. eigenvalues --    0.11125   0.12120   0.12248   0.12754   0.13019
 Alpha virt. eigenvalues --    0.13450   0.13525   0.13990   0.14345   0.15953
 Alpha virt. eigenvalues --    0.16376   0.16445   0.17332   0.17518   0.17791
 Alpha virt. eigenvalues --    0.18121   0.19066   0.19338   0.19635   0.19851
 Alpha virt. eigenvalues --    0.21494   0.21632   0.22682   0.23152   0.23560
 Alpha virt. eigenvalues --    0.23908   0.24555   0.25415   0.26935   0.27611
 Alpha virt. eigenvalues --    0.28848   0.29264   0.29896   0.31350   0.35778
 Alpha virt. eigenvalues --    0.36446   0.38204   0.39278   0.41087   0.41329
 Alpha virt. eigenvalues --    0.41961   0.42149   0.42983   0.43694   0.44358
 Alpha virt. eigenvalues --    0.44814   0.45111   0.45936   0.46342   0.47921
 Alpha virt. eigenvalues --    0.48442   0.48806   0.49038   0.50488   0.51092
 Alpha virt. eigenvalues --    0.51300   0.51968   0.52133   0.52803   0.54087
 Alpha virt. eigenvalues --    0.54112   0.54605   0.55651   0.55886   0.57560
 Alpha virt. eigenvalues --    0.58227   0.58909   0.61479   0.62244   0.62395
 Alpha virt. eigenvalues --    0.63174   0.63479   0.64925   0.65156   0.67368
 Alpha virt. eigenvalues --    0.70371   0.70511   0.71154   0.72475   0.72893
 Alpha virt. eigenvalues --    0.75629   0.76049   0.76384   0.76786   0.77117
 Alpha virt. eigenvalues --    0.77860   0.77960   0.78262   0.79911   0.80392
 Alpha virt. eigenvalues --    0.81238   0.81562   0.82337   0.82995   0.85215
 Alpha virt. eigenvalues --    0.87075   0.88159   0.88279   0.89255   0.90565
 Alpha virt. eigenvalues --    0.91047   0.91374   0.93264   0.94603   0.96306
 Alpha virt. eigenvalues --    0.96846   1.00259   1.01269   1.01574   1.02799
 Alpha virt. eigenvalues --    1.03169   1.03246   1.04829   1.06172   1.08838
 Alpha virt. eigenvalues --    1.19570   1.23050   1.24133   1.24553   1.28643
 Alpha virt. eigenvalues --    1.29413   1.32104   1.34303   1.35751   1.35975
 Alpha virt. eigenvalues --    1.39325   1.39795   1.40880   1.42979   1.43453
 Alpha virt. eigenvalues --    1.43530   1.44299   1.46359   1.46579   1.46618
 Alpha virt. eigenvalues --    1.47683   1.48128   1.51748   1.53657   1.55712
 Alpha virt. eigenvalues --    1.55785   1.56306   1.56584   1.57800   1.61452
 Alpha virt. eigenvalues --    1.63076   1.63373   1.64108   1.66085   1.68314
 Alpha virt. eigenvalues --    1.68332   1.68717   1.69813   1.74397   1.76007
 Alpha virt. eigenvalues --    1.77161   1.78074   1.79863   1.80030   1.80817
 Alpha virt. eigenvalues --    1.82921   1.83199   1.83603   1.83824   1.84183
 Alpha virt. eigenvalues --    1.84491   1.85538   1.86352   1.88318   1.91407
 Alpha virt. eigenvalues --    1.92119   1.94074   1.95288   1.97754   1.98148
 Alpha virt. eigenvalues --    1.99776   2.02361   2.04484   2.07296   2.11742
 Alpha virt. eigenvalues --    2.12127   2.14211   2.15255   2.19063   2.21198
 Alpha virt. eigenvalues --    2.22754   2.28533   2.30209   2.34511   2.34832
 Alpha virt. eigenvalues --    2.36316   2.38617   2.39657   2.42337   2.44663
 Alpha virt. eigenvalues --    2.46124   2.46435   2.49241   2.52931   2.53782
 Alpha virt. eigenvalues --    2.54228   2.56858   2.57890   2.58385   2.59475
 Alpha virt. eigenvalues --    2.59899   2.61552   2.62132   2.63554   2.63738
 Alpha virt. eigenvalues --    2.64814   2.65079   2.65083   2.65537   2.67912
 Alpha virt. eigenvalues --    2.68420   2.70933   2.71450   2.73362   2.74810
 Alpha virt. eigenvalues --    2.76289   2.78478   2.79662   2.82995   2.83160
 Alpha virt. eigenvalues --    2.84857   2.86259   2.92109   2.97084   2.99439
 Alpha virt. eigenvalues --    3.00115   3.04949   3.09882   3.11256   3.13882
 Alpha virt. eigenvalues --    3.20691   3.22513   3.26398   3.28593   3.30607
 Alpha virt. eigenvalues --    3.32799   3.34439   3.43753   3.46125   3.46689
 Alpha virt. eigenvalues --    3.48328   3.50045   3.56415   3.65991   3.66861
 Alpha virt. eigenvalues --    3.67742   3.93857   3.94121   3.95372   3.96400
 Alpha virt. eigenvalues --    4.03947   4.06589   4.07610   4.12538   4.35309
 Alpha virt. eigenvalues --    4.60961   4.69358   4.71316  23.45265  23.60199
 Alpha virt. eigenvalues --   23.80734  23.83233  23.85880  23.89117  23.91583
 Alpha virt. eigenvalues --   23.94931  23.95917  23.97659  24.02458  24.04567
 Alpha virt. eigenvalues --   24.11070  24.12214
          Condensed to atoms (all electrons):
               1          2          3          4          5          6
     1  C    8.405691   0.477624  -0.632524   1.812202  -0.010174  -0.087114
     2  C    0.477624   7.182340   0.411001  -1.015567  -0.035219  -0.015061
     3  C   -0.632524   0.411001   6.603646   0.727361  -0.114783   0.016899
     4  C    1.812202  -1.015567   0.727361  11.463706  -0.388424  -0.138171
     5  C   -0.010174  -0.035219  -0.114783  -0.388424  10.772104   0.821642
     6  C   -0.087114  -0.015061   0.016899  -0.138171   0.821642   6.595030
     7  C   -0.029434   0.000224  -0.013321   0.009772  -1.192482   0.261760
     8  C    0.406188  -0.003028  -0.104562  -0.080825   2.246262  -0.408543
     9  C   -1.138286  -0.855369   0.296035  -0.000230  -0.379602   0.295243
    10  C   -1.221585   0.175880  -0.277153  -2.756902  -2.418297  -0.423094
    11  C    0.332432  -0.808297   0.905834  -0.320244  -1.435247  -0.121480
    12  C   -1.878299   1.100227  -1.353498  -1.659510  -0.239074  -0.271490
    13  C    0.205372  -0.214668  -0.217932  -1.581523  -0.318124   1.093563
    14  C   -1.135669  -0.278852  -0.129541  -0.441892  -1.656122  -1.492774
    15  H    0.367458  -0.106438  -0.002868   0.025709   0.006305   0.001215
    16  H   -0.020074   0.382663  -0.020944   0.016467  -0.001669  -0.000353
    17  H   -0.020801  -0.021587   0.380365  -0.069824   0.000165   0.000412
    18  H    0.048024   0.003522  -0.083844   0.465858   0.005893  -0.005042
    19  H   -0.044275  -0.008189   0.051229  -0.079172  -0.062836   0.051642
    20  H    0.006964   0.002047  -0.005249   0.005868   0.455446  -0.084360
    21  H   -0.001244  -0.000417   0.000388   0.000451  -0.066756   0.369221
    22  H    0.000453   0.000327  -0.000302  -0.001365   0.010582  -0.012932
    23  H    0.006486  -0.002355   0.000996   0.004726   0.029745   0.000930
    24  H    0.037235   0.015744  -0.001356  -0.011404  -0.013040  -0.001776
    25  H    0.037235   0.015744  -0.001356  -0.011404  -0.013040  -0.001776
               7          8          9         10         11         12
     1  C   -0.029434   0.406188  -1.138286  -1.221585   0.332432  -1.878299
     2  C    0.000224  -0.003028  -0.855369   0.175880  -0.808297   1.100227
     3  C   -0.013321  -0.104562   0.296035  -0.277153   0.905834  -1.353498
     4  C    0.009772  -0.080825  -0.000230  -2.756902  -0.320244  -1.659510
     5  C   -1.192482   2.246262  -0.379602  -2.418297  -1.435247  -0.239074
     6  C    0.261760  -0.408543   0.295243  -0.423094  -0.121480  -0.271490
     7  C    7.190539   0.032610  -0.786225   0.335406  -0.292332  -0.096135
     8  C    0.032610   8.922383  -1.119857  -1.381197   0.278423  -1.055143
     9  C   -0.786225  -1.119857   9.603181   0.255957   1.601953  -2.070713
    10  C    0.335406  -1.381197   0.255957   9.113904  -0.325821   2.389206
    11  C   -0.292332   0.278423   1.601953  -0.325821  14.531100  -4.037243
    12  C   -0.096135  -1.055143  -2.070713   2.389206  -4.037243  16.265113
    13  C   -0.973931   0.304373   1.478425  -0.467760   1.080474  -4.720828
    14  C    1.687771  -2.544108  -1.752121   2.459147  -4.813395   3.130833
    15  H   -0.002863   0.004964   0.087965  -0.008131  -0.029578  -0.014719
    16  H    0.000398   0.000993   0.001981  -0.010165   0.024923  -0.030269
    17  H   -0.000378  -0.001389  -0.004899   0.020061  -0.025667   0.087061
    18  H    0.002116   0.007051  -0.022888   0.007698  -0.008328  -0.049239
    19  H   -0.007464  -0.048265   0.074957   0.422209   0.076873  -0.083176
    20  H    0.002060   0.053766  -0.025801   0.013831  -0.012070  -0.009400
    21  H   -0.009141  -0.031547  -0.006297   0.020362  -0.006247   0.005335
    22  H    0.374869  -0.017207   0.003813  -0.008142   0.002547  -0.007863
    23  H   -0.108528   0.370342   0.094676  -0.011007   0.006274   0.005024
    24  H    0.013241   0.028931   0.356039   0.005372   0.023053  -0.059973
    25  H    0.013241   0.028931   0.356039   0.005372   0.023053  -0.059973
              13         14         15         16         17         18
     1  C    0.205372  -1.135669   0.367458  -0.020074  -0.020801   0.048024
     2  C   -0.214668  -0.278852  -0.106438   0.382663  -0.021587   0.003522
     3  C   -0.217932  -0.129541  -0.002868  -0.020944   0.380365  -0.083844
     4  C   -1.581523  -0.441892   0.025709   0.016467  -0.069824   0.465858
     5  C   -0.318124  -1.656122   0.006305  -0.001669   0.000165   0.005893
     6  C    1.093563  -1.492774   0.001215  -0.000353   0.000412  -0.005042
     7  C   -0.973931   1.687771  -0.002863   0.000398  -0.000378   0.002116
     8  C    0.304373  -2.544108   0.004964   0.000993  -0.001389   0.007051
     9  C    1.478425  -1.752121   0.087965   0.001981  -0.004899  -0.022888
    10  C   -0.467760   2.459147  -0.008131  -0.010165   0.020061   0.007698
    11  C    1.080474  -4.813395  -0.029578   0.024923  -0.025667  -0.008328
    12  C   -4.720828   3.130833  -0.014719  -0.030269   0.087061  -0.049239
    13  C   14.310560  -3.400735  -0.002693   0.003356  -0.006296  -0.012310
    14  C   -3.400735  15.917427   0.007463  -0.010195   0.005247  -0.020333
    15  H   -0.002693   0.007463   0.435028  -0.008948   0.001639   0.000225
    16  H    0.003356  -0.010195  -0.008948   0.416687  -0.007020   0.001965
    17  H   -0.006296   0.005247   0.001639  -0.007020   0.420231  -0.010138
    18  H   -0.012310  -0.020333   0.000225   0.001965  -0.010138   0.449454
    19  H    0.081232  -0.049138   0.000396  -0.000597   0.001678  -0.005846
    20  H   -0.002896  -0.064151  -0.000124   0.000019  -0.000163   0.001254
    21  H   -0.027239   0.096923   0.000017  -0.000007   0.000010  -0.000124
    22  H    0.025778  -0.032937  -0.000125   0.000007  -0.000007   0.000012
    23  H   -0.033227  -0.034637   0.000563  -0.000131   0.000011  -0.000104
    24  H    0.004053  -0.060433  -0.000939   0.000629  -0.000136   0.000150
    25  H    0.004053  -0.060433  -0.000939   0.000629  -0.000136   0.000150
              19         20         21         22         23         24
     1  C   -0.044275   0.006964  -0.001244   0.000453   0.006486   0.037235
     2  C   -0.008189   0.002047  -0.000417   0.000327  -0.002355   0.015744
     3  C    0.051229  -0.005249   0.000388  -0.000302   0.000996  -0.001356
     4  C   -0.079172   0.005868   0.000451  -0.001365   0.004726  -0.011404
     5  C   -0.062836   0.455446  -0.066756   0.010582   0.029745  -0.013040
     6  C    0.051642  -0.084360   0.369221  -0.012932   0.000930  -0.001776
     7  C   -0.007464   0.002060  -0.009141   0.374869  -0.108528   0.013241
     8  C   -0.048265   0.053766  -0.031547  -0.017207   0.370342   0.028931
     9  C    0.074957  -0.025801  -0.006297   0.003813   0.094676   0.356039
    10  C    0.422209   0.013831   0.020362  -0.008142  -0.011007   0.005372
    11  C    0.076873  -0.012070  -0.006247   0.002547   0.006274   0.023053
    12  C   -0.083176  -0.009400   0.005335  -0.007863   0.005024  -0.059973
    13  C    0.081232  -0.002896  -0.027239   0.025778  -0.033227   0.004053
    14  C   -0.049138  -0.064151   0.096923  -0.032937  -0.034637  -0.060433
    15  H    0.000396  -0.000124   0.000017  -0.000125   0.000563  -0.000939
    16  H   -0.000597   0.000019  -0.000007   0.000007  -0.000131   0.000629
    17  H    0.001678  -0.000163   0.000010  -0.000007   0.000011  -0.000136
    18  H   -0.005846   0.001254  -0.000124   0.000012  -0.000104   0.000150
    19  H    0.443470  -0.006751   0.001177  -0.000490   0.000239   0.000588
    20  H   -0.006751   0.458364  -0.010411   0.001893   0.000073   0.000219
    21  H    0.001177  -0.010411   0.424454  -0.006080   0.001270  -0.000149
    22  H   -0.000490   0.001893  -0.006080   0.421974  -0.008963   0.000634
    23  H    0.000239   0.000073   0.001270  -0.008963   0.443772  -0.000886
    24  H    0.000588   0.000219  -0.000149   0.000634  -0.000886   0.493321
    25  H    0.000588   0.000219  -0.000149   0.000634  -0.000886  -0.079069
              25
     1  C    0.037235
     2  C    0.015744
     3  C   -0.001356
     4  C   -0.011404
     5  C   -0.013040
     6  C   -0.001776
     7  C    0.013241
     8  C    0.028931
     9  C    0.356039
    10  C    0.005372
    11  C    0.023053
    12  C   -0.059973
    13  C    0.004053
    14  C   -0.060433
    15  H   -0.000939
    16  H    0.000629
    17  H   -0.000136
    18  H    0.000150
    19  H    0.000588
    20  H    0.000219
    21  H   -0.000149
    22  H    0.000634
    23  H   -0.000886
    24  H   -0.079069
    25  H    0.493321
 Mulliken charges:
               1
     1  C    0.076112
     2  C   -0.402296
     3  C   -0.434520
     4  C    0.024338
     5  C   -0.003256
     6  C   -0.443590
     7  C   -0.411772
     8  C    0.110453
     9  C   -0.343975
    10  C    0.084849
    11  C   -0.650990
    12  C    0.713746
    13  C   -0.611077
    14  C    0.672654
    15  H    0.239417
    16  H    0.259656
    17  H    0.251563
    18  H    0.224824
    19  H    0.189922
    20  H    0.219354
    21  H    0.246200
    22  H    0.252888
    23  H    0.235595
    24  H    0.249953
    25  H    0.249953
 Sum of Mulliken charges =   1.00000
 Mulliken charges with hydrogens summed into heavy atoms:
               1
     1  C    0.315529
     2  C   -0.142641
     3  C   -0.182957
     4  C    0.249162
     5  C    0.216098
     6  C   -0.197389
     7  C   -0.158884
     8  C    0.346048
     9  C    0.155930
    10  C    0.274770
    11  C   -0.650990
    12  C    0.713746
    13  C   -0.611077
    14  C    0.672654
 Electronic spatial extent (au):  <R**2>=           2856.7642
 Charge=              1.0000 electrons
 Dipole moment (field-independent basis, Debye):
    X=             -0.2337    Y=             -0.8247    Z=             -0.0000  Tot=              0.8572
 Quadrupole moment (field-independent basis, Debye-Ang):
   XX=            -51.0802   YY=            -36.2347   ZZ=            -84.1361
   XY=             10.2129   XZ=             -0.0000   YZ=             -0.0000
 Traceless Quadrupole moment (field-independent basis, Debye-Ang):
   XX=              6.0701   YY=             20.9157   ZZ=            -26.9857
   XY=             10.2129   XZ=             -0.0000   YZ=             -0.0000
 Octapole moment (field-independent basis, Debye-Ang**2):
  XXX=             -2.6280  YYY=             -2.0023  ZZZ=             -0.0000  XYY=             -2.4152
  XXY=             -7.5271  XXZ=             -0.0000  XZZ=             -3.3075  YZZ=              0.3747
  YYZ=              0.0000  XYZ=              0.0000
 Hexadecapole moment (field-independent basis, Debye-Ang**3):
 XXXX=           -986.7438 YYYY=          -1850.5053 ZZZZ=            -99.3251 XXXY=           -347.4525
 XXXZ=             -0.0000 YYYX=           -273.3385 YYYZ=             -0.0000 ZZZX=              0.0000
 ZZZY=             -0.0000 XXYY=           -454.9815 XXZZ=           -241.0529 YYZZ=           -495.5491
 XXYZ=             -0.0000 YYXZ=              0.0000 ZZXY=           -182.6101
 N-N= 7.811226416403D+02 E-N=-2.798593081162D+03  KE= 5.375160277577D+02
 Symmetry A'   KE= 5.228648040840D+02
 Symmetry A"   KE= 1.465122367368D+01
 Unable to Open any file for archive entry.
 1\1\GINC-GADI-CPU-CLX-0648\SP\RM062X TD-FC\6-311++G(d,p)\C14H11(1+)\TS
 1578\27-Jul-2022\0\\#n M062X/6-311++G(d,p) TD(NStates=1) EmpiricalDisp
 ersion=GD3 SP\\SP_-50\\1,1\C,0,2.4731,1.3697,0.\C,0,3.6773,0.66995,0.\
 C,0,3.6773,-0.7242,0.\C,0,2.48665,-1.41265,0.\C,0,-2.43985,-1.38535,0.
 \C,0,-3.6911,-0.687,0.\C,0,-3.72665,0.6911,0.\C,0,-2.5142,1.3679,0.\C,
 0,-0.01315,1.4643,0.\C,0,0.0366,-1.4206,0.\C,0,1.26765,0.6972,0.\C,0,1
 .2523,-0.72375,0.\C,0,-1.2567,0.67425,0.\C,0,-1.2223,-0.72015,0.\H,0,2
 .4829,2.45265,0.\H,0,4.6124,1.2114,0.\H,0,4.6138,-1.26365,0.\H,0,2.478
 3,-2.49475,0.\H,0,0.03375,-2.50165,0.\H,0,-2.4564,-2.4682,0.\H,0,-4.60
 51,-1.265,0.\H,0,-4.66235,1.22865,0.\H,0,-2.4955,2.4513,0.\H,0,-0.048,
 2.155,-0.86015\H,0,-0.048,2.155,0.86015\\Version=ES64L-G16RevC.01\Stat
 e=1-A'\HF=-539.7563317\RMSD=8.842e-09\PG=CS [SG(C14H9),X(H2)]\\@
 The archive entry for this job was punched.


 MARY HAD A LITTLE LAMB
      HIS FEET WERE BLACK AS SOOT,
           AND EVERYWHERE THAT MARY WENT
                HIS SOOTY FOOT HE PUT.

                    -- NONAME
 Job cpu time:       0 days  0 hours 44 minutes 33.9 seconds.
 Elapsed time:       0 days  0 hours  1 minutes 23.8 seconds.
 File lengths (MBytes):  RWF=    460 Int=      0 D2E=      0 Chk=     15 Scr=      1
 Normal termination of Gaussian 16 at Wed Jul 27 10:51:58 2022.
