 Entering Gaussian System, Link 0=g16
 Initial command:
 /apps/gaussian/g16c01/g16/l1.exe "/jobfs/52804872.gadi-pbs/Gau-1417157.inp" -scrdir="/jobfs/52804872.gadi-pbs/"
 Entering Link 1 = /apps/gaussian/g16c01/g16/l1.exe PID=   1417158.
  
 Copyright (c) 1988-2019, Gaussian, Inc.  All Rights Reserved.
  
 This is part of the Gaussian(R) 16 program.  It is based on
 the Gaussian(R) 09 system (copyright 2009, Gaussian, Inc.),
 the Gaussian(R) 03 system (copyright 2003, Gaussian, Inc.),
 the Gaussian(R) 98 system (copyright 1998, Gaussian, Inc.),
 the Gaussian(R) 94 system (copyright 1995, Gaussian, Inc.),
 the Gaussian 92(TM) system (copyright 1992, Gaussian, Inc.),
 the Gaussian 90(TM) system (copyright 1990, Gaussian, Inc.),
 the Gaussian 88(TM) system (copyright 1988, Gaussian, Inc.),
 the Gaussian 86(TM) system (copyright 1986, Carnegie Mellon
 University), and the Gaussian 82(TM) system (copyright 1983,
 Carnegie Mellon University). Gaussian is a federally registered
 trademark of Gaussian, Inc.
  
 This software contains proprietary and confidential information,
 including trade secrets, belonging to Gaussian, Inc.
  
 This software is provided under written license and may be
 used, copied, transmitted, or stored only in accord with that
 written license.
  
 The following legend is applicable only to US Government
 contracts under FAR:
  
                    RESTRICTED RIGHTS LEGEND
  
 Use, reproduction and disclosure by the US Government is
 subject to restrictions as set forth in subparagraphs (a)
 and (c) of the Commercial Computer Software - Restricted
 Rights clause in FAR 52.227-19.
  
 Gaussian, Inc.
 340 Quinnipiac St., Bldg. 40, Wallingford CT 06492
  
  
 ---------------------------------------------------------------
 Warning -- This program may not be used in any manner that
 competes with the business of Gaussian, Inc. or will provide
 assistance to any competitor of Gaussian, Inc.  The licensee
 of this program is prohibited from giving any competitor of
 Gaussian, Inc. access to this program.  By using this program,
 the user acknowledges that Gaussian, Inc. is engaged in the
 business of creating and licensing software in the field of
 computational chemistry and represents and warrants to the
 licensee that it is not a competitor of Gaussian, Inc. and that
 it will not use this program in any manner prohibited above.
 ---------------------------------------------------------------
  

 Cite this work as:
 Gaussian 16, Revision C.01,
 M. J. Frisch, G. W. Trucks, H. B. Schlegel, G. E. Scuseria, 
 M. A. Robb, J. R. Cheeseman, G. Scalmani, V. Barone, 
 G. A. Petersson, H. Nakatsuji, X. Li, M. Caricato, A. V. Marenich, 
 J. Bloino, B. G. Janesko, R. Gomperts, B. Mennucci, H. P. Hratchian, 
 J. V. Ortiz, A. F. Izmaylov, J. L. Sonnenberg, D. Williams-Young, 
 F. Ding, F. Lipparini, F. Egidi, J. Goings, B. Peng, A. Petrone, 
 T. Henderson, D. Ranasinghe, V. G. Zakrzewski, J. Gao, N. Rega, 
 G. Zheng, W. Liang, M. Hada, M. Ehara, K. Toyota, R. Fukuda, 
 J. Hasegawa, M. Ishida, T. Nakajima, Y. Honda, O. Kitao, H. Nakai, 
 T. Vreven, K. Throssell, J. A. Montgomery, Jr., J. E. Peralta, 
 F. Ogliaro, M. J. Bearpark, J. J. Heyd, E. N. Brothers, K. N. Kudin, 
 V. N. Staroverov, T. A. Keith, R. Kobayashi, J. Normand, 
 K. Raghavachari, A. P. Rendell, J. C. Burant, S. S. Iyengar, 
 J. Tomasi, M. Cossi, J. M. Millam, M. Klene, C. Adamo, R. Cammi, 
 J. W. Ochterski, R. L. Martin, K. Morokuma, O. Farkas, 
 J. B. Foresman, and D. J. Fox, Gaussian, Inc., Wallingford CT, 2019.
 
 ******************************************
 Gaussian 16:  ES64L-G16RevC.01  3-Jul-2019
                27-Jul-2022 
 ******************************************
 %NProcShared=32
 Will use up to   32 processors via shared memory.
 %mem = 128GB
 ---------------------------------------------------------------
 #n M062X/6-311++G(d,p) TD(NStates=1) EmpiricalDispersion=GD3 SP
 ---------------------------------------------------------------
 1/38=1,172=1/1;
 2/12=2,17=6,18=5,40=1/2;
 3/5=4,6=6,7=1111,11=9,25=1,30=1,74=-55,124=31/1,2,3,8;
 4//1;
 5/5=2,38=5/2;
 8/6=1,10=2,108=1/1;
 9/41=1,42=1,70=2/14;
 6/7=2,8=2,9=2,10=2/1;
 99/5=1,9=1/99;
 ------
 SP_-50
 ------
 Symbolic Z-matrix:
 Charge =  1 Multiplicity = 1
 C                     2.49965   1.3697    0. 
 C                     3.71218   0.6866    0. 
 C                     3.6863   -0.69405   0. 
 C                     2.45133  -1.39173   0. 
 C                    -2.47473  -1.40538   0. 
 C                    -3.6794   -0.71265   0. 
 C                    -3.6875    0.67603   0. 
 C                    -2.4791    1.3706    0. 
 C                     0.00665   1.4544    0. 
 C                    -0.0183   -1.42015   0. 
 C                     1.2591    0.67988   0. 
 C                     1.2307   -0.72173   0. 
 C                    -1.26458   0.69135   0. 
 C                    -1.2457   -0.72353   0. 
 H                     2.4874    2.4531    0. 
 H                     4.64728   1.22602   0. 
 H                     4.6066   -1.26185   0. 
 H                     2.46255  -2.4745    0. 
 H                    -0.01688  -2.50143   0. 
 H                    -2.4735   -2.48777   0. 
 H                    -4.61095  -1.26118   0. 
 H                    -4.6223    1.2174    0. 
 H                    -2.4811    2.45378   0. 
 H                     0.024     2.15275  -0.85768 
 H                     0.024     2.15275   0.85768 
 
                          Input orientation:                          
 ---------------------------------------------------------------------
 Center     Atomic      Atomic             Coordinates (Angstroms)
 Number     Number       Type             X           Y           Z
 ---------------------------------------------------------------------
      1          6           0        2.499650    1.369700    0.000000
      2          6           0        3.712175    0.686600    0.000000
      3          6           0        3.686300   -0.694050    0.000000
      4          6           0        2.451325   -1.391725    0.000000
      5          6           0       -2.474725   -1.405375    0.000000
      6          6           0       -3.679400   -0.712650    0.000000
      7          6           0       -3.687500    0.676025    0.000000
      8          6           0       -2.479100    1.370600    0.000000
      9          6           0        0.006650    1.454400    0.000000
     10          6           0       -0.018300   -1.420150    0.000000
     11          6           0        1.259100    0.679875    0.000000
     12          6           0        1.230700   -0.721725    0.000000
     13          6           0       -1.264575    0.691350    0.000000
     14          6           0       -1.245700   -0.723525    0.000000
     15          1           0        2.487400    2.453100    0.000000
     16          1           0        4.647275    1.226025    0.000000
     17          1           0        4.606600   -1.261850    0.000000
     18          1           0        2.462550   -2.474500    0.000000
     19          1           0       -0.016875   -2.501425    0.000000
     20          1           0       -2.473500   -2.487775    0.000000
     21          1           0       -4.610950   -1.261175    0.000000
     22          1           0       -4.622300    1.217400    0.000000
     23          1           0       -2.481100    2.453775    0.000000
     24          1           0        0.024000    2.152750   -0.857675
     25          1           0        0.024000    2.152750    0.857675
 ---------------------------------------------------------------------
                    Distance matrix (angstroms):
                    1          2          3          4          5
     1  C    0.000000
     2  C    1.391705   0.000000
     3  C    2.380589   1.380892   0.000000
     4  C    2.761848   2.430880   1.418419   0.000000
     5  C    5.696091   6.531010   6.201952   4.926069   0.000000
     6  C    6.520494   7.522851   7.365723   6.168220   1.389644
     7  C    6.225914   7.399683   7.500002   6.477713   2.408952
     8  C    4.978750   6.228944   6.501918   5.651507   2.775978
     9  C    2.494438   3.784235   4.260946   3.751915   3.786230
    10  C    3.758103   4.284255   3.775087   2.469789   2.456469
    11  C    1.419445   2.453084   2.789080   2.390173   4.276648
    12  C    2.446281   2.853261   2.455756   1.392417   3.767964
    13  C    3.824859   4.976752   5.141060   4.259943   2.420892
    14  C    4.290599   5.154510   4.932088   3.756925   1.405497
    15  H    1.083469   2.149557   3.367776   3.844994   6.285739
    16  H    2.152426   1.079533   2.147129   3.416842   7.592572
    17  H    3.371097   2.143934   1.081364   2.159185   7.082779
    18  H    3.844379   3.399135   2.160455   1.082833   5.051704
    19  H    4.617197   4.906049   4.120693   2.706186   2.691162
    20  H    6.293833   6.952642   6.415652   5.045317   1.082401
    21  H    7.581697   8.547996   8.316609   7.063482   2.141086
    22  H    7.123578   8.351360   8.525636   7.539476   3.389842
    23  H    5.097361   6.440463   6.924278   6.254333   3.859155
    24  H    2.734523   4.060522   4.717236   4.380732   4.431646
    25  H    2.734523   4.060522   4.717236   4.380732   4.431646
                    6          7          8          9         10
     6  C    0.000000
     7  C    1.388699   0.000000
     8  C    2.404298   1.393795   0.000000
     9  C    4.275871   3.775263   2.487162   0.000000
    10  C    3.728835   4.225752   3.720729   2.874658   0.000000
    11  C    5.131073   4.946601   3.801479   1.472590   2.458019
    12  C    4.910108   5.112964   4.259160   2.496762   1.431013
    13  C    2.793313   2.422973   1.391564   1.482652   2.451863
    14  C    2.433724   2.814450   2.430357   2.512317   1.411310
    15  H    6.931911   6.425526   5.083102   2.674233   4.613090
    16  H    8.549385   8.352902   7.127841   4.646241   5.363752
    17  H    8.304181   8.517479   7.558898   5.342055   4.627608
    18  H    6.389653   6.910060   6.261366   4.633325   2.695602
    19  H    4.076004   4.854861   4.588587   3.955895   1.081276
    20  H    2.145988   3.388720   3.858379   4.657455   2.677280
    21  H    1.081048   2.146044   3.386890   5.356919   4.595401
    22  H    2.148058   1.080249   2.148669   4.635013   5.305986
    23  H    3.385583   2.148440   1.083177   2.680979   4.590499
    24  H    4.760388   4.085530   2.759144   1.106165   3.674644
    25  H    4.760388   4.085530   2.759144   1.106165   3.674644
                   11         12         13         14         15
    11  C    0.000000
    12  C    1.401888   0.000000
    13  C    2.523701   2.867608   0.000000
    14  C    2.871159   2.476401   1.415001   0.000000
    15  H    2.157092   3.414500   4.145007   4.901733   0.000000
    16  H    3.431910   3.932774   5.935979   6.207085   2.484104
    17  H    3.869890   3.418835   6.187543   5.877007   4.276899
    18  H    3.376148   2.142353   4.890201   4.100857   4.927663
    19  H    3.427650   2.173425   3.427910   2.161236   5.551460
    20  H    4.895540   4.103661   3.401226   2.149435   7.001627
    21  H    6.182650   5.866505   3.874349   3.407928   8.011393
    22  H    5.905912   6.165859   3.398683   3.894691   7.216286
    23  H    4.139543   4.884799   2.141512   3.409025   4.968500
    24  H    2.104861   3.233317   2.128784   3.258942   2.625673
    25  H    2.104861   3.233317   2.128784   3.258942   2.625673
                   16         17         18         19         20
    16  H    0.000000
    17  H    2.488207   0.000000
    18  H    4.297314   2.463224   0.000000
    19  H    5.970610   4.786760   2.479571   0.000000
    20  H    8.031049   7.185451   4.936068   2.456663   0.000000
    21  H    9.586495   9.217550   7.176807   4.758544   2.464394
    22  H    9.269579   9.556112   7.989069   5.919426   4.283184
    23  H    7.233333   8.002585   6.980514   5.534113   4.941556
    24  H    4.792609   5.778869   5.300337   4.732718   5.339249
    25  H    4.792609   5.778869   5.300337   4.732718   5.339249
                   21         22         23         24         25
    21  H    0.000000
    22  H    2.478601   0.000000
    23  H    4.282186   2.472521   0.000000
    24  H    5.820073   4.816491   2.664911   0.000000
    25  H    5.820073   4.816491   2.664911   1.715350   0.000000
 Stoichiometry    C14H11(1+)
 Framework group  CS[SG(C14H9),X(H2)]
 Deg. of freedom    46
 Full point group                 CS      NOp   2
 Largest Abelian subgroup         CS      NOp   2
 Largest concise Abelian subgroup CS      NOp   2
                         Standard orientation:                         
 ---------------------------------------------------------------------
 Center     Atomic      Atomic             Coordinates (Angstroms)
 Number     Number       Type             X           Y           Z
 ---------------------------------------------------------------------
      1          6           0        0.025040    2.845800    0.000000
      2          6           0       -1.148212    3.594348    0.000000
      3          6           0       -2.354331    2.921934    0.000000
      4          6           0       -2.388921    1.503937    0.000000
      5          6           0       -0.083311   -2.849260    0.000000
      6          6           0        1.094740   -3.586352    0.000000
      7          6           0        2.323925   -2.940143    0.000000
      8          6           0        2.368283   -1.547054    0.000000
      9          6           0        1.272710    0.685813    0.000000
     10          6           0       -1.252071   -0.688648    0.000000
     11          6           0        0.000000    1.426576    0.000000
     12          6           0       -1.223418    0.742078    0.000000
     13          6           0        1.197488   -0.794930    0.000000
     14          6           0       -0.059886   -1.443958    0.000000
     15          1           0        0.986802    3.344719    0.000000
     16          1           0       -1.112174    4.673279    0.000000
     17          1           0       -3.288352    3.466868    0.000000
     18          1           0       -3.349649    1.004407    0.000000
     19          1           0       -2.206864   -1.196119    0.000000
     20          1           0       -1.039004   -3.357437    0.000000
     21          1           0        1.049003   -4.666433    0.000000
     22          1           0        3.241451   -3.510305    0.000000
     23          1           0        3.325024   -1.039196    0.000000
     24          1           0        1.880775    1.029689    0.857675
     25          1           0        1.880775    1.029689   -0.857675
 ---------------------------------------------------------------------
 Rotational constants (GHZ):           2.1387930           0.4449830           0.3691450
 Standard basis: 6-311++G(d,p) (5D, 7F)
 There are   299 symmetry adapted cartesian basis functions of A'  symmetry.
 There are   100 symmetry adapted cartesian basis functions of A"  symmetry.
 There are   285 symmetry adapted basis functions of A'  symmetry.
 There are   100 symmetry adapted basis functions of A"  symmetry.
   385 basis functions,   603 primitive gaussians,   399 cartesian basis functions
    47 alpha electrons       47 beta electrons
       nuclear repulsion energy       781.5483828908 Hartrees.
 NAtoms=   25 NActive=   25 NUniq=   24 SFac= 1.09D+00 NAtFMM=   60 NAOKFM=F Big=F
 Integral buffers will be    131072 words long.
 Regular integral format.
 Two-electron integral symmetry is turned on.
 Nuclear repulsion after empirical dispersion term =      781.5474035722 Hartrees.
 One-electron integrals computed using PRISM.
 NBasis=   385 RedAO= T EigKep=  1.11D-06  NBF=   285   100
 NBsUse=   379 1.00D-06 EigRej=  8.33D-07 NBFU=   279   100
 ExpMin= 3.60D-02 ExpMax= 4.56D+03 ExpMxC= 6.82D+02 IAcc=3 IRadAn=         5 AccDes= 0.00D+00
 Harris functional with IExCor= 1009 and IRadAn=       5 diagonalized for initial guess.
 HarFok:  IExCor= 1009 AccDes= 0.00D+00 IRadAn=         5 IDoV= 1 UseB2=F ITyADJ=14
 ICtDFT=  3500011 ScaDFX=  1.000000  1.000000  1.000000  1.000000
 FoFCou: FMM=F IPFlag=           0 FMFlag=      100000 FMFlg1=           0
         NFxFlg=           0 DoJE=T BraDBF=F KetDBF=T FulRan=T
         wScrn=  0.000000 ICntrl=       500 IOpCl=  0 I1Cent=   200000004 NGrid=           0
         NMat0=    1 NMatS0=      1 NMatT0=    0 NMatD0=    1 NMtDS0=    0 NMtDT0=    0
 Petite list used in FoFCou.
 Initial guess orbital symmetries:
       Occupied  (A') (A') (A') (A') (A') (A') (A') (A') (A') (A')
                 (A') (A') (A') (A') (A') (A') (A') (A') (A') (A')
                 (A') (A') (A') (A') (A') (A') (A') (A') (A') (A')
                 (A') (A') (A") (A') (A') (A') (A') (A') (A') (A")
                 (A") (A') (A') (A") (A") (A") (A")
       Virtual   (A") (A") (A") (A") (A") (A') (A') (A') (A') (A")
                 (A") (A') (A') (A') (A") (A') (A') (A') (A') (A")
                 (A') (A") (A') (A') (A') (A") (A') (A") (A') (A')
                 (A') (A') (A') (A") (A') (A') (A") (A') (A') (A")
                 (A') (A') (A') (A") (A') (A') (A') (A') (A') (A")
                 (A') (A') (A") (A") (A') (A') (A') (A") (A") (A')
                 (A') (A') (A') (A') (A') (A") (A') (A') (A') (A")
                 (A') (A') (A') (A') (A') (A') (A') (A') (A') (A')
                 (A') (A') (A') (A') (A') (A') (A') (A') (A') (A')
                 (A') (A') (A') (A') (A') (A') (A') (A") (A') (A")
                 (A') (A') (A") (A") (A') (A") (A') (A") (A') (A")
                 (A") (A') (A') (A') (A") (A') (A') (A") (A") (A')
                 (A") (A") (A') (A') (A') (A") (A') (A') (A') (A")
                 (A') (A') (A') (A') (A') (A') (A") (A') (A') (A')
                 (A') (A') (A') (A') (A') (A') (A') (A') (A') (A")
                 (A") (A') (A") (A") (A') (A') (A') (A") (A") (A')
                 (A") (A') (A") (A") (A") (A') (A') (A') (A') (A')
                 (A') (A") (A') (A") (A') (A') (A') (A') (A') (A")
                 (A') (A') (A') (A') (A") (A') (A") (A') (A") (A")
                 (A') (A") (A') (A") (A') (A') (A') (A") (A') (A')
                 (A") (A") (A") (A') (A') (A") (A') (A") (A') (A')
                 (A") (A") (A') (A") (A') (A") (A') (A') (A") (A')
                 (A') (A') (A') (A') (A") (A') (A') (A') (A") (A")
                 (A') (A') (A') (A") (A') (A') (A") (A') (A") (A')
                 (A") (A') (A') (A') (A') (A') (A") (A') (A') (A")
                 (A') (A') (A") (A') (A") (A') (A') (A") (A') (A')
                 (A') (A') (A") (A") (A') (A') (A') (A") (A") (A')
                 (A') (A') (A') (A') (A") (A') (A") (A') (A") (A')
                 (A") (A') (A") (A") (A") (A') (A') (A') (A') (A')
                 (A') (A') (A') (A') (A') (A') (A') (A') (A') (A')
                 (A') (A') (A') (A") (A') (A') (A') (A') (A') (A')
                 (A') (A') (A') (A') (A') (A') (A') (A') (A') (A')
                 (A') (A') (A') (A') (A') (A') (A') (A') (A') (A')
                 (A') (A')
 The electronic state of the initial guess is 1-A'.
 Requested convergence on RMS density matrix=1.00D-08 within 128 cycles.
 Requested convergence on MAX density matrix=1.00D-06.
 Requested convergence on             energy=1.00D-06.
 No special actions if energy rises.
 SCF Done:  E(RM062X) =  -539.759084109     A.U. after   15 cycles
            NFock= 15  Conv=0.66D-08     -V/T= 2.0042
 DoSCS=F DFT=T ScalE2(SS,OS)=  1.000000  1.000000
 ExpMin= 3.60D-02 ExpMax= 4.56D+03 ExpMxC= 6.82D+02 IAcc=3 IRadAn=         5 AccDes= 0.00D+00
 HarFok:  IExCor=  205 AccDes= 0.00D+00 IRadAn=         5 IDoV=-2 UseB2=F ITyADJ=14
 ICtDFT= 12500011 ScaDFX=  1.000000  1.000000  1.000000  1.000000
 Range of M.O.s used for correlation:    15   379
 NBasis=   385 NAE=    47 NBE=    47 NFC=    14 NFV=     0
 NROrb=    365 NOA=    33 NOB=    33 NVA=   332 NVB=   332

 **** Warning!!: The largest alpha MO coefficient is  0.14581682D+03

 Orbital symmetries:
       Occupied  (A') (A') (A') (A') (A') (A') (A') (A') (A') (A')
                 (A') (A') (A') (A') (A') (A') (A') (A') (A') (A')
                 (A') (A') (A') (A') (A') (A') (A') (A') (A') (A')
                 (A') (A') (A") (A') (A') (A') (A') (A") (A") (A')
                 (A') (A') (A') (A") (A") (A") (A")
       Virtual   (A") (A") (A") (A") (A') (A') (A') (A') (A") (A')
                 (A') (A") (A') (A') (A") (A') (A") (A') (A') (A')
                 (A") (A") (A') (A') (A') (A") (A') (A") (A') (A')
                 (A") (A') (A") (A') (A') (A') (A') (A') (A") (A')
                 (A") (A') (A') (A") (A") (A') (A") (A') (A") (A')
                 (A') (A') (A') (A') (A') (A") (A') (A') (A') (A')
                 (A') (A") (A') (A') (A') (A") (A') (A') (A') (A')
                 (A') (A') (A') (A') (A') (A') (A') (A') (A') (A')
                 (A') (A') (A') (A') (A') (A') (A') (A') (A') (A')
                 (A') (A') (A') (A') (A") (A') (A") (A") (A') (A")
                 (A') (A') (A') (A') (A") (A") (A') (A") (A") (A')
                 (A') (A') (A") (A') (A') (A") (A') (A") (A') (A")
                 (A") (A') (A") (A') (A') (A') (A") (A') (A') (A')
                 (A') (A') (A') (A') (A') (A') (A') (A') (A') (A')
                 (A') (A') (A') (A") (A') (A') (A') (A') (A') (A')
                 (A') (A') (A") (A') (A") (A') (A") (A") (A') (A")
                 (A") (A') (A') (A") (A") (A") (A') (A") (A') (A')
                 (A') (A') (A') (A") (A") (A') (A') (A') (A') (A")
                 (A') (A') (A') (A") (A") (A') (A') (A') (A") (A")
                 (A") (A') (A') (A") (A') (A") (A') (A') (A') (A')
                 (A") (A") (A") (A') (A") (A') (A') (A") (A') (A')
                 (A') (A") (A') (A") (A") (A') (A") (A') (A') (A")
                 (A') (A') (A') (A') (A") (A') (A') (A') (A") (A")
                 (A') (A') (A') (A") (A') (A') (A') (A") (A") (A')
                 (A") (A') (A') (A") (A') (A') (A') (A') (A') (A')
                 (A") (A') (A') (A') (A') (A") (A") (A") (A') (A')
                 (A') (A') (A') (A') (A') (A') (A") (A') (A') (A')
                 (A') (A") (A') (A") (A") (A") (A') (A") (A') (A")
                 (A') (A") (A") (A') (A") (A") (A') (A') (A') (A')
                 (A') (A') (A') (A') (A') (A') (A') (A') (A') (A')
                 (A') (A') (A') (A") (A') (A') (A') (A') (A') (A')
                 (A') (A') (A') (A') (A') (A') (A') (A') (A') (A')
                 (A') (A') (A') (A') (A') (A') (A') (A') (A') (A')
                 (A') (A')
     4 initial guesses have been made.
 Convergence on wavefunction:    0.001000000000000
 Iteration     1 Dimension     4 NMult     0 NNew      4
 CISAX will form     4 AO SS matrices at one time.
 Iteration     2 Dimension     6 NMult     4 NNew      2
 Iteration     3 Dimension     8 NMult     6 NNew      2
 Iteration     4 Dimension    10 NMult     8 NNew      2
 Iteration     5 Dimension    12 NMult    10 NNew      2
 Iteration     6 Dimension    14 NMult    12 NNew      2
 ***********************************************************************
 Excited states from <AA,BB:AA,BB> singles matrix:
 ***********************************************************************
 
 Ground to excited state transition densities written to RWF  633
 Ground to excited state transition electric dipole moments (Au):
       state          X           Y           Z        Dip. S.      Osc.
         1         0.5412      0.3106     -0.0000      0.3894      0.0266
 Ground to excited state transition velocity dipole moments (Au):
       state          X           Y           Z        Dip. S.      Osc.
         1        -0.0631     -0.0336      0.0000      0.0051      0.0332
 Ground to excited state transition magnetic dipole moments (Au):
       state          X           Y           Z
         1         0.0000      0.0000      0.1100
 Ground to excited state transition velocity quadrupole moments (Au):
       state          XX          YY          ZZ          XY          XZ          YZ
         1         0.1278      0.1856     -0.0094     -0.1307     -0.0000     -0.0000
 <0|del|b> * <b|rxdel|0> + <0|del|b> * <b|delr+rdel|0>
 Rotatory Strengths (R) in cgs (10**-40 erg-esu-cm/Gauss)
       state          XX          YY          ZZ    R(velocity)    E-M Angle
         1        -0.0000      0.0000     -0.0000     -0.0000       90.00
 1/2[<0|r|b>*<b|rxdel|0> + (<0|rxdel|b>*<b|r|0>)*]
 Rotatory Strengths (R) in cgs (10**-40 erg-esu-cm/Gauss)
       state          XX          YY          ZZ     R(length)
         1        -0.0000     -0.0000      0.0000     -0.0000
  1/2[<0|del|b>*<b|r|0> + (<0|r|b>*<b|del|0>)*] (Au)
       state          X           Y           Z        Dip. S.   Osc.(frdel)
         1        -0.0342     -0.0104     -0.0000      0.0446      0.0297

 Excitation energies and oscillator strengths:
 
 Excited State   1:      Singlet-A'     2.7920 eV  444.07 nm  f=0.0266  <S**2>=0.000
      47 -> 48         0.70395
 This state for optimization and/or second-order correction.
 Total Energy, E(TD-HF/TD-DFT) =  -539.656480928    
 Copying the excited state density for this state as the 1-particle RhoCI density.
 SavETr:  write IOETrn=   770 NScale= 10 NData=  16 NLR=1 NState=    1 LETran=      28.

 **********************************************************************

            Population analysis using the SCF Density.

 **********************************************************************

 Orbital symmetries:
       Occupied  (A') (A') (A') (A') (A') (A') (A') (A') (A') (A')
                 (A') (A') (A') (A') (A') (A') (A') (A') (A') (A')
                 (A') (A') (A') (A') (A') (A') (A') (A') (A') (A')
                 (A') (A') (A") (A') (A') (A') (A') (A") (A") (A')
                 (A') (A') (A') (A") (A") (A") (A")
       Virtual   (A") (A") (A") (A") (A') (A') (A') (A') (A") (A')
                 (A') (A") (A') (A') (A") (A') (A") (A') (A') (A')
                 (A") (A") (A') (A') (A') (A") (A') (A") (A') (A')
                 (A") (A') (A") (A') (A') (A') (A') (A') (A") (A')
                 (A") (A') (A') (A") (A") (A') (A") (A') (A") (A')
                 (A') (A') (A') (A') (A') (A") (A') (A') (A') (A')
                 (A') (A") (A') (A') (A') (A") (A') (A') (A') (A')
                 (A') (A') (A') (A') (A') (A') (A') (A') (A') (A')
                 (A') (A') (A') (A') (A') (A') (A') (A') (A') (A')
                 (A') (A') (A') (A') (A") (A') (A") (A") (A') (A")
                 (A') (A') (A') (A') (A") (A") (A') (A") (A") (A')
                 (A') (A') (A") (A') (A') (A") (A') (A") (A') (A")
                 (A") (A') (A") (A') (A') (A') (A") (A') (A') (A')
                 (A') (A') (A') (A') (A') (A') (A') (A') (A') (A')
                 (A') (A') (A') (A") (A') (A') (A') (A') (A') (A')
                 (A') (A') (A") (A') (A") (A') (A") (A") (A') (A")
                 (A") (A') (A') (A") (A") (A") (A') (A") (A') (A')
                 (A') (A') (A') (A") (A") (A') (A') (A') (A') (A")
                 (A') (A') (A') (A") (A") (A') (A') (A') (A") (A")
                 (A") (A') (A') (A") (A') (A") (A') (A') (A') (A')
                 (A") (A") (A") (A') (A") (A') (A') (A") (A') (A')
                 (A') (A") (A') (A") (A") (A') (A") (A') (A') (A")
                 (A') (A') (A') (A') (A") (A') (A') (A') (A") (A")
                 (A') (A') (A') (A") (A') (A') (A') (A") (A") (A')
                 (A") (A') (A') (A") (A') (A') (A') (A') (A') (A')
                 (A") (A') (A') (A') (A') (A") (A") (A") (A') (A')
                 (A') (A') (A') (A') (A') (A') (A") (A') (A') (A')
                 (A') (A") (A') (A") (A") (A") (A') (A") (A') (A")
                 (A') (A") (A") (A') (A") (A") (A') (A') (A') (A')
                 (A') (A') (A') (A') (A') (A') (A') (A') (A') (A')
                 (A') (A') (A') (A") (A') (A') (A') (A') (A') (A')
                 (A') (A') (A') (A') (A') (A') (A') (A') (A') (A')
                 (A') (A') (A') (A') (A') (A') (A') (A') (A') (A')
                 (A') (A')
 The electronic state is 1-A'.
 Alpha  occ. eigenvalues --  -10.77639 -10.73408 -10.72977 -10.72589 -10.72239
 Alpha  occ. eigenvalues --  -10.71567 -10.71403 -10.71154 -10.70957 -10.70631
 Alpha  occ. eigenvalues --  -10.70068 -10.69873 -10.69741 -10.69494  -1.16503
 Alpha  occ. eigenvalues --   -1.12497  -1.06943  -1.05821  -1.01311  -1.00275
 Alpha  occ. eigenvalues --   -0.95740  -0.91070  -0.86428  -0.85916  -0.83825
 Alpha  occ. eigenvalues --   -0.78396  -0.76087  -0.74415  -0.69581  -0.69268
 Alpha  occ. eigenvalues --   -0.68485  -0.68189  -0.68086  -0.64858  -0.64287
 Alpha  occ. eigenvalues --   -0.63060  -0.61832  -0.60087  -0.59569  -0.59093
 Alpha  occ. eigenvalues --   -0.56928  -0.55224  -0.54812  -0.52433  -0.46772
 Alpha  occ. eigenvalues --   -0.46076  -0.44342
 Alpha virt. eigenvalues --   -0.26074  -0.14673  -0.14092  -0.12769  -0.11183
 Alpha virt. eigenvalues --   -0.10093  -0.09234  -0.07979  -0.07954  -0.07478
 Alpha virt. eigenvalues --   -0.07210  -0.07147  -0.05641  -0.05583  -0.05339
 Alpha virt. eigenvalues --   -0.03831  -0.03651  -0.03280  -0.03130  -0.02162
 Alpha virt. eigenvalues --   -0.01368  -0.00935   0.00183   0.00593   0.00685
 Alpha virt. eigenvalues --    0.01060   0.01509   0.01932   0.02205   0.02282
 Alpha virt. eigenvalues --    0.02450   0.02674   0.02760   0.03242   0.03385
 Alpha virt. eigenvalues --    0.04234   0.04510   0.04695   0.05028   0.05368
 Alpha virt. eigenvalues --    0.06027   0.06302   0.06596   0.07060   0.07250
 Alpha virt. eigenvalues --    0.07897   0.08156   0.08371   0.08574   0.08925
 Alpha virt. eigenvalues --    0.09535   0.09574   0.10041   0.10884   0.11060
 Alpha virt. eigenvalues --    0.11111   0.12177   0.12254   0.12876   0.13021
 Alpha virt. eigenvalues --    0.13427   0.13521   0.14026   0.14363   0.16161
 Alpha virt. eigenvalues --    0.16297   0.16414   0.17345   0.17605   0.17793
 Alpha virt. eigenvalues --    0.18136   0.19041   0.19266   0.19650   0.19788
 Alpha virt. eigenvalues --    0.21568   0.21638   0.22728   0.23128   0.23577
 Alpha virt. eigenvalues --    0.23761   0.24532   0.25251   0.26927   0.27620
 Alpha virt. eigenvalues --    0.28875   0.29307   0.29909   0.31381   0.35866
 Alpha virt. eigenvalues --    0.36473   0.38185   0.39285   0.41152   0.41382
 Alpha virt. eigenvalues --    0.42009   0.42152   0.42981   0.43724   0.44315
 Alpha virt. eigenvalues --    0.44890   0.45080   0.46033   0.46257   0.47887
 Alpha virt. eigenvalues --    0.48513   0.48889   0.49010   0.50454   0.51264
 Alpha virt. eigenvalues --    0.51534   0.51865   0.52117   0.52922   0.54009
 Alpha virt. eigenvalues --    0.54091   0.54687   0.55671   0.55797   0.57355
 Alpha virt. eigenvalues --    0.58241   0.58843   0.61469   0.62164   0.62370
 Alpha virt. eigenvalues --    0.63223   0.63495   0.65043   0.65168   0.67412
 Alpha virt. eigenvalues --    0.70371   0.70530   0.71087   0.72450   0.72897
 Alpha virt. eigenvalues --    0.75718   0.76042   0.76340   0.76871   0.77112
 Alpha virt. eigenvalues --    0.77862   0.77948   0.78285   0.79865   0.80408
 Alpha virt. eigenvalues --    0.81282   0.81598   0.82188   0.83022   0.85236
 Alpha virt. eigenvalues --    0.87173   0.88237   0.88560   0.89143   0.90478
 Alpha virt. eigenvalues --    0.91155   0.91274   0.93214   0.94646   0.96427
 Alpha virt. eigenvalues --    0.96712   1.00340   1.01317   1.01648   1.02743
 Alpha virt. eigenvalues --    1.03218   1.03654   1.04766   1.05623   1.08825
 Alpha virt. eigenvalues --    1.19587   1.23193   1.24120   1.25127   1.28335
 Alpha virt. eigenvalues --    1.29563   1.31912   1.34228   1.35800   1.36008
 Alpha virt. eigenvalues --    1.39397   1.40096   1.40967   1.42932   1.43530
 Alpha virt. eigenvalues --    1.43541   1.44734   1.45954   1.46392   1.46676
 Alpha virt. eigenvalues --    1.47651   1.48087   1.51819   1.53639   1.55797
 Alpha virt. eigenvalues --    1.56042   1.56346   1.56562   1.57832   1.61515
 Alpha virt. eigenvalues --    1.63176   1.63383   1.63869   1.66151   1.68346
 Alpha virt. eigenvalues --    1.68391   1.68661   1.69720   1.74461   1.76022
 Alpha virt. eigenvalues --    1.77241   1.78054   1.80147   1.80167   1.80779
 Alpha virt. eigenvalues --    1.83128   1.83197   1.83678   1.83833   1.84133
 Alpha virt. eigenvalues --    1.84348   1.85737   1.86200   1.88270   1.91419
 Alpha virt. eigenvalues --    1.92134   1.94151   1.95271   1.97728   1.98191
 Alpha virt. eigenvalues --    1.99801   2.02691   2.04509   2.07270   2.11824
 Alpha virt. eigenvalues --    2.12132   2.14147   2.15224   2.19195   2.21376
 Alpha virt. eigenvalues --    2.22790   2.28492   2.30423   2.34712   2.34972
 Alpha virt. eigenvalues --    2.36250   2.38669   2.39612   2.42402   2.44305
 Alpha virt. eigenvalues --    2.46194   2.46844   2.49385   2.52968   2.53831
 Alpha virt. eigenvalues --    2.54437   2.56664   2.57869   2.58319   2.59613
 Alpha virt. eigenvalues --    2.59867   2.61623   2.62179   2.63579   2.63846
 Alpha virt. eigenvalues --    2.64804   2.65149   2.65176   2.65441   2.68128
 Alpha virt. eigenvalues --    2.68643   2.70981   2.71429   2.73363   2.74835
 Alpha virt. eigenvalues --    2.76298   2.78973   2.79754   2.83106   2.83115
 Alpha virt. eigenvalues --    2.84924   2.86382   2.92154   2.96982   2.99525
 Alpha virt. eigenvalues --    3.00124   3.05464   3.10922   3.11561   3.13442
 Alpha virt. eigenvalues --    3.21155   3.23967   3.26862   3.28483   3.30713
 Alpha virt. eigenvalues --    3.32817   3.33893   3.43501   3.45982   3.46888
 Alpha virt. eigenvalues --    3.48712   3.50293   3.56644   3.65019   3.67137
 Alpha virt. eigenvalues --    3.67581   3.94123   3.94403   3.95244   3.96308
 Alpha virt. eigenvalues --    4.04024   4.06892   4.07663   4.12527   4.35750
 Alpha virt. eigenvalues --    4.61817   4.69842   4.71627  23.45307  23.60565
 Alpha virt. eigenvalues --   23.81980  23.85222  23.87547  23.89293  23.90747
 Alpha virt. eigenvalues --   23.93395  23.97134  23.98556  24.00889  24.02188
 Alpha virt. eigenvalues --   24.10711  24.11160
          Condensed to atoms (all electrons):
               1          2          3          4          5          6
     1  C    8.641509   0.302049  -0.514090   1.976632  -0.019811  -0.099080
     2  C    0.302049   7.071587   0.336228  -1.060382  -0.017280  -0.014562
     3  C   -0.514090   0.336228   6.580057   0.763892  -0.125258   0.016923
     4  C    1.976632  -1.060382   0.763892  10.660389  -0.301612  -0.114901
     5  C   -0.019811  -0.017280  -0.125258  -0.301612  10.977613   0.720659
     6  C   -0.099080  -0.014562   0.016923  -0.114901   0.720659   6.591089
     7  C   -0.019000   0.003549  -0.015509  -0.037965  -0.975511   0.405509
     8  C    0.406334  -0.031887  -0.089667   0.009820   1.751466  -0.615863
     9  C   -1.254477  -0.757233   0.283785  -0.362878  -0.176067   0.285319
    10  C   -1.275841   0.273309  -0.394670  -2.470070  -2.631781  -0.322123
    11  C    0.243002  -0.986267   1.072471  -0.239347  -1.533103  -0.202303
    12  C   -2.007524   1.430694  -1.399135  -1.457963  -0.376363  -0.167348
    13  C    0.163040  -0.258154  -0.153842  -1.462132  -0.222258   0.972964
    14  C   -1.039258  -0.162434  -0.235112  -0.266576  -1.446813  -1.333341
    15  H    0.365142  -0.103146  -0.001120   0.027389   0.005654   0.001040
    16  H   -0.018983   0.375663  -0.013621   0.012190  -0.001491  -0.000316
    17  H   -0.025305  -0.013971   0.371604  -0.065770   0.000396   0.000387
    18  H    0.049902   0.002774  -0.085060   0.451128   0.007604  -0.005014
    19  H   -0.048006  -0.007261   0.050659  -0.066918  -0.074754   0.050474
    20  H    0.007565   0.001950  -0.004895   0.007721   0.455697  -0.085042
    21  H   -0.001364  -0.000387   0.000398   0.000217  -0.067015   0.376885
    22  H    0.000825   0.000374  -0.000340  -0.001617   0.015278  -0.017846
    23  H    0.005581  -0.002836   0.001155   0.006334   0.025250  -0.002850
    24  H    0.029269   0.013597  -0.001558  -0.012772  -0.012002  -0.001350
    25  H    0.029269   0.013597  -0.001558  -0.012772  -0.012002  -0.001350
               7          8          9         10         11         12
     1  C   -0.019000   0.406334  -1.254477  -1.275841   0.243002  -2.007524
     2  C    0.003549  -0.031887  -0.757233   0.273309  -0.986267   1.430694
     3  C   -0.015509  -0.089667   0.283785  -0.394670   1.072471  -1.399135
     4  C   -0.037965   0.009820  -0.362878  -2.470070  -0.239347  -1.457963
     5  C   -0.975511   1.751466  -0.176067  -2.631781  -1.533103  -0.376363
     6  C    0.405509  -0.615863   0.285319  -0.322123  -0.202303  -0.167348
     7  C    7.078110   0.505997  -0.792928   0.192823  -0.223880  -0.249728
     8  C    0.505997   8.433901  -1.271888  -1.189936   0.145880  -1.097414
     9  C   -0.792928  -1.271888   9.668896   0.250218   1.728897  -1.924236
    10  C    0.192823  -1.189936   0.250218   9.261570  -0.603860   2.451702
    11  C   -0.223880   0.145880   1.728897  -0.603860  14.644087  -3.695027
    12  C   -0.249728  -1.097414  -1.924236   2.451702  -3.695027  15.993191
    13  C   -0.900499   0.248070   1.797870  -0.521864   1.086998  -4.883588
    14  C    1.151777  -1.694759  -2.081141   2.409287  -4.846887   2.945252
    15  H   -0.002616   0.006336   0.093727  -0.010377  -0.030861  -0.029101
    16  H    0.000340   0.000550   0.004924  -0.009441   0.029873  -0.036513
    17  H   -0.000407  -0.001295  -0.006348   0.020980  -0.029154   0.093179
    18  H    0.001939   0.007443  -0.026241   0.018064  -0.008762  -0.055015
    19  H   -0.007681  -0.045489   0.076458   0.422373   0.079778  -0.056298
    20  H    0.003141   0.047140  -0.024823   0.015347  -0.011821  -0.014978
    21  H   -0.019737  -0.020122  -0.005582   0.020490  -0.006365   0.005194
    22  H    0.379198  -0.020130   0.004117  -0.010382   0.003306  -0.009694
    23  H   -0.102223   0.364074   0.090204  -0.008830  -0.000625   0.007158
    24  H    0.014865   0.033726   0.358190   0.005685   0.008309  -0.059886
    25  H    0.014865   0.033726   0.358190   0.005685   0.008309  -0.059886
              13         14         15         16         17         18
     1  C    0.163040  -1.039258   0.365142  -0.018983  -0.025305   0.049902
     2  C   -0.258154  -0.162434  -0.103146   0.375663  -0.013971   0.002774
     3  C   -0.153842  -0.235112  -0.001120  -0.013621   0.371604  -0.085060
     4  C   -1.462132  -0.266576   0.027389   0.012190  -0.065770   0.451128
     5  C   -0.222258  -1.446813   0.005654  -0.001491   0.000396   0.007604
     6  C    0.972964  -1.333341   0.001040  -0.000316   0.000387  -0.005014
     7  C   -0.900499   1.151777  -0.002616   0.000340  -0.000407   0.001939
     8  C    0.248070  -1.694759   0.006336   0.000550  -0.001295   0.007443
     9  C    1.797870  -2.081141   0.093727   0.004924  -0.006348  -0.026241
    10  C   -0.521864   2.409287  -0.010377  -0.009441   0.020980   0.018064
    11  C    1.086998  -4.846887  -0.030861   0.029873  -0.029154  -0.008762
    12  C   -4.883588   2.945252  -0.029101  -0.036513   0.093179  -0.055015
    13  C   14.694809  -3.975865   0.003640   0.002986  -0.006390  -0.011770
    14  C   -3.975865  16.111287   0.006253  -0.008595   0.005343  -0.009596
    15  H    0.003640   0.006253   0.440570  -0.008913   0.001368   0.000170
    16  H    0.002986  -0.008595  -0.008913   0.420451  -0.006405   0.001887
    17  H   -0.006390   0.005343   0.001368  -0.006405   0.423469  -0.010213
    18  H   -0.011770  -0.009596   0.000170   0.001887  -0.010213   0.455095
    19  H    0.076553  -0.074040   0.000247  -0.000500   0.001270  -0.006303
    20  H   -0.011344  -0.047337  -0.000105   0.000012  -0.000131   0.001293
    21  H   -0.027728   0.087706   0.000011  -0.000007   0.000010  -0.000151
    22  H    0.029303  -0.035065  -0.000127   0.000007  -0.000007   0.000016
    23  H   -0.029021  -0.019327   0.000612  -0.000124   0.000014  -0.000116
    24  H    0.018151  -0.059233  -0.000875   0.000628  -0.000144   0.000189
    25  H    0.018151  -0.059233  -0.000875   0.000628  -0.000144   0.000189
              19         20         21         22         23         24
     1  C   -0.048006   0.007565  -0.001364   0.000825   0.005581   0.029269
     2  C   -0.007261   0.001950  -0.000387   0.000374  -0.002836   0.013597
     3  C    0.050659  -0.004895   0.000398  -0.000340   0.001155  -0.001558
     4  C   -0.066918   0.007721   0.000217  -0.001617   0.006334  -0.012772
     5  C   -0.074754   0.455697  -0.067015   0.015278   0.025250  -0.012002
     6  C    0.050474  -0.085042   0.376885  -0.017846  -0.002850  -0.001350
     7  C   -0.007681   0.003141  -0.019737   0.379198  -0.102223   0.014865
     8  C   -0.045489   0.047140  -0.020122  -0.020130   0.364074   0.033726
     9  C    0.076458  -0.024823  -0.005582   0.004117   0.090204   0.358190
    10  C    0.422373   0.015347   0.020490  -0.010382  -0.008830   0.005685
    11  C    0.079778  -0.011821  -0.006365   0.003306  -0.000625   0.008309
    12  C   -0.056298  -0.014978   0.005194  -0.009694   0.007158  -0.059886
    13  C    0.076553  -0.011344  -0.027728   0.029303  -0.029021   0.018151
    14  C   -0.074040  -0.047337   0.087706  -0.035065  -0.019327  -0.059233
    15  H    0.000247  -0.000105   0.000011  -0.000127   0.000612  -0.000875
    16  H   -0.000500   0.000012  -0.000007   0.000007  -0.000124   0.000628
    17  H    0.001270  -0.000131   0.000010  -0.000007   0.000014  -0.000144
    18  H   -0.006303   0.001293  -0.000151   0.000016  -0.000116   0.000189
    19  H    0.442691  -0.005863   0.001520  -0.000554   0.000332   0.000629
    20  H   -0.005863   0.450595  -0.010031   0.001924   0.000243   0.000155
    21  H    0.001520  -0.010031   0.421279  -0.006850   0.001544  -0.000137
    22  H   -0.000554   0.001924  -0.006850   0.417766  -0.008893   0.000625
    23  H    0.000332   0.000243   0.001544  -0.008893   0.436235  -0.000892
    24  H    0.000629   0.000155  -0.000137   0.000625  -0.000892   0.494942
    25  H    0.000629   0.000155  -0.000137   0.000625  -0.000892  -0.081009
              25
     1  C    0.029269
     2  C    0.013597
     3  C   -0.001558
     4  C   -0.012772
     5  C   -0.012002
     6  C   -0.001350
     7  C    0.014865
     8  C    0.033726
     9  C    0.358190
    10  C    0.005685
    11  C    0.008309
    12  C   -0.059886
    13  C    0.018151
    14  C   -0.059233
    15  H   -0.000875
    16  H    0.000628
    17  H   -0.000144
    18  H    0.000189
    19  H    0.000629
    20  H    0.000155
    21  H   -0.000137
    22  H    0.000625
    23  H   -0.000892
    24  H   -0.081009
    25  H    0.494942
 Mulliken charges:
               1
     1  C    0.102623
     2  C   -0.409573
     3  C   -0.441740
     4  C    0.017963
     5  C    0.033509
     6  C   -0.437961
     7  C   -0.404427
     8  C    0.083987
     9  C   -0.316953
    10  C    0.101642
    11  C   -0.632649
    12  C    0.653327
    13  C   -0.648080
    14  C    0.677707
    15  H    0.235957
    16  H    0.254769
    17  H    0.247664
    18  H    0.220548
    19  H    0.190054
    20  H    0.223431
    21  H    0.250362
    22  H    0.258144
    23  H    0.237894
    24  H    0.250901
    25  H    0.250901
 Sum of Mulliken charges =   1.00000
 Mulliken charges with hydrogens summed into heavy atoms:
               1
     1  C    0.338580
     2  C   -0.154804
     3  C   -0.194076
     4  C    0.238511
     5  C    0.256939
     6  C   -0.187599
     7  C   -0.146283
     8  C    0.321881
     9  C    0.184849
    10  C    0.291696
    11  C   -0.632649
    12  C    0.653327
    13  C   -0.648080
    14  C    0.677707
 Electronic spatial extent (au):  <R**2>=           2853.6390
 Charge=              1.0000 electrons
 Dipole moment (field-independent basis, Debye):
    X=              0.0395    Y=             -0.4546    Z=              0.0000  Tot=              0.4564
 Quadrupole moment (field-independent basis, Debye-Ang):
   XX=            -50.8636   YY=            -36.5311   ZZ=            -84.1388
   XY=            -10.3123   XZ=              0.0000   YZ=              0.0000
 Traceless Quadrupole moment (field-independent basis, Debye-Ang):
   XX=              6.3142   YY=             20.6467   ZZ=            -26.9609
   XY=            -10.3123   XZ=              0.0000   YZ=              0.0000
 Octapole moment (field-independent basis, Debye-Ang**2):
  XXX=              1.1183  YYY=              1.5566  ZZZ=              0.0000  XYY=              1.4608
  XXY=             -6.3053  XXZ=              0.0000  XZZ=              2.9853  YZZ=              0.9018
  YYZ=              0.0000  XYZ=              0.0000
 Hexadecapole moment (field-independent basis, Debye-Ang**3):
 XXXX=           -993.2320 YYYY=          -1843.6986 ZZZZ=            -99.3079 XXXY=            349.3412
 XXXZ=              0.0000 YYYX=            276.4170 YYYZ=              0.0000 ZZZX=              0.0000
 ZZZY=              0.0000 XXYY=           -453.7879 XXZZ=           -242.9087 YYZZ=           -492.9523
 XXYZ=              0.0000 YYXZ=              0.0000 ZZXY=            183.8210
 N-N= 7.815474035722D+02 E-N=-2.799450509826D+03  KE= 5.375278578201D+02
 Symmetry A'   KE= 5.228796129582D+02
 Symmetry A"   KE= 1.464824486189D+01
 Unable to Open any file for archive entry.
 1\1\GINC-GADI-CPU-CLX-0648\SP\RM062X TD-FC\6-311++G(d,p)\C14H11(1+)\TS
 1578\27-Jul-2022\0\\#n M062X/6-311++G(d,p) TD(NStates=1) EmpiricalDisp
 ersion=GD3 SP\\SP_-50\\1,1\C,0,2.49965,1.3697,0.\C,0,3.712175,0.6866,0
 .\C,0,3.6863,-0.69405,0.\C,0,2.451325,-1.391725,0.\C,0,-2.474725,-1.40
 5375,0.\C,0,-3.6794,-0.71265,0.\C,0,-3.6875,0.676025,0.\C,0,-2.4791,1.
 3706,0.\C,0,0.00665,1.4544,0.\C,0,-0.0183,-1.42015,0.\C,0,1.2591,0.679
 875,0.\C,0,1.2307,-0.721725,0.\C,0,-1.264575,0.69135,0.\C,0,-1.2457,-0
 .723525,0.\H,0,2.4874,2.4531,0.\H,0,4.647275,1.226025,0.\H,0,4.6066,-1
 .26185,0.\H,0,2.46255,-2.4745,0.\H,0,-0.016875,-2.501425,0.\H,0,-2.473
 5,-2.487775,0.\H,0,-4.61095,-1.261175,0.\H,0,-4.6223,1.2174,0.\H,0,-2.
 4811,2.453775,0.\H,0,0.024,2.15275,-0.857675\H,0,0.024,2.15275,0.85767
 5\\Version=ES64L-G16RevC.01\State=1-A'\HF=-539.7590841\RMSD=6.644e-09\
 PG=CS [SG(C14H9),X(H2)]\\@
 The archive entry for this job was punched.


 THE MORE ACCURATE THE CALCULATIONS BECOME, THE MORE THE CONCEPTS
 TEND TO VANISH INTO THIN AIR.
     -- R.S. MULLIKEN, J.C.P. 43,S2(1965)
 Job cpu time:       0 days  0 hours 45 minutes 47.3 seconds.
 Elapsed time:       0 days  0 hours  1 minutes 26.6 seconds.
 File lengths (MBytes):  RWF=    460 Int=      0 D2E=      0 Chk=     15 Scr=      1
 Normal termination of Gaussian 16 at Wed Jul 27 10:38:53 2022.
