                    25
 energy=  -539.942982493251     
C          -2.473327    1.383560    0.000000
C          -3.686888    0.693453    0.000000
C          -3.702976   -0.708416    0.000000
C          -2.521841   -1.408948    0.000000
C           2.437446   -1.410162    0.000000
C           3.704911   -0.734802    0.000000
C           3.753503    0.643584    0.000000
C           2.551221    1.336534    0.000000
C           0.028793    1.473726    0.000000
C          -0.071279   -1.430625    0.000000
C          -1.268568    0.706615    0.000000
C          -1.265655   -0.729842    0.000000
C           1.273269    0.653425    0.000000
C           1.225901   -0.724617    0.000000
H          -2.480881    2.465810    0.000000
H          -4.616240    1.244130    0.000000
H          -4.646128   -1.235966    0.000000
H          -2.525617   -2.490129    0.000000
H          -0.071469   -2.510091    0.000000
H           2.439631   -2.492647    0.000000
H           4.609249   -1.325920    0.000000
H           4.695052    1.170884    0.000000
H           2.549678    2.418893    0.000000
H           0.068962    2.151659    0.864319
H           0.068962    2.151659   -0.864319
                    25
 energy=  -539.942945245518     
C          -2.476802    1.381199    0.000000
C          -3.690772    0.690900   -0.000000
C          -3.702925   -0.710766   -0.000000
C          -2.518551   -1.409760    0.000000
C           2.441604   -1.410002    0.000000
C           3.706143   -0.732021   -0.000000
C           3.750666    0.647224    0.000000
C           2.547719    1.340104    0.000000
C           0.025426    1.472747   -0.000001
C          -0.065437   -1.431144    0.000001
C          -1.269886    0.704486   -0.000000
C          -1.263027   -0.731088   -0.000000
C           1.272108    0.655333   -0.000000
C           1.228982   -0.724408   -0.000001
H          -2.484727    2.463863    0.000000
H          -4.621493    1.240650    0.000000
H          -4.644822   -1.241031    0.000000
H          -2.521451   -2.490898   -0.000000
H          -0.063274   -2.510658    0.000000
H           2.445403   -2.492884   -0.000000
H           4.612593   -1.320358    0.000000
H           4.691284    1.176234   -0.000000
H           2.545483    2.422541    0.000000
H           0.061240    2.151329    0.864181
H           0.061240    2.151331   -0.864180
                    25
 energy=  -539.942841767270     
C          -2.480579    1.378902   -0.000000
C          -3.694611    0.688404   -0.000000
C          -3.702885   -0.712970    0.000000
C          -2.515483   -1.410428    0.000000
C           2.445930   -1.409912    0.000000
C           3.707494   -0.729176    0.000000
C           3.747794    0.650820   -0.000000
C           2.544318    1.343636    0.000000
C           0.021976    1.471837   -0.000002
C          -0.059549   -1.431724    0.000000
C          -1.271532    0.702300    0.000000
C          -1.260642   -0.732159   -0.000000
C           1.271381    0.657326    0.000000
C           1.232319   -0.724304   -0.000000
H          -2.488515    2.461883   -0.000000
H          -4.626559    1.237044    0.000000
H          -4.643500   -1.246093    0.000000
H          -2.517262   -2.491713    0.000000
H          -0.055049   -2.511606    0.000000
H           2.451146   -2.493282   -0.000000
H           4.615920   -1.314713    0.000000
H           4.687367    1.181439    0.000000
H           2.541260    2.426284   -0.000000
H           0.053510    2.151140    0.864173
H           0.053511    2.151143   -0.864173
                    25
 energy=  -539.942710059203     
C          -2.484217    1.376489   -0.000000
C          -3.698472    0.685930    0.000000
C          -3.702802   -0.715229    0.000000
C          -2.512184   -1.411051   -0.000000
C           2.450122   -1.409825    0.000000
C           3.708811   -0.726467    0.000000
C           3.744849    0.654475    0.000000
C           2.540565    1.347184    0.000000
C           0.018485    1.470800    0.000000
C          -0.053548   -1.432150    0.000000
C          -1.273025    0.699970    0.000000
C          -1.258085   -0.733153   -0.000000
C           1.270436    0.659312   -0.000000
C           1.235531   -0.724152   -0.000000
H          -2.492333    2.459852    0.000000
H          -4.631746    1.233447   -0.000000
H          -4.642225   -1.251244    0.000000
H          -2.513016   -2.492479   -0.000000
H          -0.046712   -2.512328    0.000000
H           2.456948   -2.493638   -0.000000
H           4.619398   -1.309099    0.000000
H           4.683590    1.186803   -0.000000
H           2.536981    2.430099    0.000000
H           0.045676    2.150851    0.864088
H           0.045677    2.150850   -0.864088
                    25
 energy=  -539.942505709922     
C          -2.487965    1.374130    0.000000
C          -3.702444    0.683435    0.000000
C          -3.702761   -0.717496    0.000000
C          -2.508881   -1.411689   -0.000000
C           2.454429   -1.409734   -0.000000
C           3.710129   -0.723663    0.000000
C           3.741850    0.658121   -0.000000
C           2.536888    1.350755   -0.000000
C           0.015020    1.469774    0.000000
C          -0.047373   -1.432653   -0.000000
C          -1.274554    0.697655   -0.000000
C          -1.255493   -0.734218    0.000000
C           1.269606    0.661295    0.000000
C           1.238879   -0.724034    0.000000
H          -2.496199    2.457875   -0.000000
H          -4.637041    1.229847    0.000000
H          -4.640958   -1.256432   -0.000000
H          -2.508724   -2.493280   -0.000000
H          -0.038280   -2.513130    0.000000
H           2.462817   -2.494005   -0.000000
H           4.622819   -1.303387   -0.000000
H           4.679645    1.192135    0.000000
H           2.532660    2.433917   -0.000000
H           0.037751    2.150601    0.864033
H           0.037751    2.150601   -0.864033
                    25
 energy=  -539.942216717570     
C          -2.491782    1.371750    0.000000
C          -3.706537    0.680930   -0.000000
C          -3.702747   -0.719750    0.000000
C          -2.505450   -1.412281   -0.000000
C           2.458850   -1.409694   -0.000000
C           3.711418   -0.720888   -0.000000
C           3.738746    0.661763   -0.000000
C           2.533101    1.354394    0.000000
C           0.011518    1.468667    0.000000
C          -0.040938   -1.433174   -0.000001
C          -1.276060    0.695268    0.000001
C          -1.252845   -0.735257    0.000000
C           1.268779    0.663350    0.000001
C           1.242328   -0.723955    0.000000
H          -2.500125    2.455901   -0.000000
H          -4.642450    1.226225    0.000000
H          -4.639689   -1.261677   -0.000000
H          -2.504357   -2.494049    0.000000
H          -0.029710   -2.513946   -0.000000
H           2.468781   -2.494385   -0.000000
H           4.626259   -1.297602    0.000000
H           4.675624    1.197522    0.000000
H           2.528271    2.437797   -0.000000
H           0.029667    2.150352    0.863969
H           0.029665    2.150351   -0.863970
                    25
 energy=  -539.941850250526     
C          -2.495807    1.369334    0.000000
C          -3.710869    0.678397    0.000000
C          -3.702861   -0.721841   -0.000000
C          -2.501682   -1.412755    0.000000
C           2.463535   -1.409754    0.000000
C           3.712601   -0.718238   -0.000000
C           3.735429    0.665418    0.000000
C           2.528995    1.358134   -0.000000
C           0.007973    1.467379    0.000000
C          -0.033838   -1.433716    0.000001
C          -1.277457    0.692694   -0.000001
C          -1.250189   -0.736150   -0.000000
C           1.268059    0.665667   -0.000000
C           1.245902   -0.724048   -0.000000
H          -2.504154    2.453925   -0.000000
H          -4.648041    1.222562    0.000000
H          -4.638449   -1.267021    0.000000
H          -2.499855   -2.494804   -0.000000
H          -0.020882   -2.514794    0.000000
H           2.474908   -2.494809    0.000000
H           4.629730   -1.291708    0.000000
H           4.671462    1.202991   -0.000000
H           2.523771    2.441756    0.000000
H           0.021300    2.150105    0.863891
H           0.021300    2.150105   -0.863890
                    25
 energy=  -539.941332047319     
C          -2.500237    1.367069   -0.000000
C          -3.715535    0.675957    0.000000
C          -3.703430   -0.723330   -0.000000
C          -2.497191   -1.412969    0.000000
C           2.468779   -1.410026    0.000000
C           3.713340   -0.716164   -0.000000
C           3.731819    0.668880    0.000000
C           2.524314    1.361802   -0.000000
C           0.004543    1.465803    0.000000
C          -0.025355   -1.434289    0.000000
C          -1.278319    0.689686   -0.000000
C          -1.247860   -0.736540    0.000000
C           1.267812    0.668614   -0.000000
C           1.249331   -0.724671   -0.000000
H          -2.508160    2.452106    0.000000
H          -4.653704    1.219046   -0.000000
H          -4.637369   -1.272271   -0.000000
H          -2.495339   -2.495508    0.000000
H          -0.012054   -2.515673    0.000000
H           2.481007   -2.495308   -0.000000
H           4.633049   -1.285940    0.000000
H           4.667262    1.208308   -0.000000
H           2.519309    2.445626    0.000000
H           0.012805    2.149905    0.863829
H           0.012804    2.149906   -0.863829
                    25
 energy=  -539.940515266028     
C          -2.505590    1.365551   -0.000000
C          -3.720747    0.673909   -0.000000
C          -3.705424   -0.723268   -0.000000
C          -2.491077   -1.412892    0.000000
C           2.475377   -1.410775    0.000000
C           3.712948   -0.715790   -0.000000
C           3.727964    0.671887    0.000000
C           2.518430    1.365023    0.000000
C           0.001517    1.464050   -0.000000
C          -0.013919   -1.435014    0.000000
C          -1.277465    0.685630    0.000000
C          -1.246826   -0.735530   -0.000000
C           1.268947    0.673186   -0.000000
C           1.251589   -0.726727   -0.000000
H          -2.511824    2.450961    0.000000
H          -4.659316    1.216185   -0.000000
H          -4.636936   -1.277136    0.000000
H          -2.491161   -2.496452   -0.000000
H          -0.003888   -2.516804    0.000000
H           2.486606   -2.496133   -0.000000
H           4.636091   -1.280966   -0.000000
H           4.663549    1.213120   -0.000000
H           2.515256    2.449253    0.000000
H           0.004629    2.149908    0.863985
H           0.004629    2.149908   -0.863985
                    25
 energy=  -539.939698243996     
C          -2.511785    1.366739    0.000000
C          -3.725626    0.673569    0.000000
C          -3.710533   -0.720043    0.000000
C          -2.483385   -1.412878    0.000000
C           2.483385   -1.412878    0.000000
C           3.710533   -0.720043    0.000000
C           3.725626    0.673569    0.000000
C           2.511785    1.366739    0.000000
C           0.000000    1.463529    0.000000
C           0.000000   -1.436233    0.000000
C          -1.272777    0.680177    0.000000
C          -1.249361   -0.731798    0.000000
C           1.272777    0.680177    0.000000
C           1.249361   -0.731798    0.000000
H          -2.513532    2.452446    0.000000
H          -4.663413    1.215989    0.000000
H          -4.638645   -1.279965    0.000000
H          -2.489211   -2.498454    0.000000
H           0.000000   -2.518980    0.000000
H           2.489211   -2.498454    0.000000
H           4.638645   -1.279965    0.000000
H           4.663413    1.215989    0.000000
H           2.513532    2.452446    0.000000
H           0.000000    2.150818    0.865287
H           0.000000    2.150818   -0.865287
