                    25
 energy=  -539.942982493251     
C          -2.473327    1.383560    0.000000
C          -3.686888    0.693453    0.000000
C          -3.702976   -0.708416    0.000000
C          -2.521841   -1.408948    0.000000
C           2.437446   -1.410162    0.000000
C           3.704911   -0.734802    0.000000
C           3.753503    0.643584    0.000000
C           2.551221    1.336534    0.000000
C           0.028793    1.473726    0.000000
C          -0.071279   -1.430625    0.000000
C          -1.268568    0.706615    0.000000
C          -1.265655   -0.729842    0.000000
C           1.273269    0.653425    0.000000
C           1.225901   -0.724617    0.000000
H          -2.480881    2.465810    0.000000
H          -4.616240    1.244130    0.000000
H          -4.646128   -1.235966    0.000000
H          -2.525617   -2.490129    0.000000
H          -0.071469   -2.510091    0.000000
H           2.439631   -2.492647    0.000000
H           4.609249   -1.325920    0.000000
H           4.695052    1.170884    0.000000
H           2.549678    2.418893    0.000000
H           0.068962    2.151659    0.864319
H           0.068962    2.151659   -0.864319
                    25
 energy=  -539.942940020863     
C          -2.476885    1.381270    0.000000
C          -3.690851    0.690973   -0.000000
C          -3.703026   -0.710636   -0.000000
C          -2.518420   -1.409688    0.000000
C           2.441700   -1.410096    0.000000
C           3.706052   -0.732206   -0.000000
C           3.750617    0.647158    0.000000
C           2.547615    1.340079    0.000000
C           0.025464    1.472724   -0.000001
C          -0.065156   -1.431154    0.000001
C          -1.269779    0.704388   -0.000000
C          -1.263058   -0.730986   -0.000000
C           1.272245    0.655422   -0.000000
C           1.228969   -0.724552   -0.000001
H          -2.484692    2.463963   -0.000000
H          -4.621537    1.240742    0.000000
H          -4.644914   -1.240996    0.000000
H          -2.521464   -2.490879   -0.000000
H          -0.063301   -2.510689   -0.000000
H           2.445364   -2.492952   -0.000000
H           4.612580   -1.320443    0.000000
H           4.691314    1.176164   -0.000000
H           2.545511    2.422566    0.000000
H           0.061240    2.151369    0.864218
H           0.061240    2.151370   -0.864217
                    25
 energy=  -539.942828889408     
C          -2.480765    1.379030   -0.000000
C          -3.694764    0.688523   -0.000000
C          -3.703110   -0.712678    0.000000
C          -2.515233   -1.410287    0.000000
C           2.446175   -1.410097    0.000000
C           3.707338   -0.729483    0.000000
C           3.747682    0.650693   -0.000000
C           2.544138    1.343605    0.000000
C           0.022044    1.471782   -0.000002
C          -0.058961   -1.431763    0.000000
C          -1.271321    0.702154    0.000000
C          -1.260727   -0.731940   -0.000000
C           1.271622    0.657581    0.000000
C           1.232300   -0.724567   -0.000000
H          -2.488461    2.462044   -0.000000
H          -4.626641    1.237209    0.000000
H          -4.643656   -1.246027    0.000000
H          -2.517274   -2.491711    0.000000
H          -0.055084   -2.511705    0.000000
H           2.451084   -2.493447   -0.000000
H           4.615882   -1.314877    0.000000
H           4.687391    1.181311    0.000000
H           2.541304    2.426306   -0.000000
H           0.053490    2.151199    0.864229
H           0.053490    2.151202   -0.864228
                    25
 energy=  -539.942659922871     
C          -2.484439    1.376694   -0.000000
C          -3.698712    0.686134    0.000000
C          -3.703145   -0.714821    0.000000
C          -2.511798   -1.410856    0.000000
C           2.450442   -1.410100    0.000000
C           3.708569   -0.726950    0.000000
C           3.744707    0.654277    0.000000
C           2.540268    1.347131    0.000000
C           0.018609    1.470730    0.000000
C          -0.052707   -1.432197    0.000000
C          -1.272677    0.699748    0.000000
C          -1.258180   -0.732835   -0.000000
C           1.270769    0.659637   -0.000000
C           1.235482   -0.724500   -0.000000
H          -2.492251    2.460107    0.000000
H          -4.631869    1.233715   -0.000000
H          -4.642473   -1.251128    0.000000
H          -2.513056   -2.492472   -0.000000
H          -0.046798   -2.512454    0.000000
H           2.456845   -2.493870   -0.000000
H           4.619336   -1.309370    0.000000
H           4.683660    1.186607   -0.000000
H           2.537073    2.430114    0.000000
H           0.045674    2.150932    0.864159
H           0.045675    2.150931   -0.864160
                    25
 energy=  -539.942424254491     
C          -2.488252    1.374400    0.000000
C          -3.702763    0.683706    0.000000
C          -3.703221   -0.716948    0.000000
C          -2.508368   -1.411432   -0.000000
C           2.454847   -1.410098   -0.000000
C           3.709806   -0.724309    0.000000
C           3.741665    0.657857   -0.000000
C           2.536496    1.350690   -0.000000
C           0.015191    1.469678    0.000000
C          -0.046256   -1.432718   -0.000000
C          -1.274082    0.697371    0.000000
C          -1.255621   -0.733796    0.000000
C           1.270035    0.661734    0.000000
C           1.238805   -0.724492    0.000000
H          -2.496090    2.458214   -0.000000
H          -4.637195    1.230205    0.000000
H          -4.641289   -1.256272   -0.000000
H          -2.508783   -2.493276   -0.000000
H          -0.038409   -2.513294    0.000000
H           2.462675   -2.494313   -0.000000
H           4.622733   -1.303757   -0.000000
H           4.679751    1.191878    0.000000
H           2.532789    2.433927   -0.000000
H           0.037756    2.150707    0.864127
H           0.037756    2.150707   -0.864127
                    25
 energy=  -539.942153905814     
C          -2.492134    1.372078   -0.000000
C          -3.706917    0.681262   -0.000000
C          -3.703326   -0.719036    0.000000
C          -2.504814   -1.411952   -0.000000
C           2.459361   -1.410153   -0.000000
C           3.711005   -0.721727   -0.000000
C           3.738534    0.661435   -0.000000
C           2.532609    1.354318    0.000000
C           0.011742    1.468539    0.000000
C          -0.039554   -1.433255   -0.000001
C          -1.275466    0.694912    0.000001
C          -1.253043   -0.734710    0.000000
C           1.269307    0.663928    0.000001
C           1.242206   -0.724551    0.000000
H          -2.499978    2.456326   -0.000000
H          -4.642606    1.226674    0.000000
H          -4.640101   -1.261461   -0.000000
H          -2.504449   -2.494053    0.000000
H          -0.029906   -2.514149   -0.000000
H           2.468584   -2.494762   -0.000000
H           4.626147   -1.298088    0.000000
H           4.675793    1.197201    0.000000
H           2.528452    2.437794   -0.000000
H           0.029707    2.150487    0.864089
H           0.029705    2.150486   -0.864089
                    25
 energy=  -539.941765163996     
C          -2.496146    1.369771   -0.000000
C          -3.711232    0.678829    0.000000
C          -3.703556   -0.720948   -0.000000
C          -2.500994   -1.412372    0.000000
C           2.464047   -1.410286    0.000000
C           3.712084   -0.719294   -0.000000
C           3.735260    0.664965    0.000000
C           2.528493    1.357971   -0.000000
C           0.008313    1.467255    0.000000
C          -0.032341   -1.433809    0.000001
C          -1.276707    0.692317   -0.000001
C          -1.250524   -0.735473   -0.000000
C           1.268699    0.666334   -0.000000
C           1.245649   -0.724771   -0.000000
H          -2.503897    2.454471   -0.000000
H          -4.648094    1.223159    0.000000
H          -4.638965   -1.266662    0.000000
H          -2.500067   -2.494818   -0.000000
H          -0.021317   -2.515018    0.000000
H           2.474544   -2.495233   -0.000000
H           4.629535   -1.292405    0.000000
H           4.671778    1.202519   -0.000000
H           2.524084    2.441668    0.000000
H           0.021533    2.150276    0.864044
H           0.021533    2.150275   -0.864043
                    25
 energy=  -539.941221805470     
C          -2.500570    1.367598   -0.000000
C          -3.715843    0.676441    0.000000
C          -3.704216   -0.722320   -0.000000
C          -2.496484   -1.412594    0.000000
C           2.469287   -1.410573    0.000000
C           3.712741   -0.717370   -0.000000
C           3.731731    0.668360    0.000000
C           2.523828    1.361555   -0.000000
C           0.004961    1.465704    0.000000
C          -0.023844   -1.434395    0.000000
C          -1.277438    0.689289    0.000000
C          -1.248380   -0.735765   -0.000000
C           1.268543    0.669357   -0.000000
C           1.248894   -0.725495   -0.000000
H          -2.507808    2.452727    0.000000
H          -4.653630    1.219731   -0.000000
H          -4.637940   -1.271803    0.000000
H          -2.495665   -2.495552   -0.000000
H          -0.012712   -2.515903   -0.000000
H           2.480497   -2.495736   -0.000000
H           4.632800   -1.286792    0.000000
H           4.667729    1.207741   -0.000000
H           2.519733    2.445465   -0.000000
H           0.013230    2.150106    0.864016
H           0.013229    2.150107   -0.864016
                    25
 energy=  -539.940440588236     
C          -2.505691    1.366026   -0.000000
C          -3.720768    0.674319   -0.000000
C          -3.705986   -0.722498   -0.000000
C          -2.490724   -1.412662    0.000000
C           2.475584   -1.411114    0.000000
C           3.712476   -0.716715    0.000000
C           3.728064    0.671416    0.000000
C           2.518259    1.364682    0.000000
C           0.001925    1.464062   -0.000000
C          -0.013165   -1.435065    0.000000
C          -1.276765    0.685438    0.000000
C          -1.247354   -0.734955   -0.000000
C           1.269511    0.673628   -0.000000
C           1.251069   -0.727301   -0.000000
H          -2.511426    2.451448    0.000000
H          -4.659029    1.216783   -0.000000
H          -4.637362   -1.276614    0.000000
H          -2.491573   -2.496470   -0.000000
H          -0.004701   -2.516925    0.000000
H           2.486011   -2.496392   -0.000000
H           4.635791   -1.281768   -0.000000
H           4.664040    1.212529   -0.000000
H           2.515726    2.448984    0.000000
H           0.005264    2.150054    0.864121
H           0.005264    2.150055   -0.864121
                    25
 energy=  -539.939698243996     
C          -2.511785    1.366739    0.000000
C          -3.725626    0.673569    0.000000
C          -3.710533   -0.720043    0.000000
C          -2.483385   -1.412878    0.000000
C           2.483385   -1.412878    0.000000
C           3.710533   -0.720043    0.000000
C           3.725626    0.673569    0.000000
C           2.511785    1.366739    0.000000
C           0.000000    1.463529    0.000000
C           0.000000   -1.436233    0.000000
C          -1.272777    0.680177    0.000000
C          -1.249361   -0.731798    0.000000
C           1.272777    0.680177    0.000000
C           1.249361   -0.731798    0.000000
H          -2.513532    2.452446    0.000000
H          -4.663413    1.215989    0.000000
H          -4.638645   -1.279965    0.000000
H          -2.489211   -2.498454    0.000000
H           0.000000   -2.518980    0.000000
H           2.489211   -2.498454    0.000000
H           4.638645   -1.279965    0.000000
H           4.663413    1.215989    0.000000
H           2.513532    2.452446    0.000000
H           0.000000    2.150818    0.865287
H           0.000000    2.150818   -0.865287
