                    25
 energy=  -539.942982493251     
C          -2.473327    1.383560    0.000000
C          -3.686888    0.693453    0.000000
C          -3.702976   -0.708416    0.000000
C          -2.521841   -1.408948    0.000000
C           2.437446   -1.410162    0.000000
C           3.704911   -0.734802    0.000000
C           3.753503    0.643584    0.000000
C           2.551221    1.336534    0.000000
C           0.028793    1.473726    0.000000
C          -0.071279   -1.430625    0.000000
C          -1.268568    0.706615    0.000000
C          -1.265655   -0.729842    0.000000
C           1.273269    0.653425    0.000000
C           1.225901   -0.724617    0.000000
H          -2.480881    2.465810    0.000000
H          -4.616240    1.244130    0.000000
H          -4.646128   -1.235966    0.000000
H          -2.525617   -2.490129    0.000000
H          -0.071469   -2.510091    0.000000
H           2.439631   -2.492647    0.000000
H           4.609249   -1.325920    0.000000
H           4.695052    1.170884    0.000000
H           2.549678    2.418893    0.000000
H           0.068962    2.151659    0.864319
H           0.068962    2.151659   -0.864319
                    25
 energy=  -539.942885460661     
C          -2.477526    1.381628   -0.000000
C          -3.691191    0.691232   -0.000000
C          -3.703727   -0.709794    0.000000
C          -2.517671   -1.409382   -0.000000
C           2.442459   -1.410460   -0.000000
C           3.705607   -0.733066    0.000000
C           3.750393    0.646927   -0.000000
C           2.546925    1.339944   -0.000000
C           0.025591    1.472593    0.000000
C          -0.063514   -1.431241    0.000000
C          -1.269148    0.703769    0.000000
C          -1.263713   -0.730158   -0.000000
C           1.273095    0.656297    0.000000
C           1.228626   -0.725323   -0.000000
H          -2.484534    2.464301    0.000000
H          -4.621504    1.240979    0.000000
H          -4.645273   -1.240876   -0.000000
H          -2.521545   -2.491039   -0.000000
H          -0.063481   -2.511062    0.000000
H           2.445177   -2.493282    0.000000
H           4.612527   -1.320777   -0.000000
H           4.691503    1.175924    0.000000
H           2.545636    2.422620    0.000000
H           0.061266    2.151553    0.864410
H           0.061266    2.151553   -0.864410
                    25
 energy=  -539.942724664989     
C          -2.481740    1.379706   -0.000000
C          -3.695489    0.689019   -0.000000
C          -3.704476   -0.711167   -0.000000
C          -2.513499   -1.409806   -0.000000
C           2.447474   -1.410754    0.000000
C           3.706300   -0.731335    0.000000
C           3.747282    0.650267   -0.000000
C           2.542617    1.343334   -0.000000
C           0.022384    1.471458    0.000000
C          -0.055731   -1.431853   -0.000000
C          -1.269730    0.700901   -0.000000
C          -1.261794   -0.730455   -0.000000
C           1.272960    0.659171   -0.000000
C           1.231349   -0.726042   -0.000000
H          -2.488182    2.462793    0.000000
H          -4.626763    1.237827    0.000000
H          -4.644423   -1.245788    0.000000
H          -2.517476   -2.491953    0.000000
H          -0.055495   -2.512043    0.000000
H           2.450717   -2.493918   -0.000000
H           4.615802   -1.315633   -0.000000
H           4.687952    1.180955    0.000000
H           2.541596    2.426357    0.000000
H           0.053573    2.151454    0.864510
H           0.053573    2.151453   -0.864510
                    25
 energy=  -539.942362494541     
C          -2.485956    1.377791   -0.000000
C          -3.699787    0.686805   -0.000000
C          -3.705238   -0.712529   -0.000000
C          -2.509308   -1.410231   -0.000000
C           2.452493   -1.411045   -0.000000
C           3.706985   -0.729613   -0.000000
C           3.744173    0.653604    0.000000
C           2.538292    1.346718    0.000000
C           0.019179    1.470321   -0.000000
C          -0.047927   -1.432466    0.000000
C          -1.270296    0.698024    0.000000
C          -1.259889   -0.730740    0.000000
C           1.272834    0.662057    0.000000
C           1.234059   -0.726767   -0.000000
H          -2.491828    2.461285   -0.000000
H          -4.632020    1.234679    0.000000
H          -4.643577   -1.250696    0.000000
H          -2.513409   -2.492867    0.000000
H          -0.047516   -2.513021   -0.000000
H           2.456254   -2.494554    0.000000
H           4.619075   -1.310494    0.000000
H           4.684406    1.185984    0.000000
H           2.537559    2.430090   -0.000000
H           0.045885    2.151352    0.864607
H           0.045885    2.151352   -0.864607
                    25
 energy=  -539.941929945120     
C          -2.490187    1.375887    0.000000
C          -3.704086    0.684589    0.000000
C          -3.706017   -0.713872    0.000000
C          -2.505098   -1.410658   -0.000000
C           2.457533   -1.411340    0.000000
C           3.707655   -0.727909    0.000000
C           3.741066    0.656938   -0.000000
C           2.533955    1.350096   -0.000000
C           0.015975    1.469179   -0.000000
C          -0.040095   -1.433085   -0.000000
C          -1.270840    0.695134   -0.000000
C          -1.258012   -0.731007    0.000000
C           1.272725    0.664967   -0.000000
C           1.236747   -0.727512    0.000000
H          -2.495469    2.459780   -0.000000
H          -4.637270    1.231533   -0.000000
H          -4.642730   -1.255598   -0.000000
H          -2.509348   -2.493780    0.000000
H          -0.039545   -2.513999    0.000000
H           2.461784   -2.495188   -0.000000
H           4.622343   -1.305360   -0.000000
H           4.680863    1.191006    0.000000
H           2.533526    2.433819   -0.000000
H           0.038202    2.151252    0.864705
H           0.038202    2.151252   -0.864705
                    25
 energy=  -539.941413847266     
C          -2.494436    1.373996    0.000000
C          -3.708385    0.682373    0.000000
C          -3.706821   -0.715188    0.000000
C          -2.500857   -1.411088    0.000000
C           2.462600   -1.411635    0.000000
C           3.708303   -0.726229    0.000000
C           3.737962    0.660266   -0.000000
C           2.529595    1.353460    0.000000
C           0.012774    1.468032   -0.000000
C          -0.032220   -1.433708   -0.000000
C          -1.271351    0.692224   -0.000000
C          -1.256172   -0.731249    0.000000
C           1.272643    0.667907   -0.000000
C           1.239403   -0.728280    0.000000
H          -2.499105    2.458278    0.000000
H          -4.642511    1.228392   -0.000000
H          -4.641885   -1.260491   -0.000000
H          -2.505293   -2.494692    0.000000
H          -0.031587   -2.514975    0.000000
H           2.467305   -2.495820   -0.000000
H           4.625605   -1.300235   -0.000000
H           4.677327    1.196021    0.000000
H           2.529500    2.437543    0.000000
H           0.030528    2.151153    0.864804
H           0.030528    2.151153   -0.864804
                    25
 energy=  -539.940855642845     
C          -2.498714    1.372125   -0.000000
C          -3.712683    0.680155   -0.000000
C          -3.707660   -0.716464   -0.000000
C          -2.496572   -1.411518   -0.000000
C           2.467708   -1.411931   -0.000000
C           3.708916   -0.724586   -0.000000
C           3.734859    0.663588    0.000000
C           2.525204    1.356806   -0.000000
C           0.009574    1.466884    0.000000
C          -0.024286   -1.434333    0.000000
C          -1.271816    0.689281    0.000000
C          -1.254382   -0.731456   -0.000000
C           1.272602    0.670890    0.000000
C           1.242011   -0.729083   -0.000000
H          -2.502731    2.456779   -0.000000
H          -4.647739    1.225259    0.000000
H          -4.641042   -1.265371    0.000000
H          -2.501248   -2.495602   -0.000000
H          -0.023647   -2.515949   -0.000000
H           2.472812   -2.496451    0.000000
H           4.628857   -1.295122    0.000000
H           4.673799    1.201023   -0.000000
H           2.525484    2.441257   -0.000000
H           0.022867    2.151055    0.864902
H           0.022867    2.151055   -0.864902
                    25
 energy=  -539.940318727979     
C          -2.503032    1.370278   -0.000000
C          -3.716980    0.677937   -0.000000
C          -3.708547   -0.717688    0.000000
C          -2.492229   -1.411950   -0.000000
C           2.472874   -1.412226   -0.000000
C           3.709482   -0.722993    0.000000
C           3.731756    0.666904   -0.000000
C           2.520769    1.360124   -0.000000
C           0.006378    1.465740    0.000000
C          -0.016268   -1.434959   -0.000000
C          -1.272219    0.686289    0.000000
C          -1.252657   -0.731612   -0.000000
C           1.272620    0.673928    0.000000
C           1.244550   -0.729931   -0.000000
H          -2.506345    2.455285    0.000000
H          -4.652949    1.222134    0.000000
H          -4.640202   -1.270235    0.000000
H          -2.497218   -2.496511    0.000000
H          -0.015733   -2.516919    0.000000
H           2.478300   -2.497078    0.000000
H           4.632098   -1.290026    0.000000
H           4.670284    1.206010    0.000000
H           2.521482    2.444959    0.000000
H           0.015222    2.150956    0.864999
H           0.015222    2.150956   -0.864999
                    25
 energy=  -539.939917903245     
C          -2.507401    1.368458   -0.000000
C          -3.721273    0.675723   -0.000000
C          -3.709486   -0.718854   -0.000000
C          -2.487822   -1.412383   -0.000000
C           2.478109   -1.412521   -0.000000
C           3.709991   -0.721462   -0.000000
C           3.728652    0.670215   -0.000000
C           2.516292    1.363408   -0.000000
C           0.003184    1.464614   -0.000000
C          -0.008157   -1.435582    0.000000
C          -1.272553    0.683233    0.000000
C          -1.251003   -0.731709   -0.000000
C           1.272704    0.677018    0.000000
C           1.247007   -0.730831   -0.000000
H          -2.509945    2.453797    0.000000
H          -4.658138    1.219021    0.000000
H          -4.639366   -1.275080   -0.000000
H          -2.493202   -2.497417    0.000000
H          -0.007847   -2.517886    0.000000
H           2.483768   -2.497701    0.000000
H           4.635324   -1.284950   -0.000000
H           4.666783    1.210979    0.000000
H           2.517494    2.448647    0.000000
H           0.007595    2.150855    0.865095
H           0.007595    2.150855   -0.865095
                    25
 energy=  -539.939698243996     
C          -2.511785    1.366739    0.000000
C          -3.725626    0.673569    0.000000
C          -3.710533   -0.720043    0.000000
C          -2.483385   -1.412878    0.000000
C           2.483385   -1.412878    0.000000
C           3.710533   -0.720043    0.000000
C           3.725626    0.673569    0.000000
C           2.511785    1.366739    0.000000
C           0.000000    1.463529    0.000000
C           0.000000   -1.436233    0.000000
C          -1.272777    0.680177    0.000000
C          -1.249361   -0.731798    0.000000
C           1.272777    0.680177    0.000000
C           1.249361   -0.731798    0.000000
H          -2.513532    2.452446    0.000000
H          -4.663413    1.215989    0.000000
H          -4.638645   -1.279965    0.000000
H          -2.489211   -2.498454    0.000000
H           0.000000   -2.518980    0.000000
H           2.489211   -2.498454    0.000000
H           4.638645   -1.279965    0.000000
H           4.663413    1.215989    0.000000
H           2.513532    2.452446    0.000000
H           0.000000    2.150818    0.865287
H           0.000000    2.150818   -0.865287
