 argument  1 = saddle.nw



============================== echo of input deck ==============================
echo

start molecule

title "Title"
charge 1

geometry units angstroms print xyz
symmetry c2v
   C       -3.70704        0.00000       -0.71939
   C       -2.48101        0.00000       -1.41115
   C       -1.24852        0.00000       -0.73092
   C       -1.27203        0.00000        0.67917
   C       -2.50965        0.00000        1.36527
   C       -3.72281        0.00000        0.67292
   C        0.00000        0.00000       -1.43364
   C        0.00000        0.00000        1.46174
   C        1.27203        0.00000        0.67917
   C        1.24852        0.00000       -0.73092
   C        2.48101        0.00000       -1.41115
   H        2.48694        0.00000       -2.49617
   C        3.70704        0.00000       -0.71939
   C        3.72281        0.00000        0.67292
   C        2.50965        0.00000        1.36527
   H        0.00000        0.00000       -2.51624
   H       -4.63471        0.00000       -1.27971
   H       -2.48694        0.00000       -2.49617
   H       -2.51032        0.00000        2.45090
   H       -4.66066        0.00000        1.21494
   H        0.00000        0.86279        2.15089
   H        4.63471        0.00000       -1.27971
   H        4.66066        0.00000        1.21494
   H        2.51032        0.00000        2.45090
   H        0.00000       -0.86279        2.15089
end

basis
  * library 6-31G
end

dft
  xc b3lyp
  mult 1
end

tddft
  cis
  nroots 5
  notriplet
  target 1
  targetsym a1
  civecs
  grad
    root 1
  end
end

task tddft saddle

================================================================================


                                         
                                         


              Northwest Computational Chemistry Package (NWChem) 6.8
              ------------------------------------------------------


                    Environmental Molecular Sciences Laboratory
                       Pacific Northwest National Laboratory
                                Richland, WA 99352

                              Copyright (c) 1994-2017
                       Pacific Northwest National Laboratory
                            Battelle Memorial Institute

             NWChem is an open-source computational chemistry package
                        distributed under the terms of the
                      Educational Community License (ECL) 2.0
             A copy of the license is included with this distribution
                              in the LICENSE.TXT file

                                  ACKNOWLEDGMENT
                                  --------------

            This software and its documentation were developed at the
            EMSL at Pacific Northwest National Laboratory, a multiprogram
            national laboratory, operated for the U.S. Department of Energy
            by Battelle under Contract Number DE-AC05-76RL01830. Support
            for this work was provided by the Department of Energy Office
            of Biological and Environmental Research, Office of Basic
            Energy Sciences, and the Office of Advanced Scientific Computing.


           Job information
           ---------------

    hostname        = wang
    program         = nwchem
    date            = Mon Aug  9 15:17:45 2021

    compiled        = Tue_Jul_24_14:45:34_2018
    source          = /home/stg121/Software/nwchem-6.8.1
    nwchem branch   = 6.8.1
    nwchem revision = v6.8-143-gdb0d96486
    ga revision     = 5.6.5
    use scalapack   = F
    input           = saddle.nw
    prefix          = molecule.
    data base       = ./molecule.db
    status          = startup
    nproc           =        1
    time left       =     -1s



           Memory information
           ------------------

    heap     =   13107196 doubles =    100.0 Mbytes
    stack    =   13107201 doubles =    100.0 Mbytes
    global   =   26214400 doubles =    200.0 Mbytes (distinct from heap & stack)
    total    =   52428797 doubles =    400.0 Mbytes
    verify   = yes
    hardfail = no 


           Directory information
           ---------------------

  0 permanent = .
  0 scratch   = .




                                NWChem Input Module
                                -------------------


                                       Title
                                       -----

 Scaling coordinates for geometry "geometry" by  1.889725989
 (inverse scale =  0.529177249)

 Turning off AUTOSYM since
 SYMMETRY directive was detected!


          ------
          auto-z
          ------


                             Geometry "geometry" -> ""
                             -------------------------

 Output coordinates in angstroms (scale by  1.889725989 to convert to a.u.)

  No.       Tag          Charge          X              Y              Z
 ---- ---------------- ---------- -------------- -------------- --------------
    1 C                    6.0000    -3.70704000     0.00000000    -0.71944116
    2 C                    6.0000    -2.48101000     0.00000000    -1.41120116
    3 C                    6.0000    -1.24852000     0.00000000    -0.73097116
    4 C                    6.0000    -1.27203000     0.00000000     0.67911884
    5 C                    6.0000    -2.50965000     0.00000000     1.36521884
    6 C                    6.0000    -3.72281000     0.00000000     0.67286884
    7 C                    6.0000     0.00000000     0.00000000    -1.43369116
    8 C                    6.0000     0.00000000     0.00000000     1.46168884
    9 C                    6.0000     1.27203000     0.00000000     0.67911884
   10 C                    6.0000     1.24852000     0.00000000    -0.73097116
   11 C                    6.0000     2.48101000     0.00000000    -1.41120116
   12 H                    1.0000     2.48694000     0.00000000    -2.49622116
   13 C                    6.0000     3.70704000     0.00000000    -0.71944116
   14 C                    6.0000     3.72281000     0.00000000     0.67286884
   15 C                    6.0000     2.50965000     0.00000000     1.36521884
   16 H                    1.0000     0.00000000     0.00000000    -2.51629116
   17 H                    1.0000    -4.63471000     0.00000000    -1.27976116
   18 H                    1.0000    -2.48694000     0.00000000    -2.49622116
   19 H                    1.0000    -2.51032000     0.00000000     2.45084884
   20 H                    1.0000    -4.66066000     0.00000000     1.21488884
   21 H                    1.0000     0.00000000     0.86279000     2.15083884
   22 H                    1.0000     4.63471000     0.00000000    -1.27976116
   23 H                    1.0000     4.66066000     0.00000000     1.21488884
   24 H                    1.0000     2.51032000     0.00000000     2.45084884
   25 H                    1.0000     0.00000000    -0.86279000     2.15083884

      Atomic Mass 
      ----------- 

      C                 12.000000
      H                  1.007825


 Effective nuclear repulsion energy (a.u.)     777.2570847672

            Nuclear Dipole moment (a.u.) 
            ----------------------------
        X                 Y               Z
 ---------------- ---------------- ----------------
     0.0000000000     0.0000000000    -0.0000000000

      Symmetry information
      --------------------

 Group name             C2v       
 Group number             16
 Group order               4
 No. of unique centers    14

      Symmetry unique atoms

     1    2    3    4    5    6    7    8   12   16   17   19   20   21



                                Z-matrix (autoz)
                                -------- 

 Units are Angstrom for bonds and degrees for angles

      Type          Name      I     J     K     L     M      Value
      ----------- --------  ----- ----- ----- ----- ----- ----------
    1 Stretch                  1     2                       1.40772
    2 Stretch                  1     6                       1.39240
    3 Stretch                  1    17                       1.08376
    4 Stretch                  2     3                       1.40774
    5 Stretch                  2    18                       1.08504
    6 Stretch                  3     4                       1.41029
    7 Stretch                  3     7                       1.43270
    8 Stretch                  4     5                       1.41507
    9 Stretch                  4     8                       1.49348
   10 Stretch                  5     6                       1.39682
   11 Stretch                  5    19                       1.08563
   12 Stretch                  6    20                       1.08321
   13 Stretch                  7    10                       1.43270
   14 Stretch                  7    16                       1.08260
   15 Stretch                  8     9                       1.49348
   16 Stretch                  8    21                       1.10423
   17 Stretch                  8    25                       1.10423
   18 Stretch                  9    10                       1.41029
   19 Stretch                  9    15                       1.41507
   20 Stretch                 10    11                       1.40774
   21 Stretch                 11    12                       1.08504
   22 Stretch                 11    13                       1.40772
   23 Stretch                 13    14                       1.39240
   24 Stretch                 13    22                       1.08376
   25 Stretch                 14    15                       1.39682
   26 Stretch                 14    23                       1.08321
   27 Stretch                 15    24                       1.08563
   28 Bend                     1     2     3               121.67213
   29 Bend                     1     2    18               119.11975
   30 Bend                     1     6     5               119.06446
   31 Bend                     1     6    20               120.67422
   32 Bend                     2     1     6               120.08182
   33 Bend                     2     1    17               119.43480
   34 Bend                     2     3     4               117.93979
   35 Bend                     2     3     7               121.73237
   36 Bend                     3     2    18               119.20811
   37 Bend                     3     4     5               119.95788
   38 Bend                     3     4     8               120.64520
   39 Bend                     3     7    10               121.25469
   40 Bend                     3     7    16               119.37265
   41 Bend                     4     3     7               120.32784
   42 Bend                     4     5     6               121.28392
   43 Bend                     4     5    19               119.03805
   44 Bend                     4     8     9               116.79922
   45 Bend                     4     8    21               109.08811
   46 Bend                     4     8    25               109.08811
   47 Bend                     5     4     8               119.39692
   48 Bend                     5     6    20               120.26132
   49 Bend                     6     1    17               120.48337
   50 Bend                     6     5    19               119.67803
   51 Bend                     7    10     9               120.32784
   52 Bend                     7    10    11               121.73237
   53 Bend                     8     9    10               120.64520
   54 Bend                     8     9    15               119.39692
   55 Bend                     9     8    21               109.08811
   56 Bend                     9     8    25               109.08811
   57 Bend                     9    10    11               117.93979
   58 Bend                     9    15    14               121.28392
   59 Bend                     9    15    24               119.03805
   60 Bend                    10     7    16               119.37265
   61 Bend                    10     9    15               119.95788
   62 Bend                    10    11    12               119.20811
   63 Bend                    10    11    13               121.67213
   64 Bend                    11    13    14               120.08182
   65 Bend                    11    13    22               119.43480
   66 Bend                    12    11    13               119.11975
   67 Bend                    13    14    15               119.06446
   68 Bend                    13    14    23               120.67422
   69 Bend                    14    13    22               120.48337
   70 Bend                    14    15    24               119.67803
   71 Bend                    15    14    23               120.26132
   72 Bend                    21     8    25               102.76806
   73 Torsion                  1     2     3     4           0.00000
   74 Torsion                  1     2     3     7         180.00000
   75 Torsion                  1     6     5     4           0.00000
   76 Torsion                  1     6     5    19         180.00000
   77 Torsion                  2     1     6     5           0.00000
   78 Torsion                  2     1     6    20         180.00000
   79 Torsion                  2     3     4     5           0.00000
   80 Torsion                  2     3     4     8         180.00000
   81 Torsion                  2     3     7    10         180.00000
   82 Torsion                  2     3     7    16           0.00000
   83 Torsion                  3     2     1     6           0.00000
   84 Torsion                  3     2     1    17         180.00000
   85 Torsion                  3     4     5     6          -0.00000
   86 Torsion                  3     4     5    19         180.00000
   87 Torsion                  3     4     8     9           0.00000
   88 Torsion                  3     4     8    21         124.22787
   89 Torsion                  3     4     8    25        -124.22787
   90 Torsion                  3     7    10     9           0.00000
   91 Torsion                  3     7    10    11         180.00000
   92 Torsion                  4     3     2    18         180.00000
   93 Torsion                  4     3     7    10           0.00000
   94 Torsion                  4     3     7    16         180.00000
   95 Torsion                  4     5     6    20         180.00000
   96 Torsion                  4     8     9    10           0.00000
   97 Torsion                  4     8     9    15         180.00000
   98 Torsion                  5     4     3     7         180.00000
   99 Torsion                  5     4     8     9         180.00000
  100 Torsion                  5     4     8    21         -55.77213
  101 Torsion                  5     4     8    25          55.77213
  102 Torsion                  5     6     1    17         180.00000
  103 Torsion                  6     1     2    18         180.00000
  104 Torsion                  6     5     4     8         180.00000
  105 Torsion                  7     3     2    18           0.00000
  106 Torsion                  7     3     4     8           0.00000
  107 Torsion                  7    10     9     8           0.00000
  108 Torsion                  7    10     9    15         180.00000
  109 Torsion                  7    10    11    12           0.00000
  110 Torsion                  7    10    11    13         180.00000
  111 Torsion                  8     4     5    19           0.00000
  112 Torsion                  8     9    10    11         180.00000
  113 Torsion                  8     9    15    14         180.00000
  114 Torsion                  8     9    15    24           0.00000
  115 Torsion                  9    10     7    16         180.00000
  116 Torsion                  9    10    11    12         180.00000
  117 Torsion                  9    10    11    13          -0.00000
  118 Torsion                  9    15    14    13           0.00000
  119 Torsion                  9    15    14    23         180.00000
  120 Torsion                 10     9     8    21        -124.22787
  121 Torsion                 10     9     8    25         124.22787
  122 Torsion                 10     9    15    14           0.00000
  123 Torsion                 10     9    15    24         180.00000
  124 Torsion                 10    11    13    14           0.00000
  125 Torsion                 10    11    13    22         180.00000
  126 Torsion                 11    10     7    16           0.00000
  127 Torsion                 11    10     9    15           0.00000
  128 Torsion                 11    13    14    15           0.00000
  129 Torsion                 11    13    14    23         180.00000
  130 Torsion                 12    11    13    14         180.00000
  131 Torsion                 12    11    13    22           0.00000
  132 Torsion                 13    14    15    24         180.00000
  133 Torsion                 15     9     8    21          55.77213
  134 Torsion                 15     9     8    25         -55.77213
  135 Torsion                 15    14    13    22         180.00000
  136 Torsion                 17     1     2    18           0.00000
  137 Torsion                 17     1     6    20           0.00000
  138 Torsion                 19     5     6    20           0.00000
  139 Torsion                 22    13    14    23           0.00000
  140 Torsion                 23    14    15    24           0.00000


            XYZ format geometry
            -------------------
    25
 geometry
 C                    -3.70704000     0.00000000    -0.71944116
 C                    -2.48101000     0.00000000    -1.41120116
 C                    -1.24852000     0.00000000    -0.73097116
 C                    -1.27203000     0.00000000     0.67911884
 C                    -2.50965000     0.00000000     1.36521884
 C                    -3.72281000     0.00000000     0.67286884
 C                     0.00000000     0.00000000    -1.43369116
 C                     0.00000000     0.00000000     1.46168884
 C                     1.27203000     0.00000000     0.67911884
 C                     1.24852000     0.00000000    -0.73097116
 C                     2.48101000     0.00000000    -1.41120116
 H                     2.48694000     0.00000000    -2.49622116
 C                     3.70704000     0.00000000    -0.71944116
 C                     3.72281000     0.00000000     0.67286884
 C                     2.50965000     0.00000000     1.36521884
 H                     0.00000000     0.00000000    -2.51629116
 H                    -4.63471000     0.00000000    -1.27976116
 H                    -2.48694000     0.00000000    -2.49622116
 H                    -2.51032000     0.00000000     2.45084884
 H                    -4.66066000     0.00000000     1.21488884
 H                     0.00000000     0.86279000     2.15083884
 H                     4.63471000     0.00000000    -1.27976116
 H                     4.66066000     0.00000000     1.21488884
 H                     2.51032000     0.00000000     2.45084884
 H                     0.00000000    -0.86279000     2.15083884

 ==============================================================================
                                internuclear distances
 ------------------------------------------------------------------------------
       center one      |      center two      | atomic units |  angstroms
 ------------------------------------------------------------------------------
    2 C                |   1 C                |     2.66021  |     1.40772
    3 C                |   2 C                |     2.66025  |     1.40774
    4 C                |   3 C                |     2.66505  |     1.41029
    5 C                |   4 C                |     2.67410  |     1.41507
    6 C                |   1 C                |     2.63125  |     1.39240
    6 C                |   5 C                |     2.63961  |     1.39682
    7 C                |   3 C                |     2.70740  |     1.43270
    8 C                |   4 C                |     2.82226  |     1.49348
    9 C                |   8 C                |     2.82226  |     1.49348
   10 C                |   7 C                |     2.70740  |     1.43270
   10 C                |   9 C                |     2.66505  |     1.41029
   11 C                |  10 C                |     2.66025  |     1.40774
   12 H                |  11 C                |     2.05042  |     1.08504
   13 C                |  11 C                |     2.66021  |     1.40772
   14 C                |  13 C                |     2.63125  |     1.39240
   15 C                |   9 C                |     2.67410  |     1.41507
   15 C                |  14 C                |     2.63961  |     1.39682
   16 H                |   7 C                |     2.04582  |     1.08260
   17 H                |   1 C                |     2.04800  |     1.08376
   18 H                |   2 C                |     2.05042  |     1.08504
   19 H                |   5 C                |     2.05154  |     1.08563
   20 H                |   6 C                |     2.04697  |     1.08321
   21 H                |   8 C                |     2.08670  |     1.10423
   22 H                |  13 C                |     2.04800  |     1.08376
   23 H                |  14 C                |     2.04697  |     1.08321
   24 H                |  15 C                |     2.05154  |     1.08563
   25 H                |   8 C                |     2.08670  |     1.10423
 ------------------------------------------------------------------------------
                         number of included internuclear distances:         27
 ==============================================================================



 ==============================================================================
                                 internuclear angles
 ------------------------------------------------------------------------------
        center 1       |       center 2       |       center 3       |  degrees
 ------------------------------------------------------------------------------
    2 C                |   1 C                |   6 C                |   120.08
    2 C                |   1 C                |  17 H                |   119.43
    6 C                |   1 C                |  17 H                |   120.48
    1 C                |   2 C                |   3 C                |   121.67
    1 C                |   2 C                |  18 H                |   119.12
    3 C                |   2 C                |  18 H                |   119.21
    2 C                |   3 C                |   4 C                |   117.94
    2 C                |   3 C                |   7 C                |   121.73
    4 C                |   3 C                |   7 C                |   120.33
    3 C                |   4 C                |   5 C                |   119.96
    3 C                |   4 C                |   8 C                |   120.65
    5 C                |   4 C                |   8 C                |   119.40
    4 C                |   5 C                |   6 C                |   121.28
    4 C                |   5 C                |  19 H                |   119.04
    6 C                |   5 C                |  19 H                |   119.68
    1 C                |   6 C                |   5 C                |   119.06
    1 C                |   6 C                |  20 H                |   120.67
    5 C                |   6 C                |  20 H                |   120.26
    3 C                |   7 C                |  10 C                |   121.25
    3 C                |   7 C                |  16 H                |   119.37
   10 C                |   7 C                |  16 H                |   119.37
    4 C                |   8 C                |   9 C                |   116.80
    4 C                |   8 C                |  21 H                |   109.09
    4 C                |   8 C                |  25 H                |   109.09
    9 C                |   8 C                |  21 H                |   109.09
    9 C                |   8 C                |  25 H                |   109.09
   21 H                |   8 C                |  25 H                |   102.77
    8 C                |   9 C                |  10 C                |   120.65
    8 C                |   9 C                |  15 C                |   119.40
   10 C                |   9 C                |  15 C                |   119.96
    7 C                |  10 C                |   9 C                |   120.33
    7 C                |  10 C                |  11 C                |   121.73
    9 C                |  10 C                |  11 C                |   117.94
   10 C                |  11 C                |  12 H                |   119.21
   10 C                |  11 C                |  13 C                |   121.67
   12 H                |  11 C                |  13 C                |   119.12
   11 C                |  13 C                |  14 C                |   120.08
   11 C                |  13 C                |  22 H                |   119.43
   14 C                |  13 C                |  22 H                |   120.48
   13 C                |  14 C                |  15 C                |   119.06
   13 C                |  14 C                |  23 H                |   120.67
   15 C                |  14 C                |  23 H                |   120.26
    9 C                |  15 C                |  14 C                |   121.28
    9 C                |  15 C                |  24 H                |   119.04
   14 C                |  15 C                |  24 H                |   119.68
 ------------------------------------------------------------------------------
                            number of included internuclear angles:         45
 ==============================================================================





 Summary of "ao basis" -> "" (cartesian)
 ------------------------------------------------------------------------------
       Tag                 Description            Shells   Functions and Types
 ---------------- ------------------------------  ------  ---------------------
 *                           6-31G                    on all atoms 


 tddft_input: filename not found; default name will be used


                           NWChem Geometry Optimization
                           ----------------------------




                                       Title


 maximum gradient threshold         (gmax) =   0.000450
 rms gradient threshold             (grms) =   0.000300
 maximum cartesian step threshold   (xmax) =   0.001800
 rms cartesian step threshold       (xrms) =   0.001200
 fixed trust radius                (trust) =   0.100000
 maximum step size to saddle      (sadstp) =   0.100000
 energy precision                  (eprec) =   1.0D-07
 maximum number of steps          (nptopt) =   20
 initial hessian option           (inhess) =    0
 line search option               (linopt) =    0
 hessian update option            (modupd) =    2
 saddle point option              (modsad) =    1
 initial eigen-mode to follow     (moddir) =    0
 initial variable to follow       (vardir) =    0
 follow first negative mode     (firstneg) =    T
 apply conjugacy                    (opcg) =    F
 source of zmatrix                         =   autoz   


          -----------------------
          Transition State Search
          -----------------------


 Names of Z-matrix variables 
    1              2              3              4              5         
    6              7              8              9             10         
   11             12             13             14             15         
   16             17             18             19             20         
   21             22             23             24             25         
   26             27             28             29             30         
   31             32             33             34             35         
   36             37             38             39             40         
   41             42             43             44             45         
   46             47             48             49             50         
   51             52             53             54             55         
   56             57             58             59             60         
   61             62             63             64             65         
   66             67             68             69             70         
   71             72             73             74             75         
   76             77             78             79             80         
   81             82             83             84             85         
   86             87             88             89             90         
   91             92             93             94             95         
   96             97             98             99            100         
  101            102            103            104            105         
  106            107            108            109            110         
  111            112            113            114            115         
  116            117            118            119            120         
  121            122            123            124            125         
  126            127            128            129            130         
  131            132            133            134            135         
  136            137            138            139            140         

 Variables with the same non-blank name are constrained to be equal


 Using old Hessian from previous optimization

          --------
          Step   0
          --------


                         Geometry "geometry" -> "geometry"
                         ---------------------------------

 Output coordinates in angstroms (scale by  1.889725989 to convert to a.u.)

  No.       Tag          Charge          X              Y              Z
 ---- ---------------- ---------- -------------- -------------- --------------
    1 C                    6.0000    -3.70704000     0.00000000    -0.71944116
    2 C                    6.0000    -2.48101000     0.00000000    -1.41120116
    3 C                    6.0000    -1.24852000     0.00000000    -0.73097116
    4 C                    6.0000    -1.27203000     0.00000000     0.67911884
    5 C                    6.0000    -2.50965000     0.00000000     1.36521884
    6 C                    6.0000    -3.72281000     0.00000000     0.67286884
    7 C                    6.0000     0.00000000     0.00000000    -1.43369116
    8 C                    6.0000     0.00000000     0.00000000     1.46168884
    9 C                    6.0000     1.27203000     0.00000000     0.67911884
   10 C                    6.0000     1.24852000     0.00000000    -0.73097116
   11 C                    6.0000     2.48101000     0.00000000    -1.41120116
   12 H                    1.0000     2.48694000     0.00000000    -2.49622116
   13 C                    6.0000     3.70704000     0.00000000    -0.71944116
   14 C                    6.0000     3.72281000     0.00000000     0.67286884
   15 C                    6.0000     2.50965000     0.00000000     1.36521884
   16 H                    1.0000     0.00000000     0.00000000    -2.51629116
   17 H                    1.0000    -4.63471000     0.00000000    -1.27976116
   18 H                    1.0000    -2.48694000     0.00000000    -2.49622116
   19 H                    1.0000    -2.51032000     0.00000000     2.45084884
   20 H                    1.0000    -4.66066000     0.00000000     1.21488884
   21 H                    1.0000     0.00000000     0.86279000     2.15083884
   22 H                    1.0000     4.63471000     0.00000000    -1.27976116
   23 H                    1.0000     4.66066000     0.00000000     1.21488884
   24 H                    1.0000     2.51032000     0.00000000     2.45084884
   25 H                    1.0000     0.00000000    -0.86279000     2.15083884

      Atomic Mass 
      ----------- 

      C                 12.000000
      H                  1.007825


 Effective nuclear repulsion energy (a.u.)     777.2570847672

            Nuclear Dipole moment (a.u.) 
            ----------------------------
        X                 Y               Z
 ---------------- ---------------- ----------------
     0.0000000000     0.0000000000    -0.0000000000

      Symmetry information
      --------------------

 Group name             C2v       
 Group number             16
 Group order               4
 No. of unique centers    14

      Symmetry unique atoms

     1    2    3    4    5    6    7    8   12   16   17   19   20   21


                                 NWChem DFT Module
                                 -----------------


                                       Title


                      Basis "ao basis" -> "ao basis" (cartesian)
                      -----
  C (Carbon)
  ----------
            Exponent  Coefficients 
       -------------- ---------------------------------------------------------
  1 S  3.04752490E+03  0.001835
  1 S  4.57369510E+02  0.014037
  1 S  1.03948690E+02  0.068843
  1 S  2.92101550E+01  0.232184
  1 S  9.28666300E+00  0.467941
  1 S  3.16392700E+00  0.362312

  2 S  7.86827240E+00 -0.119332
  2 S  1.88128850E+00 -0.160854
  2 S  5.44249300E-01  1.143456

  3 P  7.86827240E+00  0.068999
  3 P  1.88128850E+00  0.316424
  3 P  5.44249300E-01  0.744308

  4 S  1.68714400E-01  1.000000

  5 P  1.68714400E-01  1.000000

  H (Hydrogen)
  ------------
            Exponent  Coefficients 
       -------------- ---------------------------------------------------------
  1 S  1.87311370E+01  0.033495
  1 S  2.82539370E+00  0.234727
  1 S  6.40121700E-01  0.813757

  2 S  1.61277800E-01  1.000000



 Summary of "ao basis" -> "ao basis" (cartesian)
 ------------------------------------------------------------------------------
       Tag                 Description            Shells   Functions and Types
 ---------------- ------------------------------  ------  ---------------------
 C                           6-31G                   5        9   3s2p
 H                           6-31G                   2        2   2s




 Summary of "ao basis" -> "ao basis" (cartesian)
 ------------------------------------------------------------------------------
       Tag                 Description            Shells   Functions and Types
 ---------------- ------------------------------  ------  ---------------------
 C                           6-31G                   5        9   3s2p
 H                           6-31G                   2        2   2s


      Symmetry analysis of basis
      --------------------------

        a1         64
        a2         12
        b1         54
        b2         18

  Caching 1-el integrals 

            General Information
            -------------------
          SCF calculation type: DFT
          Wavefunction type:  closed shell.
          No. of atoms     :    25
          No. of electrons :    94
           Alpha electrons :    47
            Beta electrons :    47
          Charge           :     1
          Spin multiplicity:     1
          Use of symmetry is: off; symmetry adaption is: on 
          Maximum number of iterations:  30
          AO basis - number of functions:   148
                     number of shells:    92
          Convergence on energy requested:  1.00D-06
          Convergence on density requested:  1.00D-05
          Convergence on gradient requested:  5.00D-04

              XC Information
              --------------
                         B3LYP Method XC Potential
                     Hartree-Fock (Exact) Exchange  0.200          
                        Slater Exchange Functional  0.800 local    
                    Becke 1988 Exchange Functional  0.720 non-local
              Lee-Yang-Parr Correlation Functional  0.810          
                  VWN I RPA Correlation Functional  0.190 local    

             Grid Information
             ----------------
          Grid used for XC integration:  medium    
          Radial quadrature: Mura-Knowles        
          Angular quadrature: Lebedev. 
          Tag              B.-S. Rad. Rad. Pts. Rad. Cut. Ang. Pts.
          ---              ---------- --------- --------- ---------
          C                   0.70       49          14.0       434
          H                   0.35       45          14.0       434
          Grid pruning is: on 
          Number of quadrature shells:  1181
          Spatial weights used:  Erf1

          Convergence Information
          -----------------------
          Convergence aids based upon iterative change in 
          total energy or number of iterations. 
          Levelshifting, if invoked, occurs when the 
          HOMO/LUMO gap drops below (HL_TOL):  1.00D-02
          DIIS, if invoked, will attempt to extrapolate 
          using up to (NFOCK): 10 stored Fock matrices.

                    Damping( 0%)  Levelshifting(0.5)       DIIS
                  --------------- ------------------- ---------------
          dE  on:    start            ASAP                start   
          dE off:    2 iters         30 iters            30 iters 


      Screening Tolerance Information
      -------------------------------
          Density screening/tol_rho:  1.00D-10
          AO Gaussian exp screening on grid/accAOfunc:  14
          CD Gaussian exp screening on grid/accCDfunc:  20
          XC Gaussian exp screening on grid/accXCfunc:  20
          Schwarz screening/accCoul:  1.00D-08


      Superposition of Atomic Density Guess
      -------------------------------------

 Sum of atomic energies:        -532.72411601

 Renormalizing density from      95.00 to     94

      Non-variational initial energy
      ------------------------------

 Total energy =    -538.753970
 1-e energy   =   -2235.432770
 2-e energy   =     919.421715
 HOMO         =      -0.444869
 LUMO         =      -0.318357


      Symmetry analysis of molecular orbitals - initial
      -------------------------------------------------

  Numbering of irreducible representations: 

     1 a1          2 a2          3 b1          4 b2      

  Orbital symmetries:

     1 a1          2 b1          3 a1          4 b1          5 a1      
     6 a1          7 a1          8 b1          9 b1         10 a1      
    11 b1         12 a1         13 b1         14 a1         15 a1      
    16 b1         17 a1         18 a1         19 b1         20 b1      
    21 a1         22 a1         23 b1         24 a1         25 b1      
    26 a1         27 b1         28 a1         29 b1         30 a1      
    31 b2         32 a1         33 b1         34 b1         35 a1      
    36 b1         37 a2         38 a1         39 b2         40 a1      
    41 b1         42 b2         43 a1         44 b1         45 a2      
    46 a2         47 b2         48 b2         49 b2         50 a2      
    51 a2         52 b2         53 b1         54 a1         55 a1      
    56 a2         57 b2      

   Time after variat. SCF:      4.3
   Time prior to 1st pass:      4.3

 Integral file          = ./molecule.aoints.0
 Record size in doubles =  65536        No. of integs per rec  =  43688
 Max. records in memory =      0        Max. records in file   =   3978
 No. of bits per label  =      8        No. of bits per value  =     64


 #quartets = 5.149D+06 #integrals = 1.956D+07 #direct =  0.0% #cached =100.0%


 Grid_pts file          = ./molecule.gridpts.0
 Record size in doubles =  12289        No. of grid_pts per rec  =   3070
 Max. records in memory =    185        Max. recs in file   =     18938


 !! scf_movecs_sym_adapt:   86 vectors were symmetry contaminated

  Symmetry fudging

 !! scf_movecs_sym_adapt:    4 vectors were symmetry contaminated


           Memory utilization after 1st SCF pass: 
           Heap Space remaining (MW):       10.83            10826428
          Stack Space remaining (MW):       13.11            13105548

   convergence    iter        energy       DeltaE   RMS-Dens  Diis-err    time
 ---------------- ----- ----------------- --------- --------- ---------  ------
 d= 0,ls=0.0,diis     1   -539.6290081578 -1.32D+03  1.11D-02  1.08D+00    29.8

 !! scf_movecs_sym_adapt:   87 vectors were symmetry contaminated

  Symmetry fudging

 !! scf_movecs_sym_adapt:    4 vectors were symmetry contaminated

 d= 0,ls=0.0,diis     2   -539.7253692969 -9.64D-02  6.65D-03  2.38D-01    35.8

 !! scf_movecs_sym_adapt:   92 vectors were symmetry contaminated

  Symmetry fudging

 !! scf_movecs_sym_adapt:    2 vectors were symmetry contaminated

 d= 0,ls=0.0,diis     3   -539.7151595645  1.02D-02  3.82D-03  2.87D-01    41.8

 !! scf_movecs_sym_adapt:   64 vectors were symmetry contaminated

  Symmetry fudging

 !! scf_movecs_sym_adapt:    2 vectors were symmetry contaminated

 d= 0,ls=0.0,diis     4   -539.7586504892 -4.35D-02  9.35D-04  1.18D-02    49.5

 !! scf_movecs_sym_adapt:   24 vectors were symmetry contaminated

  Symmetry fudging
 d= 0,ls=0.0,diis     5   -539.7603724582 -1.72D-03  2.22D-04  1.23D-03    56.9

 !! scf_movecs_sym_adapt:   12 vectors were symmetry contaminated

  Symmetry fudging
  Resetting Diis
 d= 0,ls=0.0,diis     6   -539.7605317657 -1.59D-04  7.87D-05  1.44D-04    64.3

 !! scf_movecs_sym_adapt:    2 vectors were symmetry contaminated

  Symmetry fudging
 d= 0,ls=0.0,diis     7   -539.7605506613 -1.89D-05  7.05D-05  8.87D-06    71.8

 !! scf_movecs_sym_adapt:    2 vectors were symmetry contaminated

  Symmetry fudging
 d= 0,ls=0.0,diis     8   -539.7605462361  4.43D-06  4.33D-05  3.81D-05    80.0
 d= 0,ls=0.0,diis     9   -539.7605520397 -5.80D-06  3.26D-06  1.92D-07    87.4

 !! scf_movecs_sym_adapt:    6 vectors were symmetry contaminated

  Symmetry fudging
 d= 0,ls=0.0,diis    10   -539.7605520637 -2.40D-08  1.60D-06  2.56D-08    95.6


         Total DFT energy =     -539.760552063705
      One electron energy =    -2253.563316160663
           Coulomb energy =     1016.348974452303
    Exchange-Corr. energy =      -79.803295122533
 Nuclear repulsion energy =      777.257084767188

 Numeric. integr. density =       94.000013936841

     Total iterative time =     91.3s



                  Occupations of the irreducible representations
                  ----------------------------------------------

                     irrep           alpha         beta
                     --------     --------     --------
                     a1               22.0         22.0
                     a2                3.0          3.0
                     b1               18.0         18.0
                     b2                4.0          4.0


                       DFT Final Molecular Orbital Analysis
                       ------------------------------------

 Vector    1  Occ=2.000000D+00  E=-1.041236D+01  Symmetry=a1
              MO Center=  1.3D-11, -4.4D-15, -1.4D+00, r^2= 2.8D-02
   Bfn.  Coefficient  Atom+Function         Bfn.  Coefficient  Atom+Function  
  ----- ------------  ---------------      ----- ------------  ---------------
    55      0.995315   7 C  s                60     -0.037978   7 C  s         
    56      0.036361   7 C  s         

 Vector    2  Occ=2.000000D+00  E=-1.037403D+01  Symmetry=a1
              MO Center= -1.3D-16, -3.3D-22,  6.8D-01, r^2= 1.6D+00
   Bfn.  Coefficient  Atom+Function         Bfn.  Coefficient  Atom+Function  
  ----- ------------  ---------------      ----- ------------  ---------------
    28      0.703117   4 C  s                73      0.703117   9 C  s         
    33     -0.032561   4 C  s                78     -0.032561   9 C  s         
    19      0.031033   3 C  s                82      0.031033  10 C  s         
    29      0.026197   4 C  s                74      0.026197   9 C  s         

 Vector    3  Occ=2.000000D+00  E=-1.037403D+01  Symmetry=b1
              MO Center=  1.9D-13,  2.8D-24,  6.8D-01, r^2= 1.7D+00
   Bfn.  Coefficient  Atom+Function         Bfn.  Coefficient  Atom+Function  
  ----- ------------  ---------------      ----- ------------  ---------------
    28      0.703034   4 C  s                73     -0.703034   9 C  s         
    19      0.032251   3 C  s                82     -0.032251  10 C  s         
    33     -0.027874   4 C  s                78      0.027874   9 C  s         
    29      0.025911   4 C  s                74     -0.025911   9 C  s         

 Vector    4  Occ=2.000000D+00  E=-1.036970D+01  Symmetry=b1
              MO Center= -6.7D-12,  9.5D-24, -7.3D-01, r^2= 1.6D+00
   Bfn.  Coefficient  Atom+Function         Bfn.  Coefficient  Atom+Function  
  ----- ------------  ---------------      ----- ------------  ---------------
    19      0.702972   3 C  s                82     -0.702972  10 C  s         
    28     -0.032459   4 C  s                73      0.032459   9 C  s         
    24     -0.029434   3 C  s                87      0.029434  10 C  s         
    20      0.026281   3 C  s                83     -0.026281  10 C  s         

 Vector    5  Occ=2.000000D+00  E=-1.036970D+01  Symmetry=a1
              MO Center= -4.8D-16,  3.0D-23, -7.3D-01, r^2= 1.6D+00
   Bfn.  Coefficient  Atom+Function         Bfn.  Coefficient  Atom+Function  
  ----- ------------  ---------------      ----- ------------  ---------------
    19      0.703042   3 C  s                82      0.703042  10 C  s         
    24     -0.034148   3 C  s                87     -0.034148  10 C  s         
    28     -0.031250   4 C  s                73     -0.031250   9 C  s         
    20      0.026417   3 C  s                83      0.026417  10 C  s         

 Vector    6  Occ=2.000000D+00  E=-1.035455D+01  Symmetry=a1
              MO Center= -3.0D-16,  1.2D-23, -1.4D+00, r^2= 6.2D+00
   Bfn.  Coefficient  Atom+Function         Bfn.  Coefficient  Atom+Function  
  ----- ------------  ---------------      ----- ------------  ---------------
    10      0.703627   2 C  s                91      0.703627  11 C  s         
    15     -0.027447   2 C  s                96     -0.027447  11 C  s         
    11      0.025819   2 C  s                92      0.025819  11 C  s         

 Vector    7  Occ=2.000000D+00  E=-1.035455D+01  Symmetry=b1
              MO Center= -5.9D-15,  2.9D-24, -1.4D+00, r^2= 6.2D+00
   Bfn.  Coefficient  Atom+Function         Bfn.  Coefficient  Atom+Function  
  ----- ------------  ---------------      ----- ------------  ---------------
    10      0.703642   2 C  s                91     -0.703642  11 C  s         
    15     -0.029243   2 C  s                96      0.029243  11 C  s         
    11      0.025894   2 C  s                92     -0.025894  11 C  s         

 Vector    8  Occ=2.000000D+00  E=-1.035257D+01  Symmetry=a1
              MO Center= -9.7D-18, -7.5D-21,  1.5D+00, r^2= 1.6D-01
   Bfn.  Coefficient  Atom+Function         Bfn.  Coefficient  Atom+Function  
  ----- ------------  ---------------      ----- ------------  ---------------
    64      0.991078   8 C  s                46     -0.066623   6 C  s         
   111     -0.066623  14 C  s                69     -0.047581   8 C  s         
    65      0.039593   8 C  s         

 Vector    9  Occ=2.000000D+00  E=-1.035253D+01  Symmetry=b1
              MO Center=  5.8D-15, -7.8D-24,  6.7D-01, r^2= 1.4D+01
   Bfn.  Coefficient  Atom+Function         Bfn.  Coefficient  Atom+Function  
  ----- ------------  ---------------      ----- ------------  ---------------
    46      0.703441   6 C  s               111     -0.703441  14 C  s         
    51     -0.028380   6 C  s               116      0.028380  14 C  s         
    47      0.025876   6 C  s               112     -0.025876  14 C  s         

 Vector   10  Occ=2.000000D+00  E=-1.035252D+01  Symmetry=a1
              MO Center= -1.1D-15,  7.0D-23,  6.8D-01, r^2= 1.4D+01
   Bfn.  Coefficient  Atom+Function         Bfn.  Coefficient  Atom+Function  
  ----- ------------  ---------------      ----- ------------  ---------------
    46      0.700273   6 C  s               111      0.700273  14 C  s         
    64      0.094182   8 C  s                51     -0.027955   6 C  s         
   116     -0.027955  14 C  s                47      0.025667   6 C  s         
   112      0.025667  14 C  s         

 Vector   11  Occ=2.000000D+00  E=-1.034319D+01  Symmetry=a1
              MO Center=  1.6D-16,  1.2D-22,  1.4D+00, r^2= 6.3D+00
   Bfn.  Coefficient  Atom+Function         Bfn.  Coefficient  Atom+Function  
  ----- ------------  ---------------      ----- ------------  ---------------
    37      0.703556   5 C  s               120      0.703556  15 C  s         
    42     -0.028959   5 C  s               125     -0.028959  15 C  s         
    38      0.025953   5 C  s               121      0.025953  15 C  s         

 Vector   12  Occ=2.000000D+00  E=-1.034318D+01  Symmetry=b1
              MO Center=  3.3D-14,  2.9D-24,  1.4D+00, r^2= 6.3D+00
   Bfn.  Coefficient  Atom+Function         Bfn.  Coefficient  Atom+Function  
  ----- ------------  ---------------      ----- ------------  ---------------
    37      0.703563   5 C  s               120     -0.703563  15 C  s         
    42     -0.029797   5 C  s               125      0.029797  15 C  s         
    38      0.025992   5 C  s               121     -0.025992  15 C  s         

 Vector   13  Occ=2.000000D+00  E=-1.034037D+01  Symmetry=b1
              MO Center=  1.3D-13,  2.7D-23, -7.2D-01, r^2= 1.4D+01
   Bfn.  Coefficient  Atom+Function         Bfn.  Coefficient  Atom+Function  
  ----- ------------  ---------------      ----- ------------  ---------------
     1      0.703575   1 C  s               102     -0.703575  13 C  s         
     6     -0.028978   1 C  s               107      0.028978  13 C  s         
     2      0.026002   1 C  s               103     -0.026002  13 C  s         

 Vector   14  Occ=2.000000D+00  E=-1.034037D+01  Symmetry=a1
              MO Center=  1.4D-15, -1.2D-24, -7.2D-01, r^2= 1.4D+01
   Bfn.  Coefficient  Atom+Function         Bfn.  Coefficient  Atom+Function  
  ----- ------------  ---------------      ----- ------------  ---------------
     1      0.703573   1 C  s               102      0.703573  13 C  s         
     6     -0.029339   1 C  s               107     -0.029339  13 C  s         
     2      0.025960   1 C  s               103      0.025960  13 C  s         

 Vector   15  Occ=2.000000D+00  E=-1.055268D+00  Symmetry=a1
              MO Center= -4.0D-17,  9.2D-20, -1.5D-01, r^2= 4.1D+00
   Bfn.  Coefficient  Atom+Function         Bfn.  Coefficient  Atom+Function  
  ----- ------------  ---------------      ----- ------------  ---------------
    20      0.183182   3 C  s                83      0.183182  10 C  s         
    29      0.161483   4 C  s                56      0.161136   7 C  s         
    74      0.161483   9 C  s                69      0.119479   8 C  s         
    65      0.113392   8 C  s                60      0.105281   7 C  s         
    11      0.093061   2 C  s                92      0.093061  11 C  s         

 Vector   16  Occ=2.000000D+00  E=-1.019691D+00  Symmetry=b1
              MO Center= -8.7D-11, -5.5D-12, -6.2D-02, r^2= 7.8D+00
   Bfn.  Coefficient  Atom+Function         Bfn.  Coefficient  Atom+Function  
  ----- ------------  ---------------      ----- ------------  ---------------
    20      0.144220   3 C  s                83     -0.144220  10 C  s         
    29      0.135654   4 C  s                74     -0.135654   9 C  s         
    11      0.131020   2 C  s                92     -0.131020  11 C  s         
    38      0.123719   5 C  s               121     -0.123719  15 C  s         
    47      0.121676   6 C  s               112     -0.121676  14 C  s         

 Vector   17  Occ=2.000000D+00  E=-9.676033D-01  Symmetry=a1
              MO Center=  8.2D-12,  2.2D-20, -1.1D-01, r^2= 9.4D+00
   Bfn.  Coefficient  Atom+Function         Bfn.  Coefficient  Atom+Function  
  ----- ------------  ---------------      ----- ------------  ---------------
    56      0.197581   7 C  s                47     -0.174897   6 C  s         
   112     -0.174897  14 C  s                 2     -0.145209   1 C  s         
   103     -0.145209  13 C  s                38     -0.123292   5 C  s         
   121     -0.123292  15 C  s                51     -0.109684   6 C  s         
   116     -0.109684  14 C  s                60      0.100731   7 C  s         

 Vector   18  Occ=2.000000D+00  E=-9.552487D-01  Symmetry=a1
              MO Center=  4.9D-10, -7.3D-12,  2.5D-01, r^2= 5.0D+00
   Bfn.  Coefficient  Atom+Function         Bfn.  Coefficient  Atom+Function  
  ----- ------------  ---------------      ----- ------------  ---------------
    65      0.238009   8 C  s                69      0.206748   8 C  s         
    29      0.145319   4 C  s                74      0.145319   9 C  s         
    56     -0.144325   7 C  s                11     -0.127051   2 C  s         
    92     -0.127051  11 C  s                64     -0.125031   8 C  s         
    60     -0.095823   7 C  s                20     -0.089397   3 C  s         

 Vector   19  Occ=2.000000D+00  E=-9.158991D-01  Symmetry=b1
              MO Center= -1.9D-10,  2.3D-12, -7.4D-02, r^2= 9.0D+00
   Bfn.  Coefficient  Atom+Function         Bfn.  Coefficient  Atom+Function  
  ----- ------------  ---------------      ----- ------------  ---------------
    20      0.185632   3 C  s                83     -0.185632  10 C  s         
    47     -0.180229   6 C  s               112      0.180229  14 C  s         
    24      0.141243   3 C  s                87     -0.141243  10 C  s         
    51     -0.134932   6 C  s               116      0.134932  14 C  s         
    38     -0.132963   5 C  s               121      0.132963  15 C  s         

 Vector   20  Occ=2.000000D+00  E=-9.055109D-01  Symmetry=b1
              MO Center= -1.0D-09,  2.1D-12,  1.3D-02, r^2= 9.0D+00
   Bfn.  Coefficient  Atom+Function         Bfn.  Coefficient  Atom+Function  
  ----- ------------  ---------------      ----- ------------  ---------------
    29     -0.185762   4 C  s                74      0.185762   9 C  s         
     2      0.177133   1 C  s               103     -0.177133  13 C  s         
    33     -0.141470   4 C  s                78      0.141470   9 C  s         
    11      0.133344   2 C  s                92     -0.133344  11 C  s         
     6      0.131165   1 C  s               107     -0.131165  13 C  s         

 Vector   21  Occ=2.000000D+00  E=-8.649213D-01  Symmetry=a1
              MO Center=  4.2D-10,  1.5D-11, -5.1D-02, r^2= 9.2D+00
   Bfn.  Coefficient  Atom+Function         Bfn.  Coefficient  Atom+Function  
  ----- ------------  ---------------      ----- ------------  ---------------
    11      0.166164   2 C  s                56     -0.166460   7 C  s         
    92      0.166164  11 C  s                69      0.161220   8 C  s         
    65      0.149501   8 C  s                38     -0.147101   5 C  s         
   121     -0.147101  15 C  s                60     -0.129286   7 C  s         
    15      0.120610   2 C  s                96      0.120610  11 C  s         

 Vector   22  Occ=2.000000D+00  E=-8.232701D-01  Symmetry=a1
              MO Center=  2.4D-10,  1.3D-18,  6.2D-02, r^2= 8.3D+00
   Bfn.  Coefficient  Atom+Function         Bfn.  Coefficient  Atom+Function  
  ----- ------------  ---------------      ----- ------------  ---------------
    69      0.195715   8 C  s                56      0.170990   7 C  s         
    65      0.169942   8 C  s                60      0.148993   7 C  s         
    21      0.128052   3 C  px               84     -0.128052  10 C  px        
    30      0.124020   4 C  px               75     -0.124020   9 C  px        
     2      0.122370   1 C  s               103      0.122370  13 C  s         

 Vector   23  Occ=2.000000D+00  E=-7.796317D-01  Symmetry=a1
              MO Center=  6.6D-10, -2.9D-12, -1.3D-01, r^2= 6.7D+00
   Bfn.  Coefficient  Atom+Function         Bfn.  Coefficient  Atom+Function  
  ----- ------------  ---------------      ----- ------------  ---------------
    23      0.162696   3 C  pz               86      0.162696  10 C  pz        
    32     -0.150862   4 C  pz               77     -0.150862   9 C  pz        
    59      0.144576   7 C  pz               69     -0.141097   8 C  s         
    38     -0.116470   5 C  s               121     -0.116470  15 C  s         
    11     -0.109344   2 C  s                92     -0.109344  11 C  s         

 Vector   24  Occ=2.000000D+00  E=-7.744998D-01  Symmetry=b1
              MO Center=  3.8D-10,  1.9D-12, -6.7D-02, r^2= 9.7D+00
   Bfn.  Coefficient  Atom+Function         Bfn.  Coefficient  Atom+Function  
  ----- ------------  ---------------      ----- ------------  ---------------
    57      0.173825   7 C  px               39      0.143668   5 C  px        
   122      0.143668  15 C  px               12     -0.141305   2 C  px        
    93     -0.141305  11 C  px               47     -0.140124   6 C  s         
   112      0.140124  14 C  s                20     -0.127114   3 C  s         
    83      0.127114  10 C  s                29      0.121349   4 C  s         

 Vector   25  Occ=2.000000D+00  E=-7.560260D-01  Symmetry=b1
              MO Center= -6.2D-10, -4.6D-23, -4.2D-02, r^2= 9.7D+00
   Bfn.  Coefficient  Atom+Function         Bfn.  Coefficient  Atom+Function  
  ----- ------------  ---------------      ----- ------------  ---------------
    38      0.149679   5 C  s               121     -0.149679  15 C  s         
    11      0.148889   2 C  s                15      0.149533   2 C  s         
    92     -0.148889  11 C  s                96     -0.149533  11 C  s         
    42      0.147447   5 C  s               125     -0.147447  15 C  s         
    23     -0.130277   3 C  pz               86      0.130277  10 C  pz        

 Vector   26  Occ=2.000000D+00  E=-7.055220D-01  Symmetry=a1
              MO Center= -3.5D-10,  9.6D-12, -2.7D-02, r^2= 1.1D+01
   Bfn.  Coefficient  Atom+Function         Bfn.  Coefficient  Atom+Function  
  ----- ------------  ---------------      ----- ------------  ---------------
    60      0.200913   7 C  s                69     -0.191316   8 C  s         
    12     -0.157505   2 C  px               93      0.157505  11 C  px        
    39      0.147028   5 C  px              122     -0.147028  15 C  px        
    47     -0.128159   6 C  s               112     -0.128159  14 C  s         
     2      0.127290   1 C  s               103      0.127290  13 C  s         

 Vector   27  Occ=2.000000D+00  E=-6.832425D-01  Symmetry=b1
              MO Center=  2.4D-10,  4.2D-22, -7.9D-02, r^2= 9.6D+00
   Bfn.  Coefficient  Atom+Function         Bfn.  Coefficient  Atom+Function  
  ----- ------------  ---------------      ----- ------------  ---------------
    57      0.199284   7 C  px               66      0.160412   8 C  px        
     3      0.138778   1 C  px               21     -0.138702   3 C  px        
    84     -0.138702  10 C  px              104      0.138778  13 C  px        
    48      0.135169   6 C  px              113      0.135169  14 C  px        
    14      0.122766   2 C  pz               95     -0.122766  11 C  pz        

 Vector   28  Occ=2.000000D+00  E=-6.685531D-01  Symmetry=a1
              MO Center=  5.8D-12,  2.9D-19, -3.0D-01, r^2= 9.6D+00
   Bfn.  Coefficient  Atom+Function         Bfn.  Coefficient  Atom+Function  
  ----- ------------  ---------------      ----- ------------  ---------------
    59      0.215892   7 C  pz                5     -0.141946   1 C  pz        
    50      0.141959   6 C  pz              106     -0.141946  13 C  pz        
   115      0.141959  14 C  pz              129     -0.132725  16 H  s         
    69     -0.125553   8 C  s                14     -0.121531   2 C  pz        
    41      0.121982   5 C  pz               95     -0.121531  11 C  pz        

 Vector   29  Occ=2.000000D+00  E=-6.249695D-01  Symmetry=a1
              MO Center=  2.2D-09, -8.7D-12, -7.3D-02, r^2= 1.2D+01
   Bfn.  Coefficient  Atom+Function         Bfn.  Coefficient  Atom+Function  
  ----- ------------  ---------------      ----- ------------  ---------------
    48      0.211796   6 C  px              113     -0.211796  14 C  px        
     3      0.185086   1 C  px              104     -0.185086  13 C  px        
    59      0.174952   7 C  pz               60      0.169724   7 C  s         
    33     -0.159745   4 C  s                78     -0.159745   9 C  s         
    39     -0.131010   5 C  px              122      0.131010  15 C  px        

 Vector   30  Occ=2.000000D+00  E=-6.206501D-01  Symmetry=b1
              MO Center= -2.1D-09, -6.5D-22, -1.1D-01, r^2= 1.1D+01
   Bfn.  Coefficient  Atom+Function         Bfn.  Coefficient  Atom+Function  
  ----- ------------  ---------------      ----- ------------  ---------------
    57      0.222343   7 C  px               23      0.175214   3 C  pz        
    86     -0.175214  10 C  pz               50      0.170883   6 C  pz        
   115     -0.170883  14 C  pz               33      0.138797   4 C  s         
    78     -0.138797   9 C  s               137      0.133382  20 H  s         
   143     -0.133382  23 H  s                48     -0.113113   6 C  px        

 Vector   31  Occ=2.000000D+00  E=-6.137434D-01  Symmetry=a1
              MO Center=  6.8D-12,  2.7D-18, -1.0D-01, r^2= 8.2D+00
   Bfn.  Coefficient  Atom+Function         Bfn.  Coefficient  Atom+Function  
  ----- ------------  ---------------      ----- ------------  ---------------
    59      0.228481   7 C  pz               68      0.220438   8 C  pz        
    24      0.173251   3 C  s                87      0.173251  10 C  s         
   129     -0.160940  16 H  s                41      0.124167   5 C  pz        
   124      0.124167  15 C  pz               72      0.120940   8 C  pz        
   130     -0.117685  16 H  s                 3     -0.106423   1 C  px        

 Vector   32  Occ=2.000000D+00  E=-6.133508D-01  Symmetry=b1
              MO Center= -1.2D-10,  1.1D-22,  6.0D-02, r^2= 1.0D+01
   Bfn.  Coefficient  Atom+Function         Bfn.  Coefficient  Atom+Function  
  ----- ------------  ---------------      ----- ------------  ---------------
     5      0.181668   1 C  pz              106     -0.181668  13 C  pz        
    32      0.179719   4 C  pz               77     -0.179719   9 C  pz        
    66     -0.155418   8 C  px               24     -0.153489   3 C  s         
    87      0.153489  10 C  s                12      0.137230   2 C  px        
    93      0.137230  11 C  px               21     -0.119053   3 C  px        

 Vector   33  Occ=2.000000D+00  E=-6.078480D-01  Symmetry=b2
              MO Center=  2.3D-18,  2.8D-12,  1.1D+00, r^2= 2.8D+00
   Bfn.  Coefficient  Atom+Function         Bfn.  Coefficient  Atom+Function  
  ----- ------------  ---------------      ----- ------------  ---------------
    67      0.366984   8 C  py               71      0.178565   8 C  py        
   139      0.172979  21 H  s               147     -0.172979  25 H  s         
    31      0.170393   4 C  py               76      0.170393   9 C  py        
    22      0.111698   3 C  py               85      0.111698  10 C  py        
   140      0.111120  21 H  s               148     -0.111120  25 H  s         

 Vector   34  Occ=2.000000D+00  E=-5.813756D-01  Symmetry=b1
              MO Center= -6.5D-10,  1.3D-12, -5.4D-03, r^2= 9.9D+00
   Bfn.  Coefficient  Atom+Function         Bfn.  Coefficient  Atom+Function  
  ----- ------------  ---------------      ----- ------------  ---------------
    41      0.207148   5 C  pz              124     -0.207148  15 C  pz        
    21     -0.203311   3 C  px               84     -0.203311  10 C  px        
    14      0.198839   2 C  pz               95     -0.198839  11 C  pz        
    48     -0.174017   6 C  px              113     -0.174017  14 C  px        
    57      0.168839   7 C  px              135      0.122370  19 H  s         

 Vector   35  Occ=2.000000D+00  E=-5.767202D-01  Symmetry=a1
              MO Center=  3.1D-10, -1.2D-19, -4.3D-01, r^2= 8.7D+00
   Bfn.  Coefficient  Atom+Function         Bfn.  Coefficient  Atom+Function  
  ----- ------------  ---------------      ----- ------------  ---------------
    59     -0.230454   7 C  pz               14      0.213592   2 C  pz        
    95      0.213592  11 C  pz               41      0.183943   5 C  pz        
   124      0.183943  15 C  pz              129      0.140808  16 H  s         
   100     -0.133921  12 H  s               133     -0.133921  18 H  s         
    21     -0.118972   3 C  px               84      0.118972  10 C  px        

 Vector   36  Occ=2.000000D+00  E=-5.673691D-01  Symmetry=b1
              MO Center=  2.9D-10,  3.5D-13, -9.6D-02, r^2= 9.7D+00
   Bfn.  Coefficient  Atom+Function         Bfn.  Coefficient  Atom+Function  
  ----- ------------  ---------------      ----- ------------  ---------------
    66     -0.242205   8 C  px               30      0.236656   4 C  px        
    75      0.236656   9 C  px                3      0.229143   1 C  px        
   104      0.229143  13 C  px               12     -0.130094   2 C  px        
    93     -0.130094  11 C  px              131     -0.120594  17 H  s         
   141      0.120594  22 H  s                14      0.115002   2 C  pz        

 Vector   37  Occ=2.000000D+00  E=-5.552130D-01  Symmetry=a1
              MO Center= -4.3D-10,  3.9D-11,  5.8D-01, r^2= 9.3D+00
   Bfn.  Coefficient  Atom+Function         Bfn.  Coefficient  Atom+Function  
  ----- ------------  ---------------      ----- ------------  ---------------
    68      0.271848   8 C  pz                5     -0.190066   1 C  pz        
   106     -0.190066  13 C  pz               50      0.182675   6 C  pz        
   115      0.182675  14 C  pz               32     -0.139510   4 C  pz        
    77     -0.139510   9 C  pz               72      0.131186   8 C  pz        
    41     -0.130112   5 C  pz              124     -0.130112  15 C  pz        

 Vector   38  Occ=2.000000D+00  E=-5.311851D-01  Symmetry=b2
              MO Center= -2.0D-09, -6.5D-11, -1.9D-01, r^2= 5.6D+00
   Bfn.  Coefficient  Atom+Function         Bfn.  Coefficient  Atom+Function  
  ----- ------------  ---------------      ----- ------------  ---------------
    67     -0.236627   8 C  py               58      0.232473   7 C  py        
    22      0.216097   3 C  py               85      0.216097  10 C  py        
    13      0.149593   2 C  py               94      0.149593  11 C  py        
    62      0.132277   7 C  py              139     -0.132234  21 H  s         
   147      0.132234  25 H  s                71     -0.128415   8 C  py        

 Vector   39  Occ=2.000000D+00  E=-5.281604D-01  Symmetry=a1
              MO Center= -1.3D-09,  2.4D-12,  1.0D-02, r^2= 1.5D+01
   Bfn.  Coefficient  Atom+Function         Bfn.  Coefficient  Atom+Function  
  ----- ------------  ---------------      ----- ------------  ---------------
     3      0.212437   1 C  px               60      0.212592   7 C  s         
   104     -0.212437  13 C  px               48     -0.210925   6 C  px        
   113      0.210925  14 C  px               12     -0.172188   2 C  px        
    93      0.172188  11 C  px               39      0.167205   5 C  px        
   122     -0.167205  15 C  px               69     -0.160045   8 C  s         

 Vector   40  Occ=2.000000D+00  E=-5.243707D-01  Symmetry=a2
              MO Center=  2.0D-09,  1.0D-11, -3.2D-02, r^2= 8.5D+00
   Bfn.  Coefficient  Atom+Function         Bfn.  Coefficient  Atom+Function  
  ----- ------------  ---------------      ----- ------------  ---------------
    22      0.177505   3 C  py               85     -0.177505  10 C  py        
    31      0.173030   4 C  py               76     -0.173030   9 C  py        
    13      0.159250   2 C  py               94     -0.159250  11 C  py        
    40      0.156361   5 C  py              123     -0.156361  15 C  py        
    49      0.151431   6 C  py              114     -0.151431  14 C  py        

 Vector   41  Occ=2.000000D+00  E=-5.082686D-01  Symmetry=b1
              MO Center= -1.3D-09, -4.6D-12,  7.3D-02, r^2= 1.2D+01
   Bfn.  Coefficient  Atom+Function         Bfn.  Coefficient  Atom+Function  
  ----- ------------  ---------------      ----- ------------  ---------------
     5      0.206621   1 C  pz               50     -0.206119   6 C  pz        
   106     -0.206621  13 C  pz              115      0.206119  14 C  pz        
    41      0.168956   5 C  pz              124     -0.168956  15 C  pz        
    14     -0.160677   2 C  pz               95      0.160677  11 C  pz        
    32     -0.142341   4 C  pz               77      0.142341   9 C  pz        

 Vector   42  Occ=2.000000D+00  E=-4.931044D-01  Symmetry=a1
              MO Center= -8.3D-10,  1.9D-11,  5.7D-02, r^2= 8.8D+00
   Bfn.  Coefficient  Atom+Function         Bfn.  Coefficient  Atom+Function  
  ----- ------------  ---------------      ----- ------------  ---------------
    23      0.211507   3 C  pz               32     -0.210500   4 C  pz        
    77     -0.210500   9 C  pz               86      0.211507  10 C  pz        
    68      0.182671   8 C  pz               50     -0.152356   6 C  pz        
   115     -0.152356  14 C  pz                5      0.150498   1 C  pz        
   106      0.150498  13 C  pz               14     -0.144573   2 C  pz        

 Vector   43  Occ=2.000000D+00  E=-4.904817D-01  Symmetry=b1
              MO Center=  3.7D-09, -3.0D-13,  1.2D-01, r^2= 1.0D+01
   Bfn.  Coefficient  Atom+Function         Bfn.  Coefficient  Atom+Function  
  ----- ------------  ---------------      ----- ------------  ---------------
    66      0.238185   8 C  px               39      0.202343   5 C  px        
   122      0.202343  15 C  px               30     -0.193792   4 C  px        
    75     -0.193792   9 C  px               12     -0.182310   2 C  px        
    93     -0.182310  11 C  px               48     -0.179687   6 C  px        
   113     -0.179687  14 C  px               57     -0.169852   7 C  px        

 Vector   44  Occ=2.000000D+00  E=-4.625320D-01  Symmetry=b2
              MO Center=  3.0D-11,  6.6D-12, -9.8D-03, r^2= 1.1D+01
   Bfn.  Coefficient  Atom+Function         Bfn.  Coefficient  Atom+Function  
  ----- ------------  ---------------      ----- ------------  ---------------
    58     -0.243991   7 C  py               49      0.237137   6 C  py        
   114      0.237137  14 C  py                4      0.179348   1 C  py        
   105      0.179348  13 C  py               40      0.170479   5 C  py        
    62     -0.170564   7 C  py              123      0.170479  15 C  py        
    53      0.144642   6 C  py              118      0.144642  14 C  py        

 Vector   45  Occ=2.000000D+00  E=-4.104862D-01  Symmetry=a2
              MO Center= -4.7D-11, -4.2D-12,  7.5D-03, r^2= 9.2D+00
   Bfn.  Coefficient  Atom+Function         Bfn.  Coefficient  Atom+Function  
  ----- ------------  ---------------      ----- ------------  ---------------
    22      0.244496   3 C  py               85     -0.244496  10 C  py        
    49     -0.232340   6 C  py              114      0.232340  14 C  py        
    40     -0.189900   5 C  py              123      0.189900  15 C  py        
    26      0.179319   3 C  py               89     -0.179319  10 C  py        
    13      0.173015   2 C  py               94     -0.173015  11 C  py        

 Vector   46  Occ=2.000000D+00  E=-4.080846D-01  Symmetry=a2
              MO Center= -1.5D-09, -3.6D-13, -6.2D-02, r^2= 9.3D+00
   Bfn.  Coefficient  Atom+Function         Bfn.  Coefficient  Atom+Function  
  ----- ------------  ---------------      ----- ------------  ---------------
    31     -0.249539   4 C  py               76      0.249539   9 C  py        
     4      0.239107   1 C  py              105     -0.239107  13 C  py        
    35     -0.179208   4 C  py               80      0.179208   9 C  py        
    13      0.172627   2 C  py               94     -0.172627  11 C  py        
     8      0.163075   1 C  py              109     -0.163075  13 C  py        

 Vector   47  Occ=2.000000D+00  E=-3.919803D-01  Symmetry=b2
              MO Center=  1.4D-09, -1.9D-12,  1.1D-01, r^2= 9.1D+00
   Bfn.  Coefficient  Atom+Function         Bfn.  Coefficient  Atom+Function  
  ----- ------------  ---------------      ----- ------------  ---------------
    40     -0.223826   5 C  py              123     -0.223826  15 C  py        
    13      0.218417   2 C  py               94      0.218417  11 C  py        
     4      0.196436   1 C  py              105      0.196436  13 C  py        
    31     -0.184130   4 C  py               76     -0.184130   9 C  py        
    17      0.164558   2 C  py               98      0.164558  11 C  py        

 Vector   48  Occ=0.000000D+00  E=-2.793233D-01  Symmetry=b2
              MO Center=  2.2D-11,  9.8D-13, -4.5D-01, r^2= 6.6D+00
   Bfn.  Coefficient  Atom+Function         Bfn.  Coefficient  Atom+Function  
  ----- ------------  ---------------      ----- ------------  ---------------
    58      0.407234   7 C  py               62      0.378247   7 C  py        
    31     -0.205378   4 C  py               76     -0.205378   9 C  py        
    49      0.198885   6 C  py              114      0.198885  14 C  py        
    13     -0.182889   2 C  py               35     -0.183539   4 C  py        
    80     -0.183539   9 C  py               94     -0.182889  11 C  py        

 Vector   49  Occ=0.000000D+00  E=-1.654649D-01  Symmetry=b2
              MO Center=  1.5D-09,  5.2D-12,  2.4D-01, r^2= 9.4D+00
   Bfn.  Coefficient  Atom+Function         Bfn.  Coefficient  Atom+Function  
  ----- ------------  ---------------      ----- ------------  ---------------
    44      0.318188   5 C  py              127      0.318188  15 C  py        
   140      0.317894  21 H  s               148     -0.317894  25 H  s         
    17      0.297279   2 C  py               98      0.297279  11 C  py        
     8     -0.249626   1 C  py              109     -0.249626  13 C  py        
    40      0.238069   5 C  py              123      0.238069  15 C  py        

 Vector   50  Occ=0.000000D+00  E=-1.620139D-01  Symmetry=a2
              MO Center=  9.1D-11, -5.1D-11, -3.7D-02, r^2= 9.3D+00
   Bfn.  Coefficient  Atom+Function         Bfn.  Coefficient  Atom+Function  
  ----- ------------  ---------------      ----- ------------  ---------------
    26      0.337182   3 C  py               89     -0.337182  10 C  py        
    53      0.299149   6 C  py              118     -0.299149  14 C  py        
    35     -0.295585   4 C  py               80      0.295585   9 C  py        
    22      0.265041   3 C  py               85     -0.265041  10 C  py        
     8     -0.252562   1 C  py              109      0.252562  13 C  py        

 Vector   51  Occ=0.000000D+00  E=-1.520779D-01  Symmetry=a2
              MO Center= -1.7D-09, -2.8D-11, -1.5D-02, r^2= 9.7D+00
   Bfn.  Coefficient  Atom+Function         Bfn.  Coefficient  Atom+Function  
  ----- ------------  ---------------      ----- ------------  ---------------
    44      0.340772   5 C  py              127     -0.340772  15 C  py        
    17      0.336205   2 C  py               98     -0.336205  11 C  py        
    40      0.266621   5 C  py              123     -0.266621  15 C  py        
    13      0.263739   2 C  py               94     -0.263739  11 C  py        
     8     -0.213466   1 C  py              109      0.213466  13 C  py        

 Vector   52  Occ=0.000000D+00  E=-1.020823D-01  Symmetry=b2
              MO Center= -2.0D-12,  6.7D-11, -1.9D-01, r^2= 1.0D+01
   Bfn.  Coefficient  Atom+Function         Bfn.  Coefficient  Atom+Function  
  ----- ------------  ---------------      ----- ------------  ---------------
    62      0.413713   7 C  py               53     -0.373407   6 C  py        
   118     -0.373407  14 C  py               26     -0.346575   3 C  py        
    89     -0.346575  10 C  py               58      0.289860   7 C  py        
     8      0.286222   1 C  py              109      0.286222  13 C  py        
    49     -0.260630   6 C  py              114     -0.260630  14 C  py        

 Vector   53  Occ=0.000000D+00  E=-3.915092D-02  Symmetry=a1
              MO Center=  2.6D-11,  7.6D-12, -2.1D+00, r^2= 9.6D+00
   Bfn.  Coefficient  Atom+Function         Bfn.  Coefficient  Atom+Function  
  ----- ------------  ---------------      ----- ------------  ---------------
   130      1.387896  16 H  s                63      0.861004   7 C  pz        
   101      0.762326  12 H  s               134      0.762326  18 H  s         
    60     -0.673243   7 C  s                18      0.466041   2 C  pz        
    99      0.466041  11 C  pz              132      0.411977  17 H  s         
   142      0.411977  22 H  s                24     -0.398167   3 C  s         

 Vector   54  Occ=0.000000D+00  E=-3.327686D-02  Symmetry=b1
              MO Center= -2.5D-08,  1.7D-12, -3.6D-02, r^2= 1.8D+01
   Bfn.  Coefficient  Atom+Function         Bfn.  Coefficient  Atom+Function  
  ----- ------------  ---------------      ----- ------------  ---------------
   101      0.672377  12 H  s               134     -0.672377  18 H  s         
   136     -0.635201  19 H  s               146      0.635201  24 H  s         
   138     -0.575771  20 H  s               144      0.575771  23 H  s         
   132     -0.547282  17 H  s               142      0.547282  22 H  s         
    15      0.533824   2 C  s                96     -0.533824  11 C  s         

 Vector   55  Occ=0.000000D+00  E=-3.276748D-02  Symmetry=a1
              MO Center=  2.4D-08, -3.4D-11,  1.8D+00, r^2= 8.4D+00
   Bfn.  Coefficient  Atom+Function         Bfn.  Coefficient  Atom+Function  
  ----- ------------  ---------------      ----- ------------  ---------------
    69      1.426962   8 C  s               140     -1.003870  21 H  s         
   148     -1.003870  25 H  s               136     -0.733635  19 H  s         
   146     -0.733635  24 H  s                72      0.616923   8 C  pz        
    45      0.494634   5 C  pz              128      0.494634  15 C  pz        
   130      0.460545  16 H  s                60     -0.411848   7 C  s         

 Vector   56  Occ=0.000000D+00  E=-1.324771D-02  Symmetry=a1
              MO Center=  1.7D-09, -1.2D-11,  1.9D-01, r^2= 1.4D+01
   Bfn.  Coefficient  Atom+Function         Bfn.  Coefficient  Atom+Function  
  ----- ------------  ---------------      ----- ------------  ---------------
    69      1.488871   8 C  s                60      0.968840   7 C  s         
   130     -0.931537  16 H  s               140     -0.755962  21 H  s         
   148     -0.755962  25 H  s               138      0.589190  20 H  s         
   144      0.589190  23 H  s                51     -0.549952   6 C  s         
   116     -0.549952  14 C  s               132      0.521322  17 H  s         

 Vector   57  Occ=0.000000D+00  E=-1.142699D-02  Symmetry=b2
              MO Center=  1.2D-09,  8.9D-11,  5.0D-01, r^2= 7.9D+00
   Bfn.  Coefficient  Atom+Function         Bfn.  Coefficient  Atom+Function  
  ----- ------------  ---------------      ----- ------------  ---------------
[...]
                --------------------------------------------------



                                Z-matrix (autoz)
                                -------- 

 Units are Angstrom for bonds and degrees for angles

      Type          Name      I     J     K     L     M      Value       Change
      ----------- --------  ----- ----- ----- ----- ----- ---------- ----------
    1 Stretch                  1     2                       1.41348    0.00575
    2 Stretch                  1     6                       1.39870    0.00630
    3 Stretch                  1    17                       1.08397    0.00022
    4 Stretch                  2     3                       1.41176    0.00401
    5 Stretch                  2    18                       1.08537    0.00034
    6 Stretch                  3     4                       1.41597    0.00569
    7 Stretch                  3     7                       1.43759    0.00490
    8 Stretch                  4     5                       1.42223    0.00716
    9 Stretch                  4     8                       1.50438    0.01090
   10 Stretch                  5     6                       1.40135    0.00453
   11 Stretch                  5    19                       1.08552   -0.00011
   12 Stretch                  6    20                       1.08310   -0.00011
   13 Stretch                  7    10                       1.43759    0.00490
   14 Stretch                  7    16                       1.08317    0.00057
   15 Stretch                  8     9                       1.50438    0.01090
   16 Stretch                  8    21                       1.10462    0.00038
   17 Stretch                  8    25                       1.10462    0.00038
   18 Stretch                  9    10                       1.41597    0.00569
   19 Stretch                  9    15                       1.42223    0.00716
   20 Stretch                 10    11                       1.41176    0.00401
   21 Stretch                 11    12                       1.08537    0.00034
   22 Stretch                 11    13                       1.41348    0.00575
   23 Stretch                 13    14                       1.39870    0.00630
   24 Stretch                 13    22                       1.08397    0.00022
   25 Stretch                 14    15                       1.40135    0.00453
   26 Stretch                 14    23                       1.08310   -0.00011
   27 Stretch                 15    24                       1.08552   -0.00011
   28 Bend                     1     2     3               121.55208   -0.12005
   29 Bend                     1     2    18               119.57903    0.45927
   30 Bend                     1     6     5               119.13567    0.07122
   31 Bend                     1     6    20               120.79148    0.11726
   32 Bend                     2     1     6               120.10856    0.02674
   33 Bend                     2     1    17               119.54355    0.10875
   34 Bend                     2     3     4               118.11777    0.17798
   35 Bend                     2     3     7               121.57791   -0.15446
   36 Bend                     3     2    18               118.86889   -0.33922
   37 Bend                     3     4     5               119.88775   -0.07013
   38 Bend                     3     4     8               121.22594    0.58073
   39 Bend                     3     7    10               121.16742   -0.08727
   40 Bend                     3     7    16               119.41629    0.04364
   41 Bend                     4     3     7               120.30433   -0.02351
   42 Bend                     4     5     6               121.19817   -0.08575
   43 Bend                     4     5    19               118.92575   -0.11230
   44 Bend                     4     8     9               115.77205   -1.02717
   45 Bend                     4     8    21               107.95638   -1.13173
   46 Bend                     4     8    25               107.95638   -1.13173
   47 Bend                     5     4     8               118.88632   -0.51060
   48 Bend                     5     6    20               120.07284   -0.18848
   49 Bend                     6     1    17               120.34789   -0.13548
   50 Bend                     6     5    19               119.87608    0.19805
   51 Bend                     7    10     9               120.30433   -0.02351
   52 Bend                     7    10    11               121.57791   -0.15446
   53 Bend                     8     9    10               121.22594    0.58073
   54 Bend                     8     9    15               118.88632   -0.51060
   55 Bend                     9     8    21               107.95638   -1.13173
   56 Bend                     9     8    25               107.95638   -1.13173
   57 Bend                     9    10    11               118.11777    0.17798
   58 Bend                     9    15    14               121.19817   -0.08575
   59 Bend                     9    15    24               118.92575   -0.11230
   60 Bend                    10     7    16               119.41629    0.04364
   61 Bend                    10     9    15               119.88775   -0.07013
   62 Bend                    10    11    12               118.86889   -0.33922
   63 Bend                    10    11    13               121.55208   -0.12005
   64 Bend                    11    13    14               120.10856    0.02674
   65 Bend                    11    13    22               119.54355    0.10875
   66 Bend                    12    11    13               119.57903    0.45927
   67 Bend                    13    14    15               119.13567    0.07122
   68 Bend                    13    14    23               120.79148    0.11726
   69 Bend                    14    13    22               120.34789   -0.13548
   70 Bend                    14    15    24               119.87608    0.19805
   71 Bend                    15    14    23               120.07284   -0.18848
   72 Bend                    21     8    25               109.10899    6.34093
   73 Torsion                  1     2     3     4           0.00000    0.00000
   74 Torsion                  1     2     3     7         180.00000    0.00000
   75 Torsion                  1     6     5     4           0.00000    0.00000
   76 Torsion                  1     6     5    19         180.00000    0.00000
   77 Torsion                  2     1     6     5           0.00000    0.00000
   78 Torsion                  2     1     6    20         180.00000    0.00000
   79 Torsion                  2     3     4     5           0.00000    0.00000
   80 Torsion                  2     3     4     8         180.00000    0.00000
   81 Torsion                  2     3     7    10         180.00000    0.00000
   82 Torsion                  2     3     7    16           0.00000    0.00000
   83 Torsion                  3     2     1     6           0.00000    0.00000
   84 Torsion                  3     2     1    17         180.00000    0.00000
   85 Torsion                  3     4     5     6          -0.00000    0.00000
   86 Torsion                  3     4     5    19         180.00000    0.00000
   87 Torsion                  3     4     8     9           0.00000    0.00000
   88 Torsion                  3     4     8    21         121.08742   -3.14045
   89 Torsion                  3     4     8    25        -121.08742    3.14045
   90 Torsion                  3     7    10     9           0.00000    0.00000
   91 Torsion                  3     7    10    11         180.00000    0.00000
   92 Torsion                  4     3     2    18         180.00000    0.00000
   93 Torsion                  4     3     7    10           0.00000    0.00000
   94 Torsion                  4     3     7    16         180.00000    0.00000
   95 Torsion                  4     5     6    20         180.00000    0.00000
   96 Torsion                  4     8     9    10           0.00000    0.00000
   97 Torsion                  4     8     9    15         180.00000    0.00000
   98 Torsion                  5     4     3     7         180.00000    0.00000
   99 Torsion                  5     4     8     9         180.00000    0.00000
  100 Torsion                  5     4     8    21         -58.91258   -3.14045
  101 Torsion                  5     4     8    25          58.91258    3.14045
  102 Torsion                  5     6     1    17         180.00000    0.00000
  103 Torsion                  6     1     2    18         180.00000    0.00000
  104 Torsion                  6     5     4     8         180.00000    0.00000
  105 Torsion                  7     3     2    18           0.00000    0.00000
  106 Torsion                  7     3     4     8           0.00000    0.00000
  107 Torsion                  7    10     9     8           0.00000    0.00000
  108 Torsion                  7    10     9    15         180.00000    0.00000
  109 Torsion                  7    10    11    12           0.00000    0.00000
  110 Torsion                  7    10    11    13         180.00000    0.00000
  111 Torsion                  8     4     5    19           0.00000    0.00000
  112 Torsion                  8     9    10    11         180.00000    0.00000
  113 Torsion                  8     9    15    14         180.00000    0.00000
  114 Torsion                  8     9    15    24           0.00000    0.00000
  115 Torsion                  9    10     7    16         180.00000    0.00000
  116 Torsion                  9    10    11    12         180.00000    0.00000
  117 Torsion                  9    10    11    13          -0.00000    0.00000
  118 Torsion                  9    15    14    13           0.00000    0.00000
  119 Torsion                  9    15    14    23         180.00000    0.00000
  120 Torsion                 10     9     8    21        -121.08742    3.14045
  121 Torsion                 10     9     8    25         121.08742   -3.14045
  122 Torsion                 10     9    15    14           0.00000    0.00000
  123 Torsion                 10     9    15    24         180.00000    0.00000
  124 Torsion                 10    11    13    14           0.00000    0.00000
  125 Torsion                 10    11    13    22         180.00000    0.00000
  126 Torsion                 11    10     7    16           0.00000    0.00000
  127 Torsion                 11    10     9    15           0.00000    0.00000
  128 Torsion                 11    13    14    15           0.00000    0.00000
  129 Torsion                 11    13    14    23         180.00000    0.00000
  130 Torsion                 12    11    13    14         180.00000    0.00000
  131 Torsion                 12    11    13    22           0.00000    0.00000
  132 Torsion                 13    14    15    24         180.00000    0.00000
  133 Torsion                 15     9     8    21          58.91258    3.14045
  134 Torsion                 15     9     8    25         -58.91258   -3.14045
  135 Torsion                 15    14    13    22         180.00000    0.00000
  136 Torsion                 17     1     2    18           0.00000    0.00000
  137 Torsion                 17     1     6    20           0.00000    0.00000
  138 Torsion                 19     5     6    20           0.00000    0.00000
  139 Torsion                 22    13    14    23           0.00000    0.00000
  140 Torsion                 23    14    15    24           0.00000    0.00000

 ==============================================================================
                                internuclear distances
 ------------------------------------------------------------------------------
       center one      |      center two      | atomic units |  angstroms
 ------------------------------------------------------------------------------
    2 C                |   1 C                |     2.67108  |     1.41348
    3 C                |   2 C                |     2.66784  |     1.41176
    4 C                |   3 C                |     2.67580  |     1.41597
    5 C                |   4 C                |     2.68763  |     1.42223
    6 C                |   1 C                |     2.64315  |     1.39870
    6 C                |   5 C                |     2.64817  |     1.40135
    7 C                |   3 C                |     2.71666  |     1.43759
    8 C                |   4 C                |     2.84286  |     1.50438
    9 C                |   8 C                |     2.84286  |     1.50438
   10 C                |   7 C                |     2.71666  |     1.43759
   10 C                |   9 C                |     2.67580  |     1.41597
   11 C                |  10 C                |     2.66784  |     1.41176
   12 H                |  11 C                |     2.05106  |     1.08537
   13 C                |  11 C                |     2.67108  |     1.41348
   14 C                |  13 C                |     2.64315  |     1.39870
   15 C                |   9 C                |     2.68763  |     1.42223
   15 C                |  14 C                |     2.64817  |     1.40135
   16 H                |   7 C                |     2.04689  |     1.08317
   17 H                |   1 C                |     2.04841  |     1.08397
   18 H                |   2 C                |     2.05106  |     1.08537
   19 H                |   5 C                |     2.05133  |     1.08552
   20 H                |   6 C                |     2.04676  |     1.08310
   21 H                |   8 C                |     2.08743  |     1.10462
   22 H                |  13 C                |     2.04841  |     1.08397
   23 H                |  14 C                |     2.04676  |     1.08310
   24 H                |  15 C                |     2.05133  |     1.08552
   25 H                |   8 C                |     2.08743  |     1.10462
 ------------------------------------------------------------------------------
                         number of included internuclear distances:         27
 ==============================================================================



 ==============================================================================
                                 internuclear angles
 ------------------------------------------------------------------------------
        center 1       |       center 2       |       center 3       |  degrees
 ------------------------------------------------------------------------------
    2 C                |   1 C                |   6 C                |   120.11
    2 C                |   1 C                |  17 H                |   119.54
    6 C                |   1 C                |  17 H                |   120.35
    1 C                |   2 C                |   3 C                |   121.55
    1 C                |   2 C                |  18 H                |   119.58
    3 C                |   2 C                |  18 H                |   118.87
    2 C                |   3 C                |   4 C                |   118.12
    2 C                |   3 C                |   7 C                |   121.58
    4 C                |   3 C                |   7 C                |   120.30
    3 C                |   4 C                |   5 C                |   119.89
    3 C                |   4 C                |   8 C                |   121.23
    5 C                |   4 C                |   8 C                |   118.89
    4 C                |   5 C                |   6 C                |   121.20
    4 C                |   5 C                |  19 H                |   118.93
    6 C                |   5 C                |  19 H                |   119.88
    1 C                |   6 C                |   5 C                |   119.14
    1 C                |   6 C                |  20 H                |   120.79
    5 C                |   6 C                |  20 H                |   120.07
    3 C                |   7 C                |  10 C                |   121.17
    3 C                |   7 C                |  16 H                |   119.42
   10 C                |   7 C                |  16 H                |   119.42
    4 C                |   8 C                |   9 C                |   115.77
    4 C                |   8 C                |  21 H                |   107.96
    4 C                |   8 C                |  25 H                |   107.96
    9 C                |   8 C                |  21 H                |   107.96
    9 C                |   8 C                |  25 H                |   107.96
   21 H                |   8 C                |  25 H                |   109.11
    8 C                |   9 C                |  10 C                |   121.23
    8 C                |   9 C                |  15 C                |   118.89
   10 C                |   9 C                |  15 C                |   119.89
    7 C                |  10 C                |   9 C                |   120.30
    7 C                |  10 C                |  11 C                |   121.58
    9 C                |  10 C                |  11 C                |   118.12
   10 C                |  11 C                |  12 H                |   118.87
   10 C                |  11 C                |  13 C                |   121.55
   12 H                |  11 C                |  13 C                |   119.58
   11 C                |  13 C                |  14 C                |   120.11
   11 C                |  13 C                |  22 H                |   119.54
   14 C                |  13 C                |  22 H                |   120.35
   13 C                |  14 C                |  15 C                |   119.14
   13 C                |  14 C                |  23 H                |   120.79
   15 C                |  14 C                |  23 H                |   120.07
    9 C                |  15 C                |  14 C                |   121.20
    9 C                |  15 C                |  24 H                |   118.93
   14 C                |  15 C                |  24 H                |   119.88
 ------------------------------------------------------------------------------
                            number of included internuclear angles:         45
 ==============================================================================



 ------------------------------------------------------------------------
 tddft saddle failed                                                                                0
 ------------------------------------------------------------------------
 ------------------------------------------------------------------------
  current input line : 
    58: task tddft saddle
 ------------------------------------------------------------------------
 ------------------------------------------------------------------------
 This type of error is most commonly associated with calculations not reaching convergence criteria
 ------------------------------------------------------------------------
 For more information see the NWChem manual at http://www.nwchem-sw.org/index.php/NWChem_Documentation


 For further details see manual section:                                                                                                                                                                                                                                                                
--------------------------------------------------------------------------
MPI_ABORT was invoked on rank 0 in communicator MPI COMMUNICATOR 3 DUP FROM 0
with errorcode -1.

NOTE: invoking MPI_ABORT causes Open MPI to kill all MPI processes.
You may or may not see output from other processes, depending on
exactly when Open MPI kills them.
--------------------------------------------------------------------------
