 Entering Link 1 = C:\G09Wa\l1.exe PID=      4452.
  
 Copyright (c) 1988,1990,1992,1993,1995,1998,2003,2009, Gaussian, Inc.
                  All Rights Reserved.
  
 This is part of the Gaussian(R) 09 program.  It is based on
 the Gaussian(R) 03 system (copyright 2003, Gaussian, Inc.),
 the Gaussian(R) 98 system (copyright 1998, Gaussian, Inc.),
 the Gaussian(R) 94 system (copyright 1995, Gaussian, Inc.),
 the Gaussian 92(TM) system (copyright 1992, Gaussian, Inc.),
 the Gaussian 90(TM) system (copyright 1990, Gaussian, Inc.),
 the Gaussian 88(TM) system (copyright 1988, Gaussian, Inc.),
 the Gaussian 86(TM) system (copyright 1986, Carnegie Mellon
 University), and the Gaussian 82(TM) system (copyright 1983,
 Carnegie Mellon University). Gaussian is a federally registered
 trademark of Gaussian, Inc.
  
 This software contains proprietary and confidential information,
 including trade secrets, belonging to Gaussian, Inc.
  
 This software is provided under written license and may be
 used, copied, transmitted, or stored only in accord with that
 written license.
  
 The following legend is applicable only to US Government
 contracts under FAR:
  
                    RESTRICTED RIGHTS LEGEND
  
 Use, reproduction and disclosure by the US Government is
 subject to restrictions as set forth in subparagraphs (a)
 and (c) of the Commercial Computer Software - Restricted
 Rights clause in FAR 52.227-19.
  
 Gaussian, Inc.
 340 Quinnipiac St., Bldg. 40, Wallingford CT 06492
  
  
 ---------------------------------------------------------------
 Warning -- This program may not be used in any manner that
 competes with the business of Gaussian, Inc. or will provide
 assistance to any competitor of Gaussian, Inc.  The licensee
 of this program is prohibited from giving any competitor of
 Gaussian, Inc. access to this program.  By using this program,
 the user acknowledges that Gaussian, Inc. is engaged in the
 business of creating and licensing software in the field of
 computational chemistry and represents and warrants to the
 licensee that it is not a competitor of Gaussian, Inc. and that
 it will not use this program in any manner prohibited above.
 ---------------------------------------------------------------
  

 Cite this work as:
 Gaussian 09, Revision A.02,
 M. J. Frisch, G. W. Trucks, H. B. Schlegel, G. E. Scuseria, 
 M. A. Robb, J. R. Cheeseman, G. Scalmani, V. Barone, B. Mennucci, 
 G. A. Petersson, H. Nakatsuji, M. Caricato, X. Li, H. P. Hratchian, 
 A. F. Izmaylov, J. Bloino, G. Zheng, J. L. Sonnenberg, M. Hada, 
 M. Ehara, K. Toyota, R. Fukuda, J. Hasegawa, M. Ishida, T. Nakajima, 
 Y. Honda, O. Kitao, H. Nakai, T. Vreven, J. A. Montgomery, Jr., 
 J. E. Peralta, F. Ogliaro, M. Bearpark, J. J. Heyd, E. Brothers, 
 K. N. Kudin, V. N. Staroverov, R. Kobayashi, J. Normand, 
 K. Raghavachari, A. Rendell, J. C. Burant, S. S. Iyengar, J. Tomasi, 
 M. Cossi, N. Rega, J. M. Millam, M. Klene, J. E. Knox, J. B. Cross, 
 V. Bakken, C. Adamo, J. Jaramillo, R. Gomperts, R. E. Stratmann, 
 O. Yazyev, A. J. Austin, R. Cammi, C. Pomelli, J. W. Ochterski, 
 R. L. Martin, K. Morokuma, V. G. Zakrzewski, G. A. Voth, 
 P. Salvador, J. J. Dannenberg, S. Dapprich, A. D. Daniels, 
 O. Farkas, J. B. Foresman, J. V. Ortiz, J. Cioslowski, 
 and D. J. Fox, Gaussian, Inc., Wallingford CT, 2009.
 
 ******************************************
 Gaussian 09:  IA32W-G09RevA.02 11-Jun-2009
                21-Jan-2015 
 ******************************************
 %chk=opt9-h-an-cat.chk
 ----------------------------
 #B3LYP/6-311+G(d,p) opt freq
 ----------------------------
 1/14=-1,18=20,19=15,26=3,38=1/1,3;
 2/9=110,12=2,17=6,18=5,40=1/2;
 3/5=4,6=6,7=111,11=2,16=1,25=1,30=1,71=1,74=-5/1,2,3;
 4//1;
 5/5=2,38=5/2;
 6/7=2,8=2,9=2,10=2,28=1/1;
 7//1,2,3,16;
 1/14=-1,18=20,19=15/3(2);
 2/9=110/2;
 99//99;
 2/9=110/2;
 3/5=4,6=6,7=111,11=2,16=1,25=1,30=1,71=1,74=-5/1,2,3;
 4/5=5,16=3/1;
 5/5=2,38=5/2;
 7//1,2,3,16;
 1/14=-1,18=20,19=15/3(-5);
 2/9=110/2;
 6/7=2,8=2,9=2,10=2,19=2,28=1/1;
 99/9=1/99;
 -------------------
 cation ground state
 -------------------
 Symbolic Z-matrix:
 Charge =  1 Multiplicity = 1
 C                    -5.06472  -2.73454   0.01339 
 C                    -3.68167  -2.70711   0.00161 
 C                    -2.97283  -1.48048  -0.02271 
 C                    -3.71247  -0.26771  -0.03828 
 C                    -5.10404  -0.31881  -0.0229 
 C                    -5.78616  -1.53494   0.00278 
 C                    -1.55022  -1.44972  -0.02537 
 C                    -3.00101   1.06695  -0.08326 
 C                    -1.48927   1.01382  -0.04421 
 C                    -0.81061  -0.23409  -0.02523 
 C                     0.60609  -0.23556  -0.00132 
 H                     1.12581  -1.18792   0.01429 
 C                     1.3233    0.94733   0.00368 
 C                     0.64705   2.17287  -0.01393 
 C                    -0.74723   2.19225  -0.03731 
 H                    -1.00841  -2.38938  -0.01302 
 H                    -5.58845  -3.68357   0.03215 
 H                    -3.118    -3.6342    0.01207 
 H                    -5.66832   0.6091   -0.03264 
 H                    -6.86978  -1.54894   0.01423 
 H                    -3.31139   1.60101  -0.99217 
 H                     2.40702   0.92467   0.02237 
 H                     1.20248   3.10348  -0.00931 
 H                    -1.26724   3.14566  -0.05182 
 H                    -3.35811   1.69065   0.74677 
 

 GradGradGradGradGradGradGradGradGradGradGradGradGradGradGradGradGradGrad
 Berny optimization.
 Initialization pass.
                           ----------------------------
                           !    Initial Parameters    !
                           ! (Angstroms and Degrees)  !
 --------------------------                            --------------------------
 ! Name  Definition              Value          Derivative Info.                !
 --------------------------------------------------------------------------------
 ! R1    R(1,2)                  1.3834         estimate D2E/DX2                !
 ! R2    R(1,6)                  1.3999         estimate D2E/DX2                !
 ! R3    R(1,17)                 1.0841         estimate D2E/DX2                !
 ! R4    R(2,3)                  1.4169         estimate D2E/DX2                !
 ! R5    R(2,18)                 1.085          estimate D2E/DX2                !
 ! R6    R(3,4)                  1.4206         estimate D2E/DX2                !
 ! R7    R(3,7)                  1.4229         estimate D2E/DX2                !
 ! R8    R(4,5)                  1.3926         estimate D2E/DX2                !
 ! R9    R(4,8)                  1.5131         estimate D2E/DX2                !
 ! R10   R(5,6)                  1.3946         estimate D2E/DX2                !
 ! R11   R(5,19)                 1.0861         estimate D2E/DX2                !
 ! R12   R(6,20)                 1.0838         estimate D2E/DX2                !
 ! R13   R(7,10)                 1.4229         estimate D2E/DX2                !
 ! R14   R(7,16)                 1.0848         estimate D2E/DX2                !
 ! R15   R(8,9)                  1.5132         estimate D2E/DX2                !
 ! R16   R(8,21)                 1.0989         estimate D2E/DX2                !
 ! R17   R(8,25)                 1.0979         estimate D2E/DX2                !
 ! R18   R(9,10)                 1.4206         estimate D2E/DX2                !
 ! R19   R(9,15)                 1.3926         estimate D2E/DX2                !
 ! R20   R(10,11)                1.4169         estimate D2E/DX2                !
 ! R21   R(11,12)                1.085          estimate D2E/DX2                !
 ! R22   R(11,13)                1.3833         estimate D2E/DX2                !
 ! R23   R(13,14)                1.3999         estimate D2E/DX2                !
 ! R24   R(13,22)                1.0841         estimate D2E/DX2                !
 ! R25   R(14,15)                1.3946         estimate D2E/DX2                !
 ! R26   R(14,23)                1.0838         estimate D2E/DX2                !
 ! R27   R(15,24)                1.0861         estimate D2E/DX2                !
 ! A1    A(2,1,6)              119.8802         estimate D2E/DX2                !
 ! A2    A(2,1,17)             120.0321         estimate D2E/DX2                !
 ! A3    A(6,1,17)             120.0877         estimate D2E/DX2                !
 ! A4    A(1,2,3)              121.1624         estimate D2E/DX2                !
 ! A5    A(1,2,18)             120.1556         estimate D2E/DX2                !
 ! A6    A(3,2,18)             118.6819         estimate D2E/DX2                !
 ! A7    A(2,3,4)              118.6048         estimate D2E/DX2                !
 ! A8    A(2,3,7)              121.2588         estimate D2E/DX2                !
 ! A9    A(4,3,7)              120.1358         estimate D2E/DX2                !
 ! A10   A(3,4,5)              119.2631         estimate D2E/DX2                !
 ! A11   A(3,4,8)              120.566          estimate D2E/DX2                !
 ! A12   A(5,4,8)              120.1688         estimate D2E/DX2                !
 ! A13   A(4,5,6)              121.3965         estimate D2E/DX2                !
 ! A14   A(4,5,19)             119.1918         estimate D2E/DX2                !
 ! A15   A(6,5,19)             119.4116         estimate D2E/DX2                !
 ! A16   A(1,6,5)              119.6923         estimate D2E/DX2                !
 ! A17   A(1,6,20)             120.2746         estimate D2E/DX2                !
 ! A18   A(5,6,20)             120.0332         estimate D2E/DX2                !
 ! A19   A(3,7,10)             122.5559         estimate D2E/DX2                !
 ! A20   A(3,7,16)             118.7251         estimate D2E/DX2                !
 ! A21   A(10,7,16)            118.7133         estimate D2E/DX2                !
 ! A22   A(4,8,9)              115.9772         estimate D2E/DX2                !
 ! A23   A(4,8,21)             108.6901         estimate D2E/DX2                !
 ! A24   A(4,8,25)             109.006          estimate D2E/DX2                !
 ! A25   A(9,8,21)             108.6977         estimate D2E/DX2                !
 ! A26   A(9,8,25)             108.9882         estimate D2E/DX2                !
 ! A27   A(21,8,25)            104.9113         estimate D2E/DX2                !
 ! A28   A(8,9,10)             120.5604         estimate D2E/DX2                !
 ! A29   A(8,9,15)             120.1822         estimate D2E/DX2                !
 ! A30   A(10,9,15)            119.2554         estimate D2E/DX2                !
 ! A31   A(7,10,9)             120.1408         estimate D2E/DX2                !
 ! A32   A(7,10,11)            121.2529         estimate D2E/DX2                !
 ! A33   A(9,10,11)            118.6059         estimate D2E/DX2                !
 ! A34   A(10,11,12)           118.6895         estimate D2E/DX2                !
 ! A35   A(10,11,13)           121.1689         estimate D2E/DX2                !
 ! A36   A(12,11,13)           120.1415         estimate D2E/DX2                !
 ! A37   A(11,13,14)           119.8747         estimate D2E/DX2                !
 ! A38   A(11,13,22)           120.0305         estimate D2E/DX2                !
 ! A39   A(14,13,22)           120.0948         estimate D2E/DX2                !
 ! A40   A(13,14,15)           119.6931         estimate D2E/DX2                !
 ! A41   A(13,14,23)           120.2724         estimate D2E/DX2                !
 ! A42   A(15,14,23)           120.0345         estimate D2E/DX2                !
 ! A43   A(9,15,14)            121.4019         estimate D2E/DX2                !
 ! A44   A(9,15,24)            119.1855         estimate D2E/DX2                !
 ! A45   A(14,15,24)           119.4125         estimate D2E/DX2                !
 ! D1    D(6,1,2,3)             -0.0731         estimate D2E/DX2                !
 ! D2    D(6,1,2,18)           179.8585         estimate D2E/DX2                !
 ! D3    D(17,1,2,3)          -179.9911         estimate D2E/DX2                !
 ! D4    D(17,1,2,18)           -0.0596         estimate D2E/DX2                !
 ! D5    D(2,1,6,5)              0.1546         estimate D2E/DX2                !
 ! D6    D(2,1,6,20)          -179.8579         estimate D2E/DX2                !
 ! D7    D(17,1,6,5)          -179.9274         estimate D2E/DX2                !
 ! D8    D(17,1,6,20)            0.0601         estimate D2E/DX2                !
 ! D9    D(1,2,3,4)             -0.1546         estimate D2E/DX2                !
 ! D10   D(1,2,3,7)            179.5525         estimate D2E/DX2                !
 ! D11   D(18,2,3,4)           179.9129         estimate D2E/DX2                !
 ! D12   D(18,2,3,7)            -0.38           estimate D2E/DX2                !
 ! D13   D(2,3,4,5)              0.3            estimate D2E/DX2                !
 ! D14   D(2,3,4,8)           -179.1703         estimate D2E/DX2                !
 ! D15   D(7,3,4,5)           -179.4106         estimate D2E/DX2                !
 ! D16   D(7,3,4,8)              1.1192         estimate D2E/DX2                !
 ! D17   D(2,3,7,10)          -178.8397         estimate D2E/DX2                !
 ! D18   D(2,3,7,16)             0.283          estimate D2E/DX2                !
 ! D19   D(4,3,7,10)             0.863          estimate D2E/DX2                !
 ! D20   D(4,3,7,16)           179.9857         estimate D2E/DX2                !
 ! D21   D(3,4,5,6)             -0.2251         estimate D2E/DX2                !
 ! D22   D(3,4,5,19)           179.8678         estimate D2E/DX2                !
 ! D23   D(8,4,5,6)            179.2472         estimate D2E/DX2                !
 ! D24   D(8,4,5,19)            -0.6598         estimate D2E/DX2                !
 ! D25   D(3,4,8,9)             -2.7531         estimate D2E/DX2                !
 ! D26   D(3,4,8,21)           120.018          estimate D2E/DX2                !
 ! D27   D(3,4,8,25)          -126.1639         estimate D2E/DX2                !
 ! D28   D(5,4,8,9)            177.7815         estimate D2E/DX2                !
 ! D29   D(5,4,8,21)           -59.4474         estimate D2E/DX2                !
 ! D30   D(5,4,8,25)            54.3707         estimate D2E/DX2                !
 ! D31   D(4,5,6,1)             -0.0039         estimate D2E/DX2                !
 ! D32   D(4,5,6,20)          -179.9914         estimate D2E/DX2                !
 ! D33   D(19,5,6,1)           179.9029         estimate D2E/DX2                !
 ! D34   D(19,5,6,20)           -0.0846         estimate D2E/DX2                !
 ! D35   D(3,7,10,9)            -1.0188         estimate D2E/DX2                !
 ! D36   D(3,7,10,11)          178.7416         estimate D2E/DX2                !
 ! D37   D(16,7,10,9)          179.8584         estimate D2E/DX2                !
 ! D38   D(16,7,10,11)          -0.3812         estimate D2E/DX2                !
 ! D39   D(4,8,9,10)             2.6008         estimate D2E/DX2                !
 ! D40   D(4,8,9,15)          -177.9148         estimate D2E/DX2                !
 ! D41   D(21,8,9,10)         -120.1663         estimate D2E/DX2                !
 ! D42   D(21,8,9,15)           59.3181         estimate D2E/DX2                !
 ! D43   D(25,8,9,10)          126.0209         estimate D2E/DX2                !
 ! D44   D(25,8,9,15)          -54.4947         estimate D2E/DX2                !
 ! D45   D(8,9,10,7)            -0.8144         estimate D2E/DX2                !
 ! D46   D(8,9,10,11)          179.4189         estimate D2E/DX2                !
 ! D47   D(15,9,10,7)          179.6965         estimate D2E/DX2                !
 ! D48   D(15,9,10,11)          -0.0702         estimate D2E/DX2                !
 ! D49   D(8,9,15,14)         -179.4066         estimate D2E/DX2                !
 ! D50   D(8,9,15,24)            0.5103         estimate D2E/DX2                !
 ! D51   D(10,9,15,14)           0.0845         estimate D2E/DX2                !
 ! D52   D(10,9,15,24)        -179.9986         estimate D2E/DX2                !
 ! D53   D(7,10,11,12)           0.17           estimate D2E/DX2                !
 ! D54   D(7,10,11,13)        -179.7624         estimate D2E/DX2                !
 ! D55   D(9,10,11,12)         179.934          estimate D2E/DX2                !
 ! D56   D(9,10,11,13)           0.0016         estimate D2E/DX2                !
 ! D57   D(10,11,13,14)          0.0545         estimate D2E/DX2                !
 ! D58   D(10,11,13,22)        179.9839         estimate D2E/DX2                !
 ! D59   D(12,11,13,14)       -179.8769         estimate D2E/DX2                !
 ! D60   D(12,11,13,22)          0.0525         estimate D2E/DX2                !
 ! D61   D(11,13,14,15)         -0.0415         estimate D2E/DX2                !
 ! D62   D(11,13,14,23)        179.9494         estimate D2E/DX2                !
 ! D63   D(22,13,14,15)       -179.9709         estimate D2E/DX2                !
 ! D64   D(22,13,14,23)          0.0201         estimate D2E/DX2                !
 ! D65   D(13,14,15,9)          -0.0286         estimate D2E/DX2                !
 ! D66   D(13,14,15,24)       -179.9453         estimate D2E/DX2                !
 ! D67   D(23,14,15,9)         179.9804         estimate D2E/DX2                !
 ! D68   D(23,14,15,24)          0.0637         estimate D2E/DX2                !
 --------------------------------------------------------------------------------
 Trust Radius=3.00D-01 FncErr=1.00D-07 GrdErr=1.00D-06
 Number of steps in this run= 150 maximum allowed number of steps= 150.
 GradGradGradGradGradGradGradGradGradGradGradGradGradGradGradGradGradGrad

                          Input orientation:                          
 ---------------------------------------------------------------------
 Center     Atomic      Atomic             Coordinates (Angstroms)
 Number     Number       Type             X           Y           Z
 ---------------------------------------------------------------------
      1          6           0       -5.064723   -2.734536    0.013388
      2          6           0       -3.681673   -2.707108    0.001606
      3          6           0       -2.972826   -1.480481   -0.022713
      4          6           0       -3.712469   -0.267709   -0.038282
      5          6           0       -5.104039   -0.318811   -0.022895
      6          6           0       -5.786158   -1.534941    0.002782
      7          6           0       -1.550218   -1.449715   -0.025369
      8          6           0       -3.001007    1.066948   -0.083261
      9          6           0       -1.489272    1.013819   -0.044213
     10          6           0       -0.810611   -0.234093   -0.025233
     11          6           0        0.606092   -0.235561   -0.001317
     12          1           0        1.125807   -1.187917    0.014295
     13          6           0        1.323305    0.947328    0.003684
     14          6           0        0.647045    2.172871   -0.013932
     15          6           0       -0.747233    2.192249   -0.037311
     16          1           0       -1.008410   -2.389385   -0.013019
     17          1           0       -5.588453   -3.683569    0.032145
     18          1           0       -3.117996   -3.634195    0.012070
     19          1           0       -5.668323    0.609105   -0.032637
     20          1           0       -6.869777   -1.548937    0.014231
     21          1           0       -3.311390    1.601014   -0.992166
     22          1           0        2.407016    0.924668    0.022372
     23          1           0        1.202479    3.103475   -0.009313
     24          1           0       -1.267240    3.145658   -0.051816
     25          1           0       -3.358108    1.690654    0.746769
 ---------------------------------------------------------------------
                    Distance matrix (angstroms):
                    1          2          3          4          5
     1  C    0.000000
     2  C    1.383372   0.000000
     3  C    2.439260   1.416922   0.000000
     4  C    2.813627   2.439920   1.420609   0.000000
     5  C    2.416317   2.779872   2.427250   1.392593   0.000000
     6  C    1.399860   2.408908   2.813975   2.430587   1.394603
     7  C    3.742193   2.474846   1.422943   2.464272   3.729423
     8  C    4.326608   3.835884   2.548304   1.513112   2.519269
     9  C    5.180476   4.319030   2.902228   2.566117   3.852648
    10  C    4.934691   3.789396   2.495729   2.902082   4.294265
    11  C    6.197034   4.949088   3.789318   4.318838   5.710778
    12  H    6.380806   5.041821   4.109228   4.925288   6.290287
    13  C    7.373135   6.197153   4.934744   5.180453   6.550921
    14  C    7.530450   6.523207   5.143007   4.996237   6.267657
    15  C    6.551069   5.711055   4.294465   3.852794   5.028657
    16  H    4.071056   2.692117   2.164516   3.437162   4.589286
    17  H    1.084117   2.142480   3.420250   3.897740   3.399895
    18  H    2.144559   1.085050   2.158882   3.418942   3.864888
    19  H    3.397997   3.865905   3.410597   2.143409   1.086066
    20  H    2.159598   3.391980   3.897727   3.407770   2.152305
    21  H    4.783546   4.436734   3.248089   2.136091   2.799787
    22  H    8.319659   7.089595   5.893172   6.234865   7.613425
    23  H    8.565086   7.590648   6.200484   5.960070   7.175263
    24  H    7.000129   6.331446   4.930622   4.198857   5.169566
    25  H    4.799238   4.472166   3.285824   2.139406   2.771030
                    6          7          8          9         10
     6  C    0.000000
     7  C    4.236891   0.000000
     8  C    3.812387   2.905466   0.000000
     9  C    4.996161   2.464360   1.513173   0.000000
    10  C    5.142866   1.422940   2.548315   1.420642   0.000000
    11  C    6.522980   2.474756   3.835936   2.439946   1.416905
    12  H    6.920681   2.689093   4.703672   3.419021   2.158948
    13  C    7.530347   3.742164   4.326840   2.813770   2.439301
    14  C    7.425244   4.236889   3.812631   2.430672   2.813959
    15  C    6.267721   3.729455   2.519507   1.392612   2.427200
    16  H    4.853576   1.084752   3.990189   3.437150   2.164384
    17  H    2.157905   4.615274   5.410694   6.234948   5.893213
    18  H    3.395003   2.689104   4.703565   4.925439   4.109272
    19  H    2.147573   4.604084   2.706799   4.198619   4.930356
    20  H    1.083769   5.320632   4.671160   5.959947   6.200312
    21  H    4.116870   3.652859   1.098942   2.136242   3.249073
    22  H    8.554424   4.615157   5.410926   3.897876   3.420250
    23  H    8.387854   5.320633   4.671424   3.407844   3.897710
    24  H    6.506275   4.604154   2.707023   2.143384   3.410562
    25  H    4.105290   3.704940   1.097943   2.139231   3.284871
                   11         12         13         14         15
    11  C    0.000000
    12  H    1.085049   0.000000
    13  C    1.383346   2.144386   0.000000
    14  C    2.408814   3.394836   1.399855   0.000000
    15  C    2.779757   3.864773   2.416327   1.394608   0.000000
    16  H    2.691786   2.449317   4.070728   4.853320   4.589137
    17  H    7.089588   7.163092   8.319761   8.554616   7.613638
    18  H    5.041797   4.898382   6.380876   6.920855   6.290502
    19  H    6.331092   7.027923   6.999899   6.506120   5.169478
    20  H    7.590376   8.003730   8.564931   8.387804   7.175282
    21  H    4.438632   5.336649   4.785334   4.117423   2.799323
    22  H    2.142433   2.470744   1.084109   2.157969   3.399943
    23  H    3.391888   4.292143   2.159569   1.083768   2.152322
    24  H    3.865820   4.950851   3.398037   2.147612   1.086097
    25  H    4.470438   5.378493   4.797951   4.105174   2.771831
                   16         17         18         19         20
    16  H    0.000000
    17  H    4.759595   0.000000
    18  H    2.449599   2.471032   0.000000
    19  H    5.541310   4.293906   4.950936   0.000000
    20  H    5.921378   2.489733   4.292338   2.470390   0.000000
    21  H    4.710173   5.844746   5.334165   2.731248   4.857689
    22  H    4.759132   9.228405   7.163037   8.081690   9.600920
    23  H    5.921111   9.601169   8.003947   7.309607   9.317017
    24  H    5.541227   8.081972   7.028214   5.079764   7.309720
    25  H    4.769179   5.862371   5.380655   2.667268   4.833568
                   21         22         23         24         25
    21  H    0.000000
    22  H    5.846957   0.000000
    23  H    4.857819   2.489803   0.000000
    24  H    2.729237   4.294003   2.470445   0.000000
    25  H    1.741871   5.860729   4.833909   2.669552   0.000000
 Stoichiometry    C14H11(1+)
 Framework group  C1[X(C14H11)]
 Deg. of freedom    69
 Full point group                 C1      NOp   1
 Largest Abelian subgroup         C1      NOp   1
 Largest concise Abelian subgroup C1      NOp   1
                         Standard orientation:                         
 ---------------------------------------------------------------------
 Center     Atomic      Atomic             Coordinates (Angstroms)
 Number     Number       Type             X           Y           Z
 ---------------------------------------------------------------------
      1          6           0       -3.686582    0.754875   -0.017056
      2          6           0       -2.474605    1.421551    0.002324
      3          6           0       -1.247889    0.712541    0.014116
      4          6           0       -1.283061   -0.707624    0.008999
      5          6           0       -2.514248   -1.357992   -0.013714
      6          6           0       -3.712569   -0.644710   -0.026852
      7          6           0        0.000011    1.396211    0.024554
      8          6           0       -0.000095   -1.509214    0.040001
      9          6           0        1.283055   -0.707754    0.010389
     10          6           0        1.247840    0.712451    0.012220
     11          6           0        2.474479    1.421484   -0.003509
     12          1           0        2.449152    2.506237   -0.003228
     13          6           0        3.686552    0.754969   -0.020392
     14          6           0        3.712675   -0.644639   -0.023271
     15          6           0        2.514406   -1.357982   -0.008192
     16          1           0        0.000165    2.480957    0.028052
     17          1           0       -4.614285    1.315765   -0.025979
     18          1           0       -2.449218    2.506290    0.007663
     19          1           0       -2.539750   -2.443742   -0.019790
     20          1           0       -4.658413   -1.173509   -0.044355
     21          1           0       -0.000705   -2.140132    0.939788
     22          1           0        4.614118    1.316010   -0.032526
     23          1           0        4.658601   -1.173391   -0.037289
     24          1           0        2.540005   -2.443776   -0.009596
     25          1           0        0.000506   -2.215708   -0.800442
 ---------------------------------------------------------------------
 Rotational constants (GHZ):      2.1087424      0.4410307      0.3655917
 Standard basis: 6-311+G(d,p) (5D, 7F)
 There are   374 symmetry adapted basis functions of A   symmetry.
 Integral buffers will be    262144 words long.
 Raffenetti 2 integral format.
 Two-electron integral symmetry is turned on.
   374 basis functions,   592 primitive gaussians,   388 cartesian basis functions
    47 alpha electrons       47 beta electrons
       nuclear repulsion energy       777.9013233998 Hartrees.
 NAtoms=   25 NActive=   25 NUniq=   25 SFac= 7.50D-01 NAtFMM=   80 NAOKFM=F Big=F
 One-electron integrals computed using PRISM.
 NBasis=   374 RedAO= T  NBF=   374
 NBsUse=   369 1.00D-06 NBFU=   369
 Harris functional with IExCor=  402 diagonalized for initial guess.
 ExpMin= 4.38D-02 ExpMax= 4.56D+03 ExpMxC= 6.82D+02 IAcc=2 IRadAn=         0 AccDes= 0.00D+00
 HarFok:  IExCor=  402 AccDes= 0.00D+00 IRadAn=         0 IDoV= 1
 ScaDFX=  1.000000  1.000000  1.000000  1.000000
 FoFCou: FMM=F IPFlag=           0 FMFlag=      100000 FMFlg1=           0
         NFxFlg=           0 DoJE=T BraDBF=F KetDBF=T FulRan=T
         Omega=  0.000000  0.000000  1.000000  0.000000  0.000000 ICntrl=     500 IOpCl=  0
         NMat0=    1 NMatS0=    1 NMatT0=    0 NMatD0=    1 NMtDS0=    0 NMtDT0=    0
         I1Cent=           4 NGrid=           0.
 Petite list used in FoFCou.
 Initial guess orbital symmetries:
       Occupied  (A) (A) (A) (A) (A) (A) (A) (A) (A) (A) (A) (A)
                 (A) (A) (A) (A) (A) (A) (A) (A) (A) (A) (A) (A)
                 (A) (A) (A) (A) (A) (A) (A) (A) (A) (A) (A) (A)
                 (A) (A) (A) (A) (A) (A) (A) (A) (A) (A) (A)
       Virtual   (A) (A) (A) (A) (A) (A) (A) (A) (A) (A) (A) (A)
                 (A) (A) (A) (A) (A) (A) (A) (A) (A) (A) (A) (A)
                 (A) (A) (A) (A) (A) (A) (A) (A) (A) (A) (A) (A)
                 (A) (A) (A) (A) (A) (A) (A) (A) (A) (A) (A) (A)
                 (A) (A) (A) (A) (A) (A) (A) (A) (A) (A) (A) (A)
                 (A) (A) (A) (A) (A) (A) (A) (A) (A) (A) (A) (A)
                 (A) (A) (A) (A) (A) (A) (A) (A) (A) (A) (A) (A)
                 (A) (A) (A) (A) (A) (A) (A) (A) (A) (A) (A) (A)
                 (A) (A) (A) (A) (A) (A) (A) (A) (A) (A) (A) (A)
                 (A) (A) (A) (A) (A) (A) (A) (A) (A) (A) (A) (A)
                 (A) (A) (A) (A) (A) (A) (A) (A) (A) (A) (A) (A)
                 (A) (A) (A) (A) (A) (A) (A) (A) (A) (A) (A) (A)
                 (A) (A) (A) (A) (A) (A) (A) (A) (A) (A) (A) (A)
                 (A) (A) (A) (A) (A) (A) (A) (A) (A) (A) (A) (A)
                 (A) (A) (A) (A) (A) (A) (A) (A) (A) (A) (A) (A)
                 (A) (A) (A) (A) (A) (A) (A) (A) (A) (A) (A) (A)
                 (A) (A) (A) (A) (A) (A) (A) (A) (A) (A) (A) (A)
                 (A) (A) (A) (A) (A) (A) (A) (A) (A) (A) (A) (A)
                 (A) (A) (A) (A) (A) (A) (A) (A) (A) (A) (A) (A)
                 (A) (A) (A) (A) (A) (A) (A) (A) (A) (A) (A) (A)
                 (A) (A) (A) (A) (A) (A) (A) (A) (A) (A) (A) (A)
                 (A) (A) (A) (A) (A) (A) (A) (A) (A) (A) (A) (A)
                 (A) (A) (A) (A) (A) (A) (A) (A) (A) (A) (A) (A)
                 (A) (A) (A) (A) (A) (A) (A) (A) (A) (A) (A) (A)
                 (A) (A) (A) (A) (A) (A) (A) (A) (A) (A) (A) (A)
                 (A) (A) (A) (A) (A) (A) (A) (A) (A) (A) (A) (A)
                 (A) (A) (A) (A) (A) (A) (A) (A) (A) (A)
 The electronic state of the initial guess is 1-A.
 Requested convergence on RMS density matrix=1.00D-08 within 128 cycles.
 Requested convergence on MAX density matrix=1.00D-06.
 Requested convergence on             energy=1.00D-06.
 No special actions if energy rises.
 SCF Done:  E(RB3LYP) =  -540.008684876     A.U. after   14 cycles
             Convg  =    0.4404D-08             -V/T =  2.0048

 **********************************************************************

            Population analysis using the SCF density.

 **********************************************************************

 Orbital symmetries:
       Occupied  (A) (A) (A) (A) (A) (A) (A) (A) (A) (A) (A) (A)
                 (A) (A) (A) (A) (A) (A) (A) (A) (A) (A) (A) (A)
                 (A) (A) (A) (A) (A) (A) (A) (A) (A) (A) (A) (A)
                 (A) (A) (A) (A) (A) (A) (A) (A) (A) (A) (A)
       Virtual   (A) (A) (A) (A) (A) (A) (A) (A) (A) (A) (A) (A)
                 (A) (A) (A) (A) (A) (A) (A) (A) (A) (A) (A) (A)
                 (A) (A) (A) (A) (A) (A) (A) (A) (A) (A) (A) (A)
                 (A) (A) (A) (A) (A) (A) (A) (A) (A) (A) (A) (A)
                 (A) (A) (A) (A) (A) (A) (A) (A) (A) (A) (A) (A)
                 (A) (A) (A) (A) (A) (A) (A) (A) (A) (A) (A) (A)
                 (A) (A) (A) (A) (A) (A) (A) (A) (A) (A) (A) (A)
                 (A) (A) (A) (A) (A) (A) (A) (A) (A) (A) (A) (A)
                 (A) (A) (A) (A) (A) (A) (A) (A) (A) (A) (A) (A)
                 (A) (A) (A) (A) (A) (A) (A) (A) (A) (A) (A) (A)
                 (A) (A) (A) (A) (A) (A) (A) (A) (A) (A) (A) (A)
                 (A) (A) (A) (A) (A) (A) (A) (A) (A) (A) (A) (A)
                 (A) (A) (A) (A) (A) (A) (A) (A) (A) (A) (A) (A)
                 (A) (A) (A) (A) (A) (A) (A) (A) (A) (A) (A) (A)
                 (A) (A) (A) (A) (A) (A) (A) (A) (A) (A) (A) (A)
                 (A) (A) (A) (A) (A) (A) (A) (A) (A) (A) (A) (A)
                 (A) (A) (A) (A) (A) (A) (A) (A) (A) (A) (A) (A)
                 (A) (A) (A) (A) (A) (A) (A) (A) (A) (A) (A) (A)
                 (A) (A) (A) (A) (A) (A) (A) (A) (A) (A) (A) (A)
                 (A) (A) (A) (A) (A) (A) (A) (A) (A) (A) (A) (A)
                 (A) (A) (A) (A) (A) (A) (A) (A) (A) (A) (A) (A)
                 (A) (A) (A) (A) (A) (A) (A) (A) (A) (A) (A) (A)
                 (A) (A) (A) (A) (A) (A) (A) (A) (A) (A) (A) (A)
                 (A) (A) (A) (A) (A) (A) (A) (A) (A) (A) (A) (A)
                 (A) (A) (A) (A) (A) (A) (A) (A) (A) (A) (A) (A)
                 (A) (A) (A) (A) (A) (A) (A) (A) (A) (A) (A) (A)
                 (A) (A) (A) (A) (A) (A) (A) (A) (A) (A)
 The electronic state is 1-A.
 Alpha  occ. eigenvalues --  -10.39741 -10.36399 -10.36399 -10.35868 -10.35866
 Alpha  occ. eigenvalues --  -10.34619 -10.34471 -10.34471 -10.34435 -10.34434
 Alpha  occ. eigenvalues --  -10.33229 -10.33228 -10.32967 -10.32967  -1.05373
 Alpha  occ. eigenvalues --   -1.02133  -0.96842  -0.95491  -0.91595  -0.90918
 Alpha  occ. eigenvalues --   -0.86836  -0.82227  -0.77855  -0.77782  -0.75601
 Alpha  occ. eigenvalues --   -0.70926  -0.68478  -0.66972  -0.62847  -0.62222
 Alpha  occ. eigenvalues --   -0.61494  -0.61275  -0.60948  -0.58264  -0.57689
 Alpha  occ. eigenvalues --   -0.57025  -0.55685  -0.53644  -0.53383  -0.53002
 Alpha  occ. eigenvalues --   -0.51163  -0.49517  -0.49496  -0.46809  -0.41927
 Alpha  occ. eigenvalues --   -0.41206  -0.40370
 Alpha virt. eigenvalues --   -0.28485  -0.17867  -0.17786  -0.16265  -0.11783
 Alpha virt. eigenvalues --   -0.11656  -0.10654  -0.09960  -0.08824  -0.07767
 Alpha virt. eigenvalues --   -0.07692  -0.07224  -0.06631  -0.05941  -0.05773
 Alpha virt. eigenvalues --   -0.05477  -0.04391  -0.04060  -0.03712  -0.02391
 Alpha virt. eigenvalues --   -0.02124  -0.01680  -0.01080  -0.00805  -0.00275
 Alpha virt. eigenvalues --    0.00192   0.00901   0.01039   0.01543   0.02085
 Alpha virt. eigenvalues --    0.02386   0.02946   0.03819   0.04093   0.04387
 Alpha virt. eigenvalues --    0.04952   0.05246   0.05924   0.06561   0.06731
 Alpha virt. eigenvalues --    0.06906   0.07452   0.07589   0.07692   0.07992
 Alpha virt. eigenvalues --    0.08171   0.08504   0.09085   0.09174   0.09874
 Alpha virt. eigenvalues --    0.09895   0.10101   0.10946   0.11235   0.12003
 Alpha virt. eigenvalues --    0.12376   0.12626   0.13073   0.13193   0.13606
 Alpha virt. eigenvalues --    0.13865   0.14352   0.15731   0.16506   0.16628
 Alpha virt. eigenvalues --    0.16755   0.17198   0.17544   0.18019   0.18514
 Alpha virt. eigenvalues --    0.19482   0.19737   0.20437   0.20646   0.22320
 Alpha virt. eigenvalues --    0.24181   0.24774   0.25881   0.28235   0.28826
 Alpha virt. eigenvalues --    0.29844   0.32531   0.33576   0.35125   0.35144
 Alpha virt. eigenvalues --    0.37217   0.37237   0.38719   0.39138   0.40167
 Alpha virt. eigenvalues --    0.40289   0.41302   0.41317   0.41433   0.41462
 Alpha virt. eigenvalues --    0.42925   0.44293   0.44468   0.45077   0.45467
 Alpha virt. eigenvalues --    0.46158   0.46885   0.47940   0.48039   0.48617
 Alpha virt. eigenvalues --    0.49023   0.49501   0.50700   0.52133   0.52256
 Alpha virt. eigenvalues --    0.53617   0.54591   0.54883   0.55433   0.55807
 Alpha virt. eigenvalues --    0.57251   0.57526   0.58050   0.59341   0.59388
 Alpha virt. eigenvalues --    0.59678   0.62294   0.62984   0.64606   0.66771
 Alpha virt. eigenvalues --    0.67812   0.69624   0.70031   0.70360   0.70695
 Alpha virt. eigenvalues --    0.71990   0.73137   0.73936   0.74397   0.75652
 Alpha virt. eigenvalues --    0.76500   0.77015   0.77433   0.78981   0.79298
 Alpha virt. eigenvalues --    0.82378   0.83510   0.83960   0.84841   0.85273
 Alpha virt. eigenvalues --    0.85722   0.87638   0.87837   0.90311   0.90904
 Alpha virt. eigenvalues --    0.91072   0.95646   0.96053   0.96531   0.96949
 Alpha virt. eigenvalues --    0.97523   0.99065   1.00473   1.01915   1.05431
 Alpha virt. eigenvalues --    1.16911   1.18892   1.19995   1.20318   1.22487
 Alpha virt. eigenvalues --    1.24588   1.27933   1.30472   1.31419   1.31449
 Alpha virt. eigenvalues --    1.34657   1.35862   1.36218   1.37583   1.38553
 Alpha virt. eigenvalues --    1.38765   1.39005   1.39430   1.41877   1.42247
 Alpha virt. eigenvalues --    1.42607   1.43975   1.47233   1.47856   1.50590
 Alpha virt. eigenvalues --    1.51592   1.51923   1.52088   1.53710   1.57191
 Alpha virt. eigenvalues --    1.59339   1.59533   1.59806   1.59869   1.62969
 Alpha virt. eigenvalues --    1.64220   1.64739   1.65126   1.69832   1.70896
 Alpha virt. eigenvalues --    1.72036   1.73867   1.76692   1.76897   1.76969
 Alpha virt. eigenvalues --    1.78416   1.78626   1.79429   1.80406   1.80531
 Alpha virt. eigenvalues --    1.80567   1.81027   1.81543   1.83848   1.87429
 Alpha virt. eigenvalues --    1.87671   1.89135   1.91529   1.94496   1.94597
 Alpha virt. eigenvalues --    1.96664   1.97933   1.99865   2.03808   2.05623
 Alpha virt. eigenvalues --    2.08642   2.09353   2.11715   2.16283   2.16953
 Alpha virt. eigenvalues --    2.19297   2.23406   2.23608   2.25605   2.27032
 Alpha virt. eigenvalues --    2.27590   2.29808   2.30690   2.36551   2.39051
 Alpha virt. eigenvalues --    2.40536   2.41120   2.46603   2.46708   2.48733
 Alpha virt. eigenvalues --    2.49697   2.50966   2.51577   2.55315   2.55827
 Alpha virt. eigenvalues --    2.56007   2.57903   2.58586   2.58772   2.60093
 Alpha virt. eigenvalues --    2.60633   2.61756   2.62369   2.63043   2.63305
 Alpha virt. eigenvalues --    2.64354   2.64544   2.66713   2.67292   2.68489
 Alpha virt. eigenvalues --    2.69751   2.72785   2.73459   2.75474   2.76150
 Alpha virt. eigenvalues --    2.79831   2.80188   2.85463   2.90803   2.93004
 Alpha virt. eigenvalues --    2.93628   2.95138   3.03119   3.05339   3.06760
 Alpha virt. eigenvalues --    3.13767   3.15125   3.18963   3.20212   3.24643
 Alpha virt. eigenvalues --    3.27259   3.27892   3.36919   3.38928   3.40824
 Alpha virt. eigenvalues --    3.41876   3.46107   3.49516   3.58911   3.60120
 Alpha virt. eigenvalues --    3.63662   3.88064   3.88342   3.88793   3.90443
 Alpha virt. eigenvalues --    3.97416   4.01740   4.03062   4.07467   4.30877
 Alpha virt. eigenvalues --    4.54551   4.67113   4.69129  23.35421  23.49982
 Alpha virt. eigenvalues --   23.73090  23.73578  23.76949  23.79712  23.82470
 Alpha virt. eigenvalues --   23.84278  23.86485  23.88577  23.94131  23.94727
 Alpha virt. eigenvalues --   24.02650  24.02800
          Condensed to atoms (all electrons):
              1          2          3          4          5          6
     1  C    5.848185   0.932097  -0.960394  -0.485779   0.444386   0.363020
     2  C    0.932097   8.687103  -1.638395  -0.897130   1.707463  -0.671502
     3  C   -0.960394  -1.638395  10.716035  -1.466859  -1.065732   0.429527
     4  C   -0.485779  -0.897130  -1.466859  13.949815  -3.881263   1.120490
     5  C    0.444386   1.707463  -1.065732  -3.881263  10.449580  -1.037430
     6  C    0.363020  -0.671502   0.429527   1.120490  -1.037430   6.566653
     7  C   -0.153139  -1.146479   1.584320  -0.490608  -0.596040   0.027313
     8  C    0.193847   0.055990  -0.143000  -0.337623  -0.071941  -0.787710
     9  C    0.042416   0.237465  -1.049631  -1.833965   1.275823  -0.447516
    10  C   -0.112932  -0.328213   1.302211  -1.049367  -1.082726   0.056271
    11  C   -0.136141  -0.789106  -0.332353   0.239975  -0.278935   0.086742
    12  H   -0.000319   0.001744   0.024529   0.007991   0.000176   0.000332
    13  C   -0.002908  -0.136064  -0.113444   0.042482  -0.084055   0.008219
    14  C    0.008190   0.086009   0.055976  -0.446777   0.110696  -0.033277
    15  C   -0.083827  -0.276539  -1.082495   1.271732  -0.258862   0.110171
    16  H    0.017392   0.039819  -0.046170  -0.025234  -0.000637   0.001142
    17  H    0.383378  -0.069232   0.063042   0.014291  -0.041273   0.001966
    18  H   -0.015145   0.367999  -0.075499  -0.028104   0.001650  -0.015174
    19  H   -0.008795  -0.008579   0.009771  -0.054174   0.383506  -0.081515
    20  H   -0.010930  -0.006270   0.002327   0.038823  -0.076096   0.400276
    21  H    0.000021   0.000381  -0.054943   0.001630   0.033284   0.010558
    22  H   -0.000004   0.000104   0.002772   0.000077   0.000166  -0.000007
    23  H    0.000011   0.000125   0.000666   0.001534  -0.000048  -0.000007
    24  H    0.000011  -0.000633   0.002812   0.020895   0.003119   0.000766
    25  H   -0.000756   0.001997  -0.043899  -0.021265   0.045474   0.014079
              7          8          9         10         11         12
     1  C   -0.153139   0.193847   0.042416  -0.112932  -0.136141  -0.000319
     2  C   -1.146479   0.055990   0.237465  -0.328213  -0.789106   0.001744
     3  C    1.584320  -0.143000  -1.049631   1.302211  -0.332353   0.024529
     4  C   -0.490608  -0.337623  -1.833965  -1.049367   0.239975   0.007991
     5  C   -0.596040  -0.071941   1.275823  -1.082726  -0.278935   0.000176
     6  C    0.027313  -0.787710  -0.447516   0.056271   0.086742   0.000332
     7  C    6.514940   0.438247  -0.495267   1.584584  -1.141845   0.065811
     8  C    0.438247   7.386554  -0.337696  -0.144264   0.056514   0.006689
     9  C   -0.495267  -0.337696  13.942594  -1.460866  -0.905727  -0.028053
    10  C    1.584584  -0.144264  -1.460866  10.730341  -1.649167  -0.075831
    11  C   -1.141845   0.056514  -0.905727  -1.649167   8.698270   0.368075
    12  H    0.065811   0.006689  -0.028053  -0.075831   0.368075   0.503773
    13  C   -0.152474   0.194169  -0.483827  -0.966388   0.935235  -0.014949
    14  C    0.025463  -0.787572   1.120672   0.428507  -0.671896  -0.015123
    15  C   -0.592419  -0.074571  -3.869883  -1.071606   1.710673   0.001633
    16  H    0.365218  -0.006429  -0.025262  -0.046241   0.039946   0.002246
    17  H    0.004337  -0.002272   0.000074   0.002772   0.000106   0.000000
    18  H    0.065853   0.006673   0.008016   0.024527   0.001728   0.000008
    19  H    0.005245   0.074589   0.020893   0.002807  -0.000634   0.000000
    20  H    0.002312   0.001569   0.001530   0.000666   0.000125   0.000000
    21  H   -0.012652   0.328315  -0.003528  -0.053797   0.000703   0.000008
    22  H    0.004311  -0.002270   0.014225   0.063110  -0.069336  -0.006433
    23  H    0.002308   0.001604   0.038843   0.002288  -0.006264  -0.000168
    24  H    0.005248   0.074802  -0.054145   0.009742  -0.008568   0.000051
    25  H   -0.015132   0.321994  -0.016026  -0.045152   0.001723   0.000010
             13         14         15         16         17         18
     1  C   -0.002908   0.008190  -0.083827   0.017392   0.383378  -0.015145
     2  C   -0.136064   0.086009  -0.276539   0.039819  -0.069232   0.367999
     3  C   -0.113444   0.055976  -1.082495  -0.046170   0.063042  -0.075499
     4  C    0.042482  -0.446777   1.271732  -0.025234   0.014291  -0.028104
     5  C   -0.084055   0.110696  -0.258862  -0.000637  -0.041273   0.001650
     6  C    0.008219  -0.033277   0.110171   0.001142   0.001966  -0.015174
     7  C   -0.152474   0.025463  -0.592419   0.365218   0.004337   0.065853
     8  C    0.194169  -0.787572  -0.074571  -0.006429  -0.002272   0.006673
     9  C   -0.483827   1.120672  -3.869883  -0.025262   0.000074   0.008016
    10  C   -0.966388   0.428507  -1.071606  -0.046241   0.002772   0.024527
    11  C    0.935235  -0.671896   1.710673   0.039946   0.000106   0.001728
    12  H   -0.014949  -0.015123   0.001633   0.002246   0.000000   0.000008
    13  C    5.849320   0.363083   0.443668   0.017407  -0.000004  -0.000321
    14  C    0.363083   6.565460  -1.032497   0.001121  -0.000007   0.000333
    15  C    0.443668  -1.032497  10.435987  -0.000611   0.000166   0.000176
    16  H    0.017407   0.001121  -0.000611   0.480211  -0.000023   0.002244
    17  H   -0.000004  -0.000007   0.000166  -0.000023   0.483987  -0.006429
    18  H   -0.000321   0.000333   0.000176   0.002244  -0.006429   0.503764
    19  H    0.000010   0.000767   0.003126   0.000008  -0.000191   0.000051
    20  H    0.000011  -0.000007  -0.000049  -0.000001  -0.006026  -0.000168
    21  H    0.000269   0.010482   0.036277   0.000053   0.000000   0.000008
    22  H    0.383485   0.001904  -0.041186  -0.000023   0.000000   0.000000
    23  H   -0.010973   0.400190  -0.075994  -0.000001   0.000000   0.000000
    24  H   -0.008826  -0.081941   0.383724   0.000008   0.000000   0.000000
    25  H   -0.001008   0.014158   0.042373   0.000042   0.000000   0.000010
             19         20         21         22         23         24
     1  C   -0.008795  -0.010930   0.000021  -0.000004   0.000011   0.000011
     2  C   -0.008579  -0.006270   0.000381   0.000104   0.000125  -0.000633
     3  C    0.009771   0.002327  -0.054943   0.002772   0.000666   0.002812
     4  C   -0.054174   0.038823   0.001630   0.000077   0.001534   0.020895
     5  C    0.383506  -0.076096   0.033284   0.000166  -0.000048   0.003119
     6  C   -0.081515   0.400276   0.010558  -0.000007  -0.000007   0.000766
     7  C    0.005245   0.002312  -0.012652   0.004311   0.002308   0.005248
     8  C    0.074589   0.001569   0.328315  -0.002270   0.001604   0.074802
     9  C    0.020893   0.001530  -0.003528   0.014225   0.038843  -0.054145
    10  C    0.002807   0.000666  -0.053797   0.063110   0.002288   0.009742
    11  C   -0.000634   0.000125   0.000703  -0.069336  -0.006264  -0.008568
    12  H    0.000000   0.000000   0.000008  -0.006433  -0.000168   0.000051
    13  C    0.000010   0.000011   0.000269   0.383485  -0.010973  -0.008826
    14  C    0.000767  -0.000007   0.010482   0.001904   0.400190  -0.081941
    15  C    0.003126  -0.000049   0.036277  -0.041186  -0.075994   0.383724
    16  H    0.000008  -0.000001   0.000053  -0.000023  -0.000001   0.000008
    17  H   -0.000191  -0.006026   0.000000   0.000000   0.000000   0.000000
    18  H    0.000051  -0.000168   0.000008   0.000000   0.000000   0.000000
    19  H    0.500551  -0.006019   0.000320   0.000000   0.000000   0.000012
    20  H   -0.006019   0.479813   0.000003   0.000000   0.000000   0.000000
    21  H    0.000320   0.000003   0.478268   0.000000   0.000003   0.000317
    22  H    0.000000   0.000000   0.000000   0.483992  -0.006025  -0.000191
    23  H    0.000000   0.000000   0.000003  -0.006025   0.479811  -0.006019
    24  H    0.000012   0.000000   0.000317  -0.000191  -0.006019   0.500551
    25  H    0.000338   0.000002  -0.022923   0.000000   0.000002   0.000341
             25
     1  C   -0.000756
     2  C    0.001997
     3  C   -0.043899
     4  C   -0.021265
     5  C    0.045474
     6  C    0.014079
     7  C   -0.015132
     8  C    0.321994
     9  C   -0.016026
    10  C   -0.045152
    11  C    0.001723
    12  H    0.000010
    13  C   -0.001008
    14  C    0.014158
    15  C    0.042373
    16  H    0.000042
    17  H    0.000000
    18  H    0.000010
    19  H    0.000338
    20  H    0.000002
    21  H   -0.022923
    22  H    0.000000
    23  H    0.000002
    24  H    0.000341
    25  H    0.483059
 Mulliken atomic charges:
              1
     1  C   -0.261885
     2  C   -0.150155
     3  C   -0.121172
     4  C    0.308414
     5  C    0.019713
     6  C   -0.123387
     7  C    0.100547
     8  C   -0.446207
     9  C    0.308842
    10  C   -0.121276
    11  C   -0.149845
    12  H    0.157800
    13  C   -0.262116
    14  C   -0.123912
    15  C    0.020834
    16  H    0.183777
    17  H    0.171338
    18  H    0.157798
    19  H    0.157914
    20  H    0.178108
    21  H    0.246944
    22  H    0.171329
    23  H    0.178114
    24  H    0.157922
    25  H    0.240560
 Sum of Mulliken atomic charges =   1.00000
 Mulliken charges with hydrogens summed into heavy atoms:
              1
     1  C   -0.090547
     2  C    0.007643
     3  C   -0.121172
     4  C    0.308414
     5  C    0.177627
     6  C    0.054721
     7  C    0.284324
     8  C    0.041297
     9  C    0.308842
    10  C   -0.121276
    11  C    0.007955
    13  C   -0.090787
    14  C    0.054202
    15  C    0.178756
 Sum of Mulliken charges with hydrogens summed into heavy atoms =   1.00000
 Electronic spatial extent (au):  <R**2>=           2879.9643
 Charge=              1.0000 electrons
 Dipole moment (field-independent basis, Debye):
    X=              0.0000    Y=              0.0847    Z=              0.0206  Tot=              0.0872
 Quadrupole moment (field-independent basis, Debye-Ang):
   XX=            -30.7791   YY=            -57.3033   ZZ=            -83.4663
   XY=              0.0010   XZ=              0.0016   YZ=              0.0014
 Traceless Quadrupole moment (field-independent basis, Debye-Ang):
   XX=             26.4038   YY=             -0.1204   ZZ=            -26.2834
   XY=              0.0010   XZ=              0.0016   YZ=              0.0014
 Octapole moment (field-independent basis, Debye-Ang**2):
  XXX=              0.0052  YYY=              4.4462  ZZZ=              0.3848  XYY=              0.0009
  XXY=             -3.4414  XXZ=             -2.0506  XZZ=             -0.0018  YZZ=             -3.2124
  YYZ=              0.0875  XYZ=             -0.1380
 Hexadecapole moment (field-independent basis, Debye-Ang**3):
 XXXX=          -2160.8045 YYYY=           -627.7556 ZZZZ=            -99.3503 XXXY=              0.0070
 XXXZ=              0.1138 YYYX=              0.0060 YYYZ=              0.6681 ZZZX=              0.0046
 ZZZY=             -0.6462 XXYY=           -516.7833 XXZZ=           -590.9035 YYZZ=           -147.0504
 XXYZ=              0.8012 YYXZ=             -0.0288 ZZXY=              0.0076
 N-N= 7.779013233998D+02 E-N=-2.792845001965D+03  KE= 5.374442213791D+02
 Calling FoFJK, ICntrl=      2127 FMM=F ISym2X=0 I1Cent= 0 IOpClX= 0 NMat=1 NMatS=1 NMatT=0.
 ***** Axes restored to original set *****
 -------------------------------------------------------------------
 Center     Atomic                   Forces (Hartrees/Bohr)
 Number     Number              X              Y              Z
 -------------------------------------------------------------------
      1        6           0.004551462   -0.005527922    0.000115191
      2        6          -0.001858948   -0.007378853    0.000068248
      3        6           0.008439057   -0.001568191   -0.000323443
      4        6          -0.000665048    0.012272638   -0.000675087
      5        6          -0.000966056    0.004181591   -0.000234312
      6        6           0.005499015    0.002726562   -0.000050585
      7        6          -0.009132495    0.015853130    0.000934585
      8        6           0.004577696   -0.007833573    0.001520034
      9        6          -0.010257311    0.006679800   -0.000702361
     10        6          -0.002885717   -0.008075445   -0.000206362
     11        6           0.007351125   -0.002113547    0.000002281
     12        1           0.000464205    0.000630453   -0.000044775
     13        6           0.002474914   -0.006690784    0.000170303
     14        6          -0.005109233   -0.003386271   -0.000032174
     15        6          -0.003187175    0.002952706   -0.000240907
     16        1           0.000546158   -0.000971134   -0.000153208
     17        1           0.000687631    0.000628913   -0.000002206
     18        1          -0.000800209   -0.000094607    0.000014213
     19        1           0.000443870   -0.000855991   -0.000001917
     20        1           0.000211839    0.000095903    0.000003763
     21        1           0.000105252   -0.000193190    0.000178031
     22        1          -0.000884985   -0.000270564   -0.000017240
     23        1          -0.000195121   -0.000129827    0.000022614
     24        1           0.000533919   -0.000824626    0.000037850
     25        1           0.000056152   -0.000107172   -0.000382538
 -------------------------------------------------------------------
 Cartesian Forces:  Max     0.015853130 RMS     0.004012004

 GradGradGradGradGradGradGradGradGradGradGradGradGradGradGradGradGradGrad
 Berny optimization.
 Internal  Forces:  Max     0.013482032 RMS     0.002799571
 Search for a local minimum.
 Step number   1 out of a maximum of  150
 All quantities printed in internal units (Hartrees-Bohrs-Radians)
 Mixed Optimization -- RFO/linear search
 Second derivative matrix not updated -- first step.
     Eigenvalues ---    0.00739   0.01342   0.01468   0.01598   0.01786
     Eigenvalues ---    0.01808   0.01878   0.01885   0.02056   0.02058
     Eigenvalues ---    0.02118   0.02118   0.02127   0.02128   0.02165
     Eigenvalues ---    0.02165   0.02174   0.02174   0.02218   0.02218
     Eigenvalues ---    0.03979   0.06554   0.10541   0.11376   0.15998
     Eigenvalues ---    0.16000   0.16000   0.16000   0.16000   0.16000
     Eigenvalues ---    0.16000   0.16000   0.16000   0.22000   0.22000
     Eigenvalues ---    0.22435   0.22598   0.23282   0.23896   0.24468
     Eigenvalues ---    0.24628   0.24993   0.30294   0.30707   0.33799
     Eigenvalues ---    0.33911   0.35268   0.35271   0.35391   0.35391
     Eigenvalues ---    0.35426   0.35501   0.35502   0.35543   0.35543
     Eigenvalues ---    0.37206   0.39833   0.40456   0.40912   0.41186
     Eigenvalues ---    0.41868   0.44192   0.44242   0.44962   0.44967
     Eigenvalues ---    0.46435   0.46440   0.47949   0.479551000.00000
     Eigenvalues --- 1000.000001000.000001000.000001000.000001000.00000
     Eigenvalues --- 1000.000001000.000001000.000001000.000001000.00000
     Eigenvalues --- 1000.000001000.000001000.000001000.000001000.00000
     Eigenvalues --- 1000.000001000.000001000.000001000.000001000.00000
     Eigenvalues --- 1000.000001000.000001000.000001000.000001000.00000
     Eigenvalues --- 1000.000001000.000001000.000001000.000001000.00000
     Eigenvalues --- 1000.000001000.000001000.000001000.000001000.00000
     Eigenvalues --- 1000.000001000.000001000.000001000.000001000.00000
     Eigenvalues --- 1000.000001000.000001000.000001000.000001000.00000
     Eigenvalues --- 1000.000001000.000001000.000001000.000001000.00000
     Eigenvalues --- 1000.000001000.000001000.000001000.000001000.00000
     Eigenvalues --- 1000.000001000.000001000.000001000.000001000.00000
     Eigenvalues --- 1000.000001000.000001000.000001000.000001000.00000
     Eigenvalues --- 1000.000001000.000001000.000001000.000001000.00000
 RFO step:  Lambda=-3.43000038D-03 EMin= 7.39027764D-03
 Linear search not attempted -- first point.
 Iteration  1 RMS(Cart)=  0.02518807 RMS(Int)=  0.00019413
 Iteration  2 RMS(Cart)=  0.00042452 RMS(Int)=  0.00002345
 Iteration  3 RMS(Cart)=  0.00000003 RMS(Int)=  0.00002345
 Variable       Old X    -DE/DX   Delta X   Delta X   Delta X     New X
                                 (Linear)    (Quad)   (Total)
    R1        2.61419  -0.00664   0.00000  -0.01366  -0.01365   2.60054
    R2        2.64535   0.00470   0.00000   0.00995   0.00996   2.65531
    R3        2.04868  -0.00088   0.00000  -0.00246  -0.00246   2.04622
    R4        2.67759   0.00328   0.00000   0.00777   0.00777   2.68537
    R5        2.05045  -0.00033   0.00000  -0.00094  -0.00094   2.04951
    R6        2.68456   0.00412   0.00000   0.00990   0.00989   2.69445
    R7        2.68897  -0.01348   0.00000  -0.03284  -0.03281   2.65616
    R8        2.63162  -0.00381   0.00000  -0.00801  -0.00801   2.62361
    R9        2.85937  -0.00679   0.00000  -0.02030  -0.02033   2.83904
   R10        2.63542   0.00092   0.00000   0.00177   0.00177   2.63719
   R11        2.05237  -0.00096   0.00000  -0.00270  -0.00270   2.04967
   R12        2.04803  -0.00021   0.00000  -0.00059  -0.00059   2.04743
   R13        2.68897  -0.01347   0.00000  -0.03282  -0.03279   2.65617
   R14        2.04988   0.00111   0.00000   0.00311   0.00311   2.05299
   R15        2.85948  -0.00681   0.00000  -0.02039  -0.02042   2.83906
   R16        2.07670  -0.00027   0.00000  -0.00079  -0.00079   2.07591
   R17        2.07481  -0.00037   0.00000  -0.00107  -0.00107   2.07374
   R18        2.68463   0.00410   0.00000   0.00986   0.00985   2.69447
   R19        2.63165  -0.00383   0.00000  -0.00805  -0.00806   2.62359
   R20        2.67756   0.00328   0.00000   0.00778   0.00778   2.68534
   R21        2.05044  -0.00033   0.00000  -0.00093  -0.00093   2.04952
   R22        2.61415  -0.00661   0.00000  -0.01359  -0.01358   2.60056
   R23        2.64534   0.00470   0.00000   0.00997   0.00998   2.65532
   R24        2.04867  -0.00088   0.00000  -0.00245  -0.00245   2.04622
   R25        2.63543   0.00090   0.00000   0.00174   0.00174   2.63717
   R26        2.04802  -0.00021   0.00000  -0.00059  -0.00059   2.04743
   R27        2.05243  -0.00098   0.00000  -0.00275  -0.00275   2.04967
    A1        2.09230  -0.00164   0.00000  -0.00774  -0.00773   2.08457
    A2        2.09496   0.00052   0.00000   0.00200   0.00200   2.09695
    A3        2.09593   0.00113   0.00000   0.00574   0.00573   2.10166
    A4        2.11468  -0.00416   0.00000  -0.01807  -0.01807   2.09662
    A5        2.09711   0.00133   0.00000   0.00444   0.00443   2.10154
    A6        2.07139   0.00283   0.00000   0.01363   0.01363   2.08502
    A7        2.07004   0.00617   0.00000   0.02644   0.02642   2.09647
    A8        2.11636  -0.00412   0.00000  -0.01587  -0.01587   2.10050
    A9        2.09676  -0.00205   0.00000  -0.01058  -0.01056   2.08620
   A10        2.08153  -0.00278   0.00000  -0.01086  -0.01086   2.07067
   A11        2.10427  -0.00068   0.00000  -0.00157  -0.00160   2.10267
   A12        2.09734   0.00346   0.00000   0.01245   0.01248   2.10982
   A13        2.11877  -0.00360   0.00000  -0.01607  -0.01608   2.10269
   A14        2.08029   0.00187   0.00000   0.00844   0.00845   2.08874
   A15        2.08413   0.00173   0.00000   0.00762   0.00763   2.09175
   A16        2.08902   0.00602   0.00000   0.02631   0.02631   2.11534
   A17        2.09919  -0.00292   0.00000  -0.01257  -0.01257   2.08661
   A18        2.09497  -0.00311   0.00000  -0.01374  -0.01374   2.08123
   A19        2.13900   0.00569   0.00000   0.02143   0.02145   2.16046
   A20        2.07214  -0.00285   0.00000  -0.01070  -0.01075   2.06139
   A21        2.07194  -0.00283   0.00000  -0.01055  -0.01060   2.06133
   A22        2.02418  -0.00022   0.00000   0.00350   0.00340   2.02759
   A23        1.89700  -0.00007   0.00000  -0.00363  -0.00358   1.89342
   A24        1.90251   0.00021   0.00000   0.00206   0.00205   1.90456
   A25        1.89713  -0.00008   0.00000  -0.00361  -0.00356   1.89358
   A26        1.90220   0.00023   0.00000   0.00217   0.00216   1.90436
   A27        1.83105  -0.00005   0.00000  -0.00096  -0.00097   1.83008
   A28        2.10418  -0.00066   0.00000  -0.00151  -0.00154   2.10263
   A29        2.09757   0.00341   0.00000   0.01226   0.01229   2.10986
   A30        2.08140  -0.00275   0.00000  -0.01074  -0.01073   2.07067
   A31        2.09685  -0.00206   0.00000  -0.01063  -0.01061   2.08625
   A32        2.11626  -0.00410   0.00000  -0.01579  -0.01579   2.10047
   A33        2.07006   0.00617   0.00000   0.02642   0.02640   2.09646
   A34        2.07152   0.00282   0.00000   0.01353   0.01353   2.08505
   A35        2.11480  -0.00419   0.00000  -0.01817  -0.01816   2.09663
   A36        2.09687   0.00137   0.00000   0.00464   0.00463   2.10150
   A37        2.09221  -0.00163   0.00000  -0.00766  -0.00765   2.08456
   A38        2.09493   0.00052   0.00000   0.00202   0.00201   2.09694
   A39        2.09605   0.00111   0.00000   0.00564   0.00564   2.10169
   A40        2.08904   0.00602   0.00000   0.02629   0.02629   2.11533
   A41        2.09915  -0.00291   0.00000  -0.01251  -0.01252   2.08663
   A42        2.09500  -0.00311   0.00000  -0.01377  -0.01378   2.08122
   A43        2.11886  -0.00362   0.00000  -0.01614  -0.01615   2.10272
   A44        2.08018   0.00188   0.00000   0.00854   0.00854   2.08872
   A45        2.08414   0.00173   0.00000   0.00760   0.00761   2.09175
    D1       -0.00128   0.00004   0.00000   0.00151   0.00151   0.00023
    D2        3.13912   0.00000   0.00000   0.00024   0.00025   3.13938
    D3       -3.14144   0.00003   0.00000   0.00100   0.00099  -3.14045
    D4       -0.00104  -0.00001   0.00000  -0.00027  -0.00027  -0.00131
    D5        0.00270  -0.00001   0.00000  -0.00075  -0.00077   0.00193
    D6       -3.13911  -0.00001   0.00000  -0.00041  -0.00043  -3.13954
    D7       -3.14032   0.00000   0.00000  -0.00025  -0.00025  -3.14058
    D8        0.00105   0.00000   0.00000   0.00009   0.00009   0.00114
    D9       -0.00270  -0.00001   0.00000  -0.00038  -0.00037  -0.00307
   D10        3.13378  -0.00005   0.00000  -0.00165  -0.00163   3.13215
   D11        3.14007   0.00002   0.00000   0.00087   0.00087   3.14094
   D12       -0.00663  -0.00002   0.00000  -0.00040  -0.00039  -0.00702
   D13        0.00524  -0.00002   0.00000  -0.00145  -0.00148   0.00375
   D14       -3.12711  -0.00007   0.00000  -0.00331  -0.00336  -3.13047
   D15       -3.13131   0.00002   0.00000  -0.00017  -0.00022  -3.13152
   D16        0.01953  -0.00002   0.00000  -0.00204  -0.00209   0.01744
   D17       -3.12134  -0.00018   0.00000  -0.00895  -0.00902  -3.13036
   D18        0.00494   0.00011   0.00000   0.00512   0.00510   0.01004
   D19        0.01506  -0.00020   0.00000  -0.01013  -0.01017   0.00490
   D20        3.14134   0.00009   0.00000   0.00394   0.00396  -3.13789
   D21       -0.00393   0.00006   0.00000   0.00229   0.00229  -0.00164
   D22        3.13929   0.00002   0.00000   0.00026   0.00025   3.13953
   D23        3.12845   0.00009   0.00000   0.00408   0.00410   3.13255
   D24       -0.01152   0.00004   0.00000   0.00204   0.00205  -0.00946
   D25       -0.04805   0.00030   0.00000   0.01225   0.01222  -0.03583
   D26        2.09471  -0.00002   0.00000   0.00709   0.00710   2.10180
   D27       -2.20198  -0.00001   0.00000   0.00513   0.00514  -2.19684
   D28        3.10287   0.00028   0.00000   0.01049   0.01043   3.11331
   D29       -1.03755  -0.00004   0.00000   0.00533   0.00531  -1.03225
   D30        0.94895  -0.00003   0.00000   0.00337   0.00335   0.95230
   D31       -0.00007  -0.00002   0.00000  -0.00112  -0.00113  -0.00120
   D32       -3.14144  -0.00003   0.00000  -0.00146  -0.00148   3.14027
   D33        3.13990   0.00002   0.00000   0.00092   0.00092   3.14081
   D34       -0.00148   0.00001   0.00000   0.00058   0.00057  -0.00090
   D35       -0.01778   0.00022   0.00000   0.01119   0.01122  -0.00656
   D36        3.11963   0.00022   0.00000   0.01084   0.01091   3.13054
   D37        3.13912  -0.00007   0.00000  -0.00288  -0.00290   3.13622
   D38       -0.00665  -0.00007   0.00000  -0.00322  -0.00321  -0.00986
   D39        0.04539  -0.00027   0.00000  -0.01123  -0.01120   0.03420
   D40       -3.10520  -0.00026   0.00000  -0.00958  -0.00952  -3.11472
   D41       -2.09730   0.00004   0.00000  -0.00606  -0.00606  -2.10335
   D42        1.03530   0.00005   0.00000  -0.00441  -0.00438   1.03091
   D43        2.19948   0.00002   0.00000  -0.00416  -0.00417   2.19531
   D44       -0.95111   0.00003   0.00000  -0.00251  -0.00250  -0.95361
   D45       -0.01421  -0.00001   0.00000  -0.00001   0.00003  -0.01418
   D46        3.13145   0.00001   0.00000   0.00042   0.00045   3.13190
   D47        3.13630  -0.00005   0.00000  -0.00176  -0.00172   3.13457
   D48       -0.00123  -0.00003   0.00000  -0.00133  -0.00131  -0.00253
   D49       -3.13124  -0.00005   0.00000  -0.00251  -0.00255  -3.13378
   D50        0.00891   0.00000   0.00000  -0.00045  -0.00046   0.00844
   D51        0.00147  -0.00003   0.00000  -0.00084  -0.00086   0.00062
   D52       -3.14157   0.00002   0.00000   0.00123   0.00123  -3.14034
   D53        0.00297   0.00005   0.00000   0.00185   0.00183   0.00480
   D54       -3.13745   0.00008   0.00000   0.00307   0.00304  -3.13441
   D55        3.14044   0.00003   0.00000   0.00142   0.00143  -3.14132
   D56        0.00003   0.00006   0.00000   0.00264   0.00263   0.00266
   D57        0.00095  -0.00004   0.00000  -0.00179  -0.00178  -0.00083
   D58        3.14131  -0.00003   0.00000  -0.00126  -0.00124   3.14007
   D59       -3.13944  -0.00001   0.00000  -0.00056  -0.00057  -3.14001
   D60        0.00092   0.00000   0.00000  -0.00002  -0.00002   0.00089
   D61       -0.00072  -0.00001   0.00000  -0.00041  -0.00039  -0.00111
   D62        3.14071  -0.00001   0.00000  -0.00019  -0.00018   3.14053
   D63       -3.14108  -0.00002   0.00000  -0.00094  -0.00093   3.14117
   D64        0.00035  -0.00002   0.00000  -0.00072  -0.00072  -0.00037
   D65       -0.00050   0.00004   0.00000   0.00171   0.00172   0.00122
   D66       -3.14064  -0.00001   0.00000  -0.00036  -0.00037  -3.14101
   D67        3.14125   0.00004   0.00000   0.00150   0.00151  -3.14042
   D68        0.00111  -0.00001   0.00000  -0.00057  -0.00058   0.00053
         Item               Value     Threshold  Converged?
 Maximum Force            0.013482     0.000450     NO 
 RMS     Force            0.002800     0.000300     NO 
 Maximum Displacement     0.079656     0.001800     NO 
 RMS     Displacement     0.025358     0.001200     NO 
 Predicted change in Energy=-1.737371D-03
 GradGradGradGradGradGradGradGradGradGradGradGradGradGradGradGradGradGrad

                          Input orientation:                          
 ---------------------------------------------------------------------
 Center     Atomic      Atomic             Coordinates (Angstroms)
 Number     Number       Type             X           Y           Z
 ---------------------------------------------------------------------
      1          6           0       -5.030218   -2.745435    0.010137
      2          6           0       -3.654638   -2.706480    0.003057
      3          6           0       -2.976562   -1.457843   -0.018374
      4          6           0       -3.719022   -0.240691   -0.036411
      5          6           0       -5.105768   -0.306917   -0.027955
      6          6           0       -5.755241   -1.541888   -0.004276
      7          6           0       -1.571722   -1.412413   -0.014232
      8          6           0       -3.010439    1.083547   -0.073524
      9          6           0       -1.509268    1.032970   -0.041423
     10          6           0       -0.828249   -0.219573   -0.021243
     11          6           0        0.592116   -0.258727   -0.002830
     12          1           0        1.099223   -1.217310    0.012176
     13          6           0        1.315433    0.912009   -0.001238
     14          6           0        0.637467    2.142638   -0.018969
     15          6           0       -0.756746    2.199679   -0.039505
     16          1           0       -1.029187   -2.353587   -0.003944
     17          1           0       -5.547217   -3.696695    0.027534
     18          1           0       -3.079332   -3.625780    0.016038
     19          1           0       -5.687179    0.608652   -0.039461
     20          1           0       -6.838297   -1.570319    0.003200
     21          1           0       -3.321712    1.619832   -0.980308
     22          1           0        2.397732    0.882515    0.014215
     23          1           0        1.205013    3.065549   -0.016747
     24          1           0       -1.257524    3.161693   -0.053493
     25          1           0       -3.366841    1.705404    0.757442
 ---------------------------------------------------------------------
                    Distance matrix (angstroms):
                    1          2          3          4          5
     1  C    0.000000
     2  C    1.376149   0.000000
     3  C    2.424089   1.421035   0.000000
     4  C    2.827568   2.466945   1.425844   0.000000
     5  C    2.439986   2.804397   2.420380   1.388352   0.000000
     6  C    1.405131   2.401845   2.779985   2.416678   1.395539
     7  C    3.706579   2.452233   1.405580   2.446287   3.702943
     8  C    4.329851   3.845148   2.542214   1.502357   2.515128
     9  C    5.164890   4.311390   2.890958   2.550540   3.838006
    10  C    4.902806   3.764808   2.479632   2.890890   4.278416
    11  C    6.147725   4.901678   3.764782   4.311306   5.698143
    12  H    6.317057   4.981657   4.082991   4.916465   6.271550
    13  C    7.324228   6.147771   4.902828   5.164852   6.535925
    14  C    7.484434   6.475848   5.101438   4.965839   6.243809
    15  C    6.535992   5.698245   4.278493   3.838033   5.019677
    16  H    4.020198   2.649071   2.143557   3.420614   4.561574
    17  H    1.082814   2.136113   3.409227   3.910287   3.418852
    18  H    2.140326   1.084554   2.170644   3.445399   3.888860
    19  H    3.418180   3.888847   3.408561   2.143603   1.084637
    20  H    2.156409   3.380318   3.863433   3.391070   2.144484
    21  H    4.791193   4.449138   3.242920   2.123758   2.793241
    22  H    8.266588   7.036490   5.861858   6.219231   7.597305
    23  H    8.523283   7.545390   6.160085   5.931082   7.155390
    24  H    7.009381   6.339149   4.929142   4.199462   5.180819
    25  H    4.809912   4.485158   3.280295   2.131084   2.773112
                    6          7          8          9         10
     6  C    0.000000
     7  C    4.185533   0.000000
     8  C    3.798900   2.881535   0.000000
     9  C    4.965839   2.446332   1.502366   0.000000
    10  C    5.101378   1.405586   2.542206   1.425854   0.000000
    11  C    6.475758   2.452207   3.845140   2.466939   1.421023
    12  H    6.862164   2.678192   4.710692   3.445412   2.170655
    13  C    7.484387   3.706586   4.329876   2.827576   2.424098
    14  C    7.378527   4.185562   3.798930   2.416679   2.779994
    15  C    6.243839   3.702977   2.515163   1.388346   2.420378
    16  H    4.795252   1.086398   3.967883   3.420622   2.143524
    17  H    2.165059   4.585220   5.412593   6.219286   5.861861
    18  H    3.391682   2.678207   4.710682   4.916539   4.083015
    19  H    2.151904   4.585011   2.718754   4.199404   4.929046
    20  H    1.083455   5.268970   4.658475   5.931075   6.160016
    21  H    4.107454   3.631843   1.098522   2.123880   3.243544
    22  H    8.505824   4.585202   5.412618   3.910292   3.409224
    23  H    8.347081   5.269004   4.658496   3.391062   3.863443
    24  H    6.508114   4.585053   2.718787   2.143590   3.408559
    25  H    4.102386   3.679499   1.097375   2.130946   3.279686
                   11         12         13         14         15
    11  C    0.000000
    12  H    1.084557   0.000000
    13  C    1.376159   2.140310   0.000000
    14  C    2.401848   3.391673   1.405134   0.000000
    15  C    2.804378   3.888844   2.439976   1.395530   0.000000
    16  H    2.648974   2.412781   4.020121   4.795207   4.561549
    17  H    7.036473   7.093853   8.266616   8.505897   7.597390
    18  H    4.981659   4.822972   6.317103   6.862249   6.271640
    19  H    6.339025   7.027948   7.009284   6.508048   5.180786
    20  H    7.545286   7.945371   8.523221   8.347071   7.155416
    21  H    4.450000   5.345940   4.791942   4.107627   2.792917
    22  H    2.136112   2.468886   1.082811   2.165074   3.418850
    23  H    3.380332   4.284263   2.156424   1.083456   2.144468
    24  H    3.888831   4.973353   3.418174   2.151896   1.084640
    25  H    4.484324   5.389194   4.809237   4.102252   2.773451
                   16         17         18         19         20
    16  H    0.000000
    17  H    4.713547   0.000000
    18  H    2.412875   2.468930   0.000000
    19  H    5.520237   4.308142   4.973365   0.000000
    20  H    5.861683   2.487761   4.284262   2.464712   0.000000
    21  H    4.690099   5.850990   5.344895   2.739182   4.848786
    22  H    4.713434   9.170145   7.093868   8.089727   9.556189
    23  H    5.861642   9.556281   7.945474   7.317047   9.283668
    24  H    5.520227   8.089840   7.028058   5.112735   7.317115
    25  H    4.745497   5.871071   5.390163   2.687357   4.832209
                   21         22         23         24         25
    21  H    0.000000
    22  H    5.851902   0.000000
    23  H    4.848689   2.487805   0.000000
    24  H    2.738100   4.308148   2.464687   0.000000
    25  H    1.740441   5.870250   4.832309   2.688422   0.000000
 Stoichiometry    C14H11(1+)
 Framework group  C1[X(C14H11)]
 Deg. of freedom    69
 Full point group                 C1      NOp   1
 Largest Abelian subgroup         C1      NOp   1
 Largest concise Abelian subgroup C1      NOp   1
                         Standard orientation:                         
 ---------------------------------------------------------------------
 Center     Atomic      Atomic             Coordinates (Angstroms)
 Number     Number       Type             X           Y           Z
 ---------------------------------------------------------------------
      1          6           0        3.662126   -0.784588   -0.012451
      2          6           0        2.450872   -1.437601    0.002571
      3          6           0        1.239831   -0.694190    0.010392
      4          6           0        1.275257    0.731208    0.006492
      5          6           0        2.509806    1.366151   -0.009586
      6          6           0        3.689245    0.620262   -0.019673
      7          6           0        0.000013   -1.356377    0.014283
      8          6           0        0.000004    1.525119    0.029105
      9          6           0       -1.275283    0.731232    0.007003
     10          6           0       -1.239800   -0.694179    0.008885
     11          6           0       -2.450806   -1.437611   -0.000193
     12          1           0       -2.411450   -2.521453    0.001597
     13          6           0       -3.662102   -0.784630   -0.014002
     14          6           0       -3.689282    0.620235   -0.018002
     15          6           0       -2.509871    1.366136   -0.006894
     16          1           0       -0.000028   -2.442755    0.020761
     17          1           0        4.585105   -1.350756   -0.019482
     18          1           0        2.411521   -2.521434    0.006248
     19          1           0        2.556312    2.449778   -0.014723
     20          1           0        4.641805    1.136320   -0.033434
     21          1           0        0.000286    2.159112    0.926213
     22          1           0       -4.585040   -1.350843   -0.022347
     23          1           0       -4.641863    1.136302   -0.029871
     24          1           0       -2.556421    2.449773   -0.009713
     25          1           0       -0.000279    2.228955   -0.812825
 ---------------------------------------------------------------------
 Rotational constants (GHZ):      2.0948068      0.4464282      0.3688429
 Standard basis: 6-311+G(d,p) (5D, 7F)
 There are   374 symmetry adapted basis functions of A   symmetry.
 Integral buffers will be    262144 words long.
 Raffenetti 2 integral format.
 Two-electron integral symmetry is turned on.
   374 basis functions,   592 primitive gaussians,   388 cartesian basis functions
    47 alpha electrons       47 beta electrons
       nuclear repulsion energy       779.9602855144 Hartrees.
 NAtoms=   25 NActive=   25 NUniq=   25 SFac= 7.50D-01 NAtFMM=   80 NAOKFM=F Big=F
 One-electron integrals computed using PRISM.
 NBasis=   374 RedAO= T  NBF=   374
 NBsUse=   369 1.00D-06 NBFU=   369
 Initial guess read from the read-write file.
 B after Tr=     0.000000    0.000000    0.000000
         Rot=    1.000000    0.000000    0.000000    0.000000 Ang=   0.00 deg.
 Initial guess orbital symmetries:
       Occupied  (A) (A) (A) (A) (A) (A) (A) (A) (A) (A) (A) (A)
                 (A) (A) (A) (A) (A) (A) (A) (A) (A) (A) (A) (A)
                 (A) (A) (A) (A) (A) (A) (A) (A) (A) (A) (A) (A)
                 (A) (A) (A) (A) (A) (A) (A) (A) (A) (A) (A)
       Virtual   (A) (A) (A) (A) (A) (A) (A) (A) (A) (A) (A) (A)
                 (A) (A) (A) (A) (A) (A) (A) (A) (A) (A) (A) (A)
                 (A) (A) (A) (A) (A) (A) (A) (A) (A) (A) (A) (A)
                 (A) (A) (A) (A) (A) (A) (A) (A) (A) (A) (A) (A)
                 (A) (A) (A) (A) (A) (A) (A) (A) (A) (A) (A) (A)
                 (A) (A) (A) (A) (A) (A) (A) (A) (A) (A) (A) (A)
                 (A) (A) (A) (A) (A) (A) (A) (A) (A) (A) (A) (A)
                 (A) (A) (A) (A) (A) (A) (A) (A) (A) (A) (A) (A)
                 (A) (A) (A) (A) (A) (A) (A) (A) (A) (A) (A) (A)
                 (A) (A) (A) (A) (A) (A) (A) (A) (A) (A) (A) (A)
                 (A) (A) (A) (A) (A) (A) (A) (A) (A) (A) (A) (A)
                 (A) (A) (A) (A) (A) (A) (A) (A) (A) (A) (A) (A)
                 (A) (A) (A) (A) (A) (A) (A) (A) (A) (A) (A) (A)
                 (A) (A) (A) (A) (A) (A) (A) (A) (A) (A) (A) (A)
                 (A) (A) (A) (A) (A) (A) (A) (A) (A) (A) (A) (A)
                 (A) (A) (A) (A) (A) (A) (A) (A) (A) (A) (A) (A)
                 (A) (A) (A) (A) (A) (A) (A) (A) (A) (A) (A) (A)
                 (A) (A) (A) (A) (A) (A) (A) (A) (A) (A) (A) (A)
                 (A) (A) (A) (A) (A) (A) (A) (A) (A) (A) (A) (A)
                 (A) (A) (A) (A) (A) (A) (A) (A) (A) (A) (A) (A)
                 (A) (A) (A) (A) (A) (A) (A) (A) (A) (A) (A) (A)
                 (A) (A) (A) (A) (A) (A) (A) (A) (A) (A) (A) (A)
                 (A) (A) (A) (A) (A) (A) (A) (A) (A) (A) (A) (A)
                 (A) (A) (A) (A) (A) (A) (A) (A) (A) (A) (A) (A)
                 (A) (A) (A) (A) (A) (A) (A) (A) (A) (A) (A) (A)
                 (A) (A) (A) (A) (A) (A) (A) (A) (A) (A) (A) (A)
                 (A) (A) (A) (A) (A) (A) (A) (A) (A) (A)
 Harris functional with IExCor=  402 diagonalized for initial guess.
 ExpMin= 4.38D-02 ExpMax= 4.56D+03 ExpMxC= 6.82D+02 IAcc=2 IRadAn=         0 AccDes= 0.00D+00
 HarFok:  IExCor=  402 AccDes= 0.00D+00 IRadAn=         0 IDoV= 1
 ScaDFX=  1.000000  1.000000  1.000000  1.000000
 FoFCou: FMM=F IPFlag=           0 FMFlag=      100000 FMFlg1=           0
         NFxFlg=           0 DoJE=T BraDBF=F KetDBF=T FulRan=T
         Omega=  0.000000  0.000000  1.000000  0.000000  0.000000 ICntrl=     500 IOpCl=  0
[...]
 013012,0.00872054,-0.00001371,-0.00001314,-0.00083283,-0.00011528,0.00
 016655,0.00630502,0.00029358,0.00047751,0.00336095,-0.00000677,-0.0000
 0897,0.00038664,0.00000803,-0.00001178,-0.00075750,0.00000001,0.000000
 54,-0.00002491,0.00000040,-0.00000974,-0.00065128,0.00000092,-0.000002
 30,-0.00006428,0.00000019,-0.00000017,-0.00001228,-0.00000089,0.000001
 14,0.00008726,0.00000005,-0.00000011,-0.00001069,-0.00000050,0.0000011
 9,0.00009161,-0.00000108,0.00000252,0.00014244,-0.00134012,-0.00338072
 ,0.02683025,-0.01082201,0.02777448,-0.00058478,-0.13927688,0.12665781,
 -0.00282635,0.01022438,-0.01381954,0.00028857,-0.00150759,-0.00305402,
 0.00000490,-0.00037720,-0.00047194,0.00001321,-0.00574203,-0.00141825,
 -0.00008072,0.00137010,-0.00157434,0.00005911,0.00041066,-0.00056785,0
 .00000024,0.00038558,-0.00010650,0.00000461,0.00013705,0.00047104,-0.0
 0000863,-0.00013930,-0.00003931,-0.00000141,-0.00003030,-0.00001236,-0
 .00000030,-0.00000549,0.00013148,-0.00000168,0.00006554,-0.00004577,0.
 00000123,-0.00006631,-0.00000597,-0.00000041,-0.00023613,0.00020137,-0
 .00000753,0.00099184,-0.00017270,0.00004449,0.14517997,-0.00319053,0.0
 0624546,-0.00001791,0.12690506,-0.25975862,0.00457533,0.01509205,-0.01
 824884,0.00044212,-0.00416196,-0.00253685,0.00008699,-0.00003256,0.000
 42097,-0.00002540,-0.00107071,0.00075696,0.00011656,0.00220738,0.00070
 960,-0.00004706,0.00082685,-0.00020153,0.00003608,0.00042041,0.0000919
 3,0.00000160,-0.00037408,0.00037991,-0.00000473,-0.00011447,-0.0000957
 6,0.00000301,-0.00003420,-0.00000333,0.00000043,0.00000694,0.00014880,
 -0.00000350,0.00009530,-0.00011097,0.00000251,-0.00018362,0.00001040,-
 0.00000148,-0.00122110,0.00018781,-0.00000647,0.00018131,0.00061825,-0
 .00008515,-0.13513125,0.27171135,-0.00007656,0.00021082,0.00658314,-0.
 00282990,0.00457409,-0.03840846,-0.00018665,0.00022821,0.00187939,0.00
 002303,0.00009510,0.00462689,0.00000620,-0.00002860,-0.00111095,-0.000
 08635,0.00011366,0.00832992,-0.00000305,-0.00007475,-0.00313911,-0.000
 02253,0.00002587,0.00162541,-0.00000417,-0.00000225,-0.00000085,0.0000
 0519,0.00000135,0.00026136,-0.00000011,0.00000357,0.00013838,0.0000000
 6,0.00000059,0.00003801,0.00000035,-0.00000264,-0.00006810,-0.00000111
 ,0.00000150,-0.00000004,0.00000253,-0.00000016,0.00000223,0.00001588,0
 .00000393,0.00033782,0.00003865,-0.00008775,-0.00464384,0.00310543,-0.
 00504638,0.02539055,-0.00109000,-0.00309645,-0.00000913,-0.00044580,-0
 .00060335,0.00001379,-0.00505078,-0.00210415,-0.00006243,-0.01316430,0
 .02756815,-0.00057762,-0.14134358,0.12721455,-0.00284151,0.01206170,-0
 .01501680,0.00030821,0.00000300,0.00202860,-0.00003529,0.00173083,0.00
 069620,0.00002288,-0.00045978,-0.00003377,-0.00000099,0.00001186,-0.00
 038344,0.00000537,0.00032006,0.00002754,0.00000195,0.00003451,0.000001
 48,0.00000023,0.00001304,-0.00033438,0.00000547,-0.00024017,0.00012280
 ,-0.00000391,0.00020857,0.00010081,0.00000012,-0.00044590,-0.00004000,
 0.00000122,0.00043327,-0.00069411,0.00001440,0.00006608,0.00009258,0.0
 0000580,0.14743429,-0.00373204,-0.00281192,0.00013405,-0.00080668,0.00
 013703,-0.00002416,-0.00115392,0.00103670,0.00010701,-0.00254973,0.005
 27172,-0.00004353,0.12687123,-0.25515638,0.00447947,0.01639886,-0.0191
 8311,0.00049668,-0.00044675,0.00019434,-0.00000199,-0.00064151,0.00048
 493,-0.00006034,0.00016911,-0.00005317,-0.00000205,0.00006044,0.000209
 23,-0.00000075,-0.00006354,0.00000276,-0.00000060,-0.00000285,-0.00001
 305,0.00000019,-0.00000769,0.00003656,-0.00000048,0.00000873,0.0000024
 6,0.00000035,0.00002549,0.00000279,-0.00000037,-0.00008304,0.00001934,
 -0.00000936,0.00082352,-0.00081447,0.00001995,0.00009093,-0.00000552,-
 0.00001443,-0.13522416,0.26906475,0.00000131,0.00013872,0.00703117,0.0
 0001702,-0.00002280,-0.00097123,-0.00007800,0.00010012,0.00807633,-0.0
 0008291,0.00017893,0.00376508,-0.00283605,0.00448170,-0.03939697,-0.00
 020736,0.00026488,0.00369449,0.00000522,0.00001634,0.00027308,0.000044
 74,-0.00005033,-0.00290135,-0.00000426,-0.00000357,-0.00025355,-0.0000
 0187,-0.00000400,0.00013563,0.00000342,0.00000007,-0.00000473,0.000000
 30,0.00000022,-0.00000019,0.00000015,-0.00000288,0.00001040,-0.0000020
 5,0.00000118,0.00001984,0.00000133,0.00000019,-0.00003112,0.00000180,-
 0.00000907,-0.00051450,-0.00001052,0.00000871,0.00002904,0.00000583,-0
 .00001444,-0.00092557,0.00311443,-0.00498391,0.02634019,-0.01000840,-0
 .00273846,-0.00008171,-0.00006141,0.00263136,-0.00009346,0.00122201,0.
 00005958,0.00001674,0.00035489,-0.00209451,-0.00001934,-0.00860722,0.0
 0177591,-0.00014546,-0.34150609,-0.00824697,-0.00205827,-0.00050255,-0
 .00020193,0.00000690,-0.00045583,0.00044236,-0.00000705,0.00019756,-0.
 00031770,0.00000767,0.00014926,0.00026699,-0.00000707,-0.00016141,-0.0
 0003947,-0.00000132,-0.00000039,-0.00000134,-0.00000012,-0.00000940,0.
 00014470,-0.00000171,0.00008407,-0.00007031,0.00000175,-0.00009835,-0.
 00000747,0.00000333,0.00000715,0.00000695,-0.00000018,0.00071087,0.000
 03114,0.00002912,-0.00051060,-0.00024908,0.00000601,0.00074107,-0.0000
 3584,0.00003460,0.35846839,0.02759972,0.00538703,0.00023268,0.00301444
 ,-0.00466289,0.00020952,0.00002328,-0.00090053,-0.00000441,-0.00271508
 ,-0.00499112,0.00018702,-0.02852834,0.00332033,-0.00014799,-0.00789237
 ,-0.06076959,0.00020792,-0.00002284,-0.00006315,-0.00001533,-0.0013480
 3,0.00078093,-0.00003069,0.00009489,-0.00049279,0.00000652,0.00005096,
 0.00010937,0.00000703,-0.00006089,-0.00001183,0.00000148,-0.00000689,-
 0.00000116,0.00000028,0.00001195,0.00008094,-0.00000285,0.00006711,-0.
 00009232,0.00000204,-0.00023033,0.00001942,-0.00001078,-0.00008129,-0.
 00000436,-0.00000024,-0.00039379,0.00089063,-0.00007173,0.00135227,0.0
 0014538,-0.00000505,0.00025255,0.00092491,-0.00007672,0.00870463,0.060
 30804,-0.00058001,0.00000866,0.00713573,-0.00009957,0.00020681,0.00673
 457,0.00001731,-0.00000412,-0.00117947,-0.00000914,0.00019162,0.007621
 85,0.00035218,0.00007567,0.00713847,-0.00206415,0.00020530,-0.04457161
 ,0.00000396,-0.00001663,-0.00098626,0.00002231,-0.00001755,-0.00048228
 ,0.00000097,0.00000356,-0.00013754,-0.00000353,0.00000856,0.00051460,-
 0.00000096,0.00000164,0.00010565,-0.00000003,0.00000032,0.00001901,0.0
 0000048,-0.00000185,-0.00009823,-0.00000046,0.00000101,0.00000257,0.00
 000693,-0.00000910,-0.00053299,0.00000127,0.00000038,0.00001674,0.0000
 3610,-0.00006862,-0.00329869,-0.00002029,-0.00001688,-0.00076958,0.000
 02983,-0.00007884,-0.00386104,0.00231020,-0.00049252,0.02642137,0.0019
 2023,-0.00125737,0.00001212,-0.00168648,-0.00127629,-0.00039427,0.0016
 2155,-0.00103923,0.00047744,0.00517112,-0.00545189,0.01205936,-0.00192
 154,-0.00279853,-0.00059249,0.00038106,0.00271555,-0.00010047,-0.00240
 562,-0.00143025,-0.00029622,-0.06372548,0.03518795,-0.06344704,-0.0138
 9942,0.01674823,-0.02531627,-0.00241043,0.00029215,-0.00011920,-0.0017
 2584,0.00013273,0.00067356,-0.00028306,-0.00000853,0.00044707,-0.00016
 884,0.00148843,-0.00023329,0.00109488,-0.00020845,0.00095328,0.0000024
 5,0.00057958,0.00170998,-0.00003706,0.00002840,-0.00008451,0.00001542,
 0.00003002,-0.00001865,-0.00005528,-0.00004195,-0.00021312,-0.00040183
 ,0.00015087,-0.00012114,-0.00000660,0.00006352,0.00025291,0.07523888,0
 .00027990,-0.00030281,0.00026008,0.00010738,-0.00106544,-0.00054422,-0
 .00204199,-0.00198092,-0.00013387,0.00579726,-0.02039310,0.02228931,0.
 00168461,0.00128326,-0.00162926,0.00020254,-0.00035762,-0.00104622,-0.
 00142908,-0.00074797,0.00052713,0.03519223,-0.10398289,0.10952157,0.00
 555072,-0.00140418,0.00072517,0.00129705,0.00205039,-0.00048954,-0.001
 25135,-0.00102331,0.00007390,0.00009086,-0.00002567,-0.00001263,-0.000
 04709,0.00178522,0.00011691,0.00230028,-0.00107087,-0.00044247,-0.0039
 0811,-0.00063228,-0.00028833,0.00002868,-0.00006972,0.00014689,-0.0000
 1539,0.00002745,0.00010182,-0.00014206,-0.00025488,-0.00039237,-0.0002
 6729,0.00034021,0.00078022,-0.00003589,0.00001218,0.00029856,-0.038870
 05,0.11972248,0.00029608,-0.00019824,-0.00004620,-0.00010774,-0.000194
 67,-0.00008073,0.00045102,-0.00090313,-0.00083644,0.00177564,-0.000334
 18,0.00073740,-0.00108639,-0.00036394,0.00139539,0.00022483,0.00059256
 ,0.00019085,0.00000127,0.00001132,0.00045946,-0.06214175,0.10725809,-0
 .20033659,-0.00056623,-0.00175178,0.00081906,0.00055784,-0.00084921,-0
 .00083548,0.00022979,-0.00000309,-0.00008370,0.00002015,-0.00001171,-0
 .00007269,0.00002359,-0.00036347,-0.00004515,-0.00063238,0.00010541,0.
 00019047,0.00087074,0.00075940,0.00138672,-0.00000971,0.00001712,0.000
 05553,0.00001409,-0.00002295,-0.00002505,0.00000024,-0.00002286,-0.000
 07129,0.00035758,0.00011752,-0.00027830,0.00000952,0.00003856,0.000041
 27,0.06745176,-0.11642797,0.22156300,-0.00005292,0.00000331,-0.0000010
 8,-0.00000323,0.00007655,-0.00000081,-0.00012555,-0.00018385,0.0000068
 9,0.00003454,-0.00009052,0.00000191,0.00000628,0.00000083,-0.00000064,
 0.00000543,-0.00003219,0.00000064,-0.00040229,0.00026771,-0.00001021,-
 0.00003546,-0.00000952,0.00000548,0.00054910,0.00006790,0.00000904,0.0
 0089985,-0.00233377,-0.00001935,-0.01073927,0.00207202,-0.00014251,0.0
 0071614,-0.00001301,0.00003965,-0.34397285,0.00538774,-0.00232842,-0.0
 0913577,-0.00165437,-0.00006509,0.00089226,0.00220653,-0.00007582,-0.0
 0000854,-0.00000096,-0.00000110,-0.00000702,0.00000125,-0.00000011,0.0
 0000265,-0.00000068,0.00000012,-0.00000286,0.00000170,-0.00000005,-0.0
 0000036,-0.00000083,0.00000012,0.00003057,0.00002137,0.00001258,0.3610
 7621,-0.00006254,-0.00000150,0.00000099,-0.00006080,0.00012319,-0.0000
 0351,-0.00018681,-0.00042017,-0.00000507,0.00007481,-0.00010690,0.0000
 0190,-0.00000774,0.00002089,0.00000109,0.00000635,-0.00002595,0.000000
 30,-0.00132159,0.00048352,-0.00001138,0.00009419,0.00011349,-0.0000135
 2,-0.00025453,-0.00113885,0.00000310,-0.00193047,-0.00434420,0.0001991
 9,-0.02887163,0.00462451,-0.00022268,0.00034100,0.00089394,-0.00008792
 ,0.00560670,-0.05904950,0.00035908,0.02933956,0.00317322,0.00021923,0.
 00201202,-0.00463447,0.00019330,0.00000354,-0.00000953,0.00000250,-0.0
 0001578,0.00000140,-0.00000007,0.00000682,0.00000444,-0.00000022,-0.00
 001208,0.00000010,-0.00000009,0.00000212,0.00000295,-0.00000028,-0.000
 02448,0.00001216,-0.00002369,-0.00566787,0.05928983,0.,0.00000147,0.00
 008726,0.00000142,-0.00000253,-0.00006428,0.00000697,-0.00000518,-0.00
 065131,-0.00000077,0.00000070,-0.00002492,-0.00000051,0.00000117,0.000
 09162,0.00000002,0.00000002,-0.00001069,0.00001563,0.00000036,0.000386
 65,0.00000378,-0.00001424,-0.00075749,0.00001433,0.00000546,-0.0008329
 3,-0.00002619,0.00019641,0.00872015,0.00036263,0.00000532,0.00401844,0
 .00003396,-0.00009062,-0.00464384,-0.00233199,0.00035755,-0.03960134,-
 0.00057071,-0.00000914,0.00336257,-0.00007283,0.00019462,0.00630489,-0
 .00000116,0.00000248,0.00014244,0.00000017,0.00000006,0.00000443,0.,-0
 .00000028,-0.00001228,0.00000018,0.00000001,0.00000018,0.00000008,-0.0
 0000031,-0.00001528,-0.00007890,0.00006703,-0.00002493,0.00255308,-0.0
 0057217,0.02681273,0.00012620,-0.00006660,0.00000275,-0.00009295,-0.00
 010054,0.00000019,0.00025728,-0.00001161,-0.00000171,-0.00041600,0.000
 45030,-0.00000947,-0.00011329,-0.00022168,0.00000673,-0.00004939,0.000
 14442,-0.00000276,-0.00027100,-0.00015697,0.00000784,0.00007743,-0.001
 65692,0.00003123,-0.00573478,0.00081243,-0.00011180,-0.00033128,0.0009
 2303,-0.00000880,-0.00105852,0.00359204,-0.00011609,0.00045913,0.00079
 055,-0.00000391,0.01230235,0.01467604,-0.00020122,-0.13830710,-0.12559
 740,0.00135673,-0.01128061,-0.02697979,0.00030416,-0.00003371,-0.00005
 762,0.00000058,0.00000268,-0.00000259,0.00000017,-0.00000454,-0.000004
 49,-0.00000010,0.00000877,0.00000060,0.,-0.00000724,-0.00001416,-0.000
 00075,0.00001811,0.00004815,-0.00003815,0.00068840,-0.00038077,0.00003
 562,0.14277518,0.00006615,-0.00005464,-0.00000022,-0.00007913,-0.00008
 029,0.00000246,0.00020441,0.00000135,0.00000988,0.00003772,0.00012072,
 -0.00000394,0.00000118,0.00003435,-0.00000925,0.00000700,0.00004113,-0
 .00000058,-0.00033606,-0.00029469,-0.00001372,0.00013346,0.00024772,-0
 .00001092,0.00143301,0.00109808,0.00011697,0.00095934,0.00065265,-0.00
 002284,0.00320896,-0.00366591,0.00019328,-0.00081081,-0.00082427,-0.00
 000501,-0.01566220,-0.01692214,0.00027688,-0.12595200,-0.26395401,0.00
 264837,0.00332451,0.00599353,0.00004311,0.00003062,0.00003650,-0.00000
 010,0.00000036,-0.00000009,-0.00000025,0.00000107,0.00000298,0.0000002
 7,0.00000330,-0.00000082,0.00000014,-0.00000146,0.00000182,0.00000202,
 -0.00005159,-0.00001396,0.00001134,0.00004415,0.00091311,-0.00006835,0
 .13364704,0.27598585,0.00000055,-0.00000120,-0.00009824,-0.00000015,0.
 00000233,0.00010564,-0.00000530,0.00000834,0.00051459,-0.00000258,-0.0
 0000101,-0.00013749,0.00000310,-0.00001091,-0.00053299,-0.00000049,0.0
 0000041,0.00000258,0.00001081,-0.00001253,-0.00098628,0.00000194,-0.00
 002390,-0.00048233,-0.00012168,0.00011268,0.00762233,-0.00000921,-0.00
 002316,-0.00117935,-0.00010977,0.00019595,0.00673469,0.00002224,0.0000
 0665,-0.00076965,0.00029316,0.00050104,0.00713415,0.00136275,0.0026504
 7,-0.04458617,-0.00019032,-0.00018023,0.00713865,-0.00000087,-0.000000
 74,0.00001674,0.00000013,-0.00000027,-0.00001528,-0.00000019,0.0000002
 3,0.00001901,-0.00000004,0.00000012,0.00000635,-0.00000096,0.00000194,
 0.00012640,-0.00038497,-0.00006924,0.00004268,0.00002863,-0.00007154,-
 0.00329870,-0.00132111,-0.00308389,0.02643676,-0.00011772,0.00006806,-
 0.00000206,0.00006687,0.00008312,-0.00000084,0.00001954,0.00005599,-0.
 00000179,-0.00009662,-0.00004126,0.00000185,0.00010928,0.00008300,-0.0
 0000031,-0.00000145,-0.00012955,0.00000197,0.00083239,-0.00092718,0.00
 001931,0.00082187,-0.00011500,0.00002923,0.01149143,-0.01683183,0.0003
 3135,-0.00190639,-0.00297534,-0.00002511,-0.00062094,-0.00070522,0.000
 01406,0.00009212,0.00007585,0.00000626,-0.00534169,-0.00126920,-0.0000
 7040,-0.01073455,0.02960386,-0.00058919,-0.11636279,0.11240114,-0.0024
 0021,-0.00015089,-0.00025393,0.00000689,-0.00000515,0.00000302,-0.0000
 0009,-0.00000170,0.00001812,-0.00000031,-0.00002365,-0.00001032,-0.000
 00007,0.00000329,0.00000378,-0.00000009,0.00010047,-0.00014068,-0.0002
 8186,-0.00044489,0.00133220,-0.00002520,0.00097299,-0.00017019,0.00003
 838,0.12121120,-0.00025864,0.00016731,-0.00000449,0.00017421,0.0002559
 4,-0.00000300,-0.00038788,0.00020155,-0.00000395,-0.00024414,-0.000416
 30,0.00000099,0.00015832,0.00010207,-0.00000101,-0.00001548,-0.0002362
 4,0.00000408,0.00154817,-0.00063499,0.00002622,0.00122271,0.00139384,-
 0.00006114,0.01328613,-0.01938226,0.00047541,-0.00392557,-0.00210750,0
 .00013707,-0.00050190,0.00031217,-0.00002463,0.00007749,-0.00003155,-0
 .00001399,-0.00063361,0.00143944,0.00008645,-0.00181186,0.00361140,-0.
 00001189,0.11274444,-0.28013632,0.00475642,-0.00021089,-0.00027565,-0.
 00000539,-0.00001075,0.00000238,-0.00000012,0.00002245,0.00002315,-0.0
 0000022,-0.00003141,0.00000052,-0.00000010,0.00000648,0.00000467,0.000
 00008,-0.00056161,-0.00016451,-0.00024890,-0.00018543,0.00006362,-0.00
 000193,0.00011821,0.00069303,-0.00007336,-0.12003447,0.29528703,0.0000
 0327,-0.00000206,0.00001041,-0.00000232,-0.00000364,-0.00000471,0.0000
 0549,-0.00000064,0.00013563,0.00000519,0.00000236,-0.00025358,-0.00000
 155,-0.00000156,-0.00003111,0.00000010,0.00000323,0.00001982,-0.000021
 02,0.00000789,0.00027302,0.00000747,-0.00007068,-0.00290129,-0.0001592
 3,0.00025390,0.00376332,-0.00000965,0.00014415,0.00807613,0.00001049,-
 0.00002616,-0.00097123,0.00000624,-0.00001406,-0.00092558,-0.00008091,
 0.00008214,0.00703151,-0.00007655,0.00021959,0.00369623,-0.00240620,0.
 00475342,-0.03939771,0.00000607,-0.00000585,-0.00051452,0.00000014,-0.
 00000001,0.00000018,-0.00000038,-0.00000025,-0.00000018,0.00000028,0.0
 0000005,0.00000842,-0.00000013,0.00000006,0.00000635,-0.00061467,0.000
 49605,-0.00027602,-0.00000047,0.00000927,0.00002911,0.00003372,-0.0000
 7552,-0.00386108,0.00265672,-0.00527027,0.02634090,0.00192415,-0.00125
 947,0.00005828,-0.00169381,-0.00126604,0.00041241,0.00163398,-0.001067
 27,-0.00040627,0.00537482,-0.00585277,-0.01181046,-0.00194589,-0.00278
 362,0.00063500,0.00038356,0.00272581,0.00001407,-0.00241011,-0.0014203
 4,0.00030038,-0.06559709,0.03888453,0.06417025,-0.01427318,0.01753812,
 0.02453069,-0.00240401,0.00028335,0.00008690,-0.00171219,0.00011031,-0
 .00070142,-0.00027615,-0.00002334,-0.00044949,-0.00017151,0.00148983,0
 .00018286,0.00109972,-0.00023785,-0.00093225,0.00004050,0.00053409,-0.
 00174819,-0.00003839,0.00003136,0.00008210,0.00001535,0.00003030,0.000
 01825,-0.00005849,-0.00003530,0.00021471,-0.00039838,0.00015658,0.0001
 1411,-0.00000270,0.00005573,-0.00025558,0.00313274,-0.00445205,-0.0074
 3253,0.00002958,-0.00002223,0.00008042,0.00001190,-0.00003886,0.000385
 96,0.00008698,-0.00054499,0.00063789,0.07724862,0.00027431,-0.00030480
 ,-0.00024759,0.00010222,-0.00104046,0.00057743,-0.00205714,-0.00194644
 ,0.00013969,0.00606099,-0.02108963,-0.02148831,0.00169419,0.00134830,0
 .00165600,0.00017949,-0.00034135,0.00106647,-0.00142150,-0.00076488,-0
 .00050791,0.03888026,-0.11117341,-0.11186362,0.00557271,-0.00136285,-0
 .00056487,0.00127107,0.00209163,0.00041218,-0.00125755,-0.00102487,-0.
 00006184,0.00008992,-0.00002490,0.00001229,-0.00004570,0.00179160,-0.0
 0017754,0.00231275,-0.00105798,0.00051738,-0.00393917,-0.00064625,0.00
 029644,0.00003108,-0.00007495,-0.00014214,-0.00001431,0.00002480,-0.00
 010367,-0.00014784,-0.00024110,0.00039588,-0.00026720,0.00031010,-0.00
 080352,-0.00003179,0.00000115,-0.00029779,-0.00439723,0.00825678,0.012
 80846,0.00002195,0.00001071,-0.00006790,0.00004833,-0.00001201,0.00007
 182,-0.00012397,-0.00017277,-0.00050141,-0.04283587,0.12744357,-0.0002
 7602,0.00018804,-0.00004810,0.00008059,0.00020751,-0.00009842,-0.00034
 705,0.00092381,-0.00088326,-0.00190678,0.00096338,0.00123053,0.0009819
 6,0.00032461,0.00135458,-0.00022814,-0.00053482,0.00017219,0.00000322,
 0.00000802,0.00048087,0.06286645,-0.10960036,-0.19126991,0.00015956,0.
 00208339,0.00115170,-0.00062306,0.00075703,-0.00088361,-0.00021271,0.0
 0003561,-0.00009545,-0.00002613,0.00000981,-0.00008043,-0.00002387,0.0
 0032518,-0.00004884,0.00057010,-0.00006774,0.00017247,-0.00076206,-0.0
 0068507,0.00136296,0.00000730,-0.00001237,0.00006209,-0.00001303,0.000
 02176,-0.00002234,0.00000482,0.00002792,-0.00008185,-0.00035082,-0.000
 13461,-0.00025167,-0.00000914,-0.00003642,0.00004838,0.00797773,-0.013
 92850,-0.02386926,-0.00001250,0.00002219,-0.00002247,0.00003613,-0.000
 01012,0.00004697,0.00029150,0.00023768,-0.00025402,-0.06818807,0.11887
 406,0.21182689||0.00003422,-0.00001442,-0.00000072,-0.00002961,-0.0000
 0356,0.00000063,-0.00000647,0.00001886,0.00000190,0.00002271,0.0000032
 1,-0.00000132,-0.00001628,-0.00002151,0.00000005,-0.00000993,0.0000312
 8,-0.00000024,0.00001138,-0.00001945,-0.00000122,0.00001831,-0.0000318
 8,-0.00000265,-0.00001431,-0.00001788,-0.00000004,-0.00001327,0.000014
 85,-0.00000171,0.00001804,0.00002400,0.00000055,-0.00000021,-0.0000017
 6,0.00000022,-0.00000458,-0.00003715,0.00000025,-0.00002241,0.00002444
 ,-0.00000095,0.00002713,0.00000330,0.00000103,-0.00000221,0.00000384,0
 .00000007,-0.00000253,-0.00000112,0.00000019,0.00000160,-0.00000069,0.
 00000065,0.00000570,0.00000652,0.00000005,0.00000254,-0.00000493,0.000
 00006,-0.00000771,0.00001342,0.00000218,0.00000222,0.00000166,-0.00000
 034,0.00000302,-0.00000467,0.00000045,-0.00000855,-0.00000165,0.000000
 56,-0.00000880,0.00001531,0.00000038|||@


 The arm of the moral universe is long, but it bends toward justice.
 -- Martin Luther King, Jr.
 Job cpu time:  0 days  2 hours 14 minutes 39.0 seconds.
 File lengths (MBytes):  RWF=    322 Int=      0 D2E=      0 Chk=     10 Scr=      1
 Normal termination of Gaussian 09 at Wed Jan 21 15:00:54 2015.
