 argument  1 = nwex3.nw



============================== echo of input deck ==============================
echo

start molecule

title "Title"
charge 1

geometry units angstroms print xyz
symmetry c2v
   C       -3.71260        0.00000       -0.72126
   C       -2.48444        0.00000       -1.41410
   C       -1.25027        0.00000       -0.73189
   C       -1.27403        0.00000        0.68113
   C       -2.51356        0.00000        1.36784
   C       -3.72836        0.00000        0.67379
   C        0.00000        0.00000       -1.43536
   C        0.00000        0.00000        1.46513
   C        1.27403        0.00000        0.68113
   C        1.25027        0.00000       -0.73189
   C        2.48444        0.00000       -1.41410
   H        2.48826        0.00000       -2.50086
   C        3.71260        0.00000       -0.72126
   C        3.72836        0.00000        0.67379
   C        2.51356        0.00000        1.36784
   H        0.00000        0.00000       -2.51953
   H       -4.64105        0.00000       -1.28310
   H       -2.48826        0.00000       -2.50086
   H       -2.51344        0.00000        2.45478
   H       -4.66730        0.00000        1.21673
   H        0.00000        0.86417        2.15617
   H        4.64105        0.00000       -1.28310
   H        4.66730        0.00000        1.21673
   H        2.51344        0.00000        2.45478
   H        0.00000       -0.86417        2.15617
end

basis
  * library 6-311+G*
end

dft
  xc b3lyp
  mult 1
end

tddft
  cis
  nroots 5
  notriplet
  target 1
  targetsym a1
  civecs
  grad
    root 1
  end
end

task tddft optimize

================================================================================


                                         
                                         


              Northwest Computational Chemistry Package (NWChem) 6.8
              ------------------------------------------------------


                    Environmental Molecular Sciences Laboratory
                       Pacific Northwest National Laboratory
                                Richland, WA 99352

                              Copyright (c) 1994-2017
                       Pacific Northwest National Laboratory
                            Battelle Memorial Institute

             NWChem is an open-source computational chemistry package
                        distributed under the terms of the
                      Educational Community License (ECL) 2.0
             A copy of the license is included with this distribution
                              in the LICENSE.TXT file

                                  ACKNOWLEDGMENT
                                  --------------

            This software and its documentation were developed at the
            EMSL at Pacific Northwest National Laboratory, a multiprogram
            national laboratory, operated for the U.S. Department of Energy
            by Battelle under Contract Number DE-AC05-76RL01830. Support
            for this work was provided by the Department of Energy Office
            of Biological and Environmental Research, Office of Basic
            Energy Sciences, and the Office of Advanced Scientific Computing.


           Job information
           ---------------

    hostname        = wang
    program         = nwchem
    date            = Sat Aug  7 21:30:26 2021

    compiled        = Tue_Jul_24_14:45:34_2018
    source          = /home/stg121/Software/nwchem-6.8.1
    nwchem branch   = 6.8.1
    nwchem revision = v6.8-143-gdb0d96486
    ga revision     = 5.6.5
    use scalapack   = F
    input           = nwex3.nw
    prefix          = molecule.
    data base       = ./molecule.db
    status          = startup
    nproc           =        1
    time left       =     -1s



           Memory information
           ------------------

    heap     =   13107194 doubles =    100.0 Mbytes
    stack    =   13107199 doubles =    100.0 Mbytes
    global   =   26214400 doubles =    200.0 Mbytes (distinct from heap & stack)
    total    =   52428793 doubles =    400.0 Mbytes
    verify   = yes
    hardfail = no 


           Directory information
           ---------------------

  0 permanent = .
  0 scratch   = .




                                NWChem Input Module
                                -------------------


                                       Title
                                       -----

 Scaling coordinates for geometry "geometry" by  1.889725989
 (inverse scale =  0.529177249)

 Turning off AUTOSYM since
 SYMMETRY directive was detected!


          ------
          auto-z
          ------


                             Geometry "geometry" -> ""
                             -------------------------

 Output coordinates in angstroms (scale by  1.889725989 to convert to a.u.)

  No.       Tag          Charge          X              Y              Z
 ---- ---------------- ---------- -------------- -------------- --------------
    1 C                    6.0000    -3.71260000     0.00000000    -0.72139316
    2 C                    6.0000    -2.48444000     0.00000000    -1.41423316
    3 C                    6.0000    -1.25027000     0.00000000    -0.73202316
    4 C                    6.0000    -1.27403000     0.00000000     0.68099684
    5 C                    6.0000    -2.51356000     0.00000000     1.36770684
    6 C                    6.0000    -3.72836000     0.00000000     0.67365684
    7 C                    6.0000     0.00000000     0.00000000    -1.43549316
    8 C                    6.0000     0.00000000     0.00000000     1.46499684
    9 C                    6.0000     1.27403000     0.00000000     0.68099684
   10 C                    6.0000     1.25027000     0.00000000    -0.73202316
   11 C                    6.0000     2.48444000     0.00000000    -1.41423316
   12 H                    1.0000     2.48826000     0.00000000    -2.50099316
   13 C                    6.0000     3.71260000     0.00000000    -0.72139316
   14 C                    6.0000     3.72836000     0.00000000     0.67365684
   15 C                    6.0000     2.51356000     0.00000000     1.36770684
   16 H                    1.0000     0.00000000     0.00000000    -2.51966316
   17 H                    1.0000    -4.64105000     0.00000000    -1.28323316
   18 H                    1.0000    -2.48826000     0.00000000    -2.50099316
   19 H                    1.0000    -2.51344000     0.00000000     2.45464684
   20 H                    1.0000    -4.66730000     0.00000000     1.21659684
   21 H                    1.0000     0.00000000     0.86417000     2.15603684
   22 H                    1.0000     4.64105000     0.00000000    -1.28323316
   23 H                    1.0000     4.66730000     0.00000000     1.21659684
   24 H                    1.0000     2.51344000     0.00000000     2.45464684
   25 H                    1.0000     0.00000000    -0.86417000     2.15603684

      Atomic Mass 
      ----------- 

      C                 12.000000
      H                  1.007825


 Effective nuclear repulsion energy (a.u.)     775.9942101114

            Nuclear Dipole moment (a.u.) 
            ----------------------------
        X                 Y               Z
 ---------------- ---------------- ----------------
    -0.0000000000     0.0000000000    -0.0000000000

      Symmetry information
      --------------------

 Group name             C2v       
 Group number             16
 Group order               4
 No. of unique centers    14

      Symmetry unique atoms

     1    2    3    4    5    6    7    8   12   16   17   19   20   21



                                Z-matrix (autoz)
                                -------- 

 Units are Angstrom for bonds and degrees for angles

      Type          Name      I     J     K     L     M      Value
      ----------- --------  ----- ----- ----- ----- ----- ----------
    1 Stretch                  1     2                       1.41011
    2 Stretch                  1     6                       1.39514
    3 Stretch                  1    17                       1.08521
    4 Stretch                  2     3                       1.41017
    5 Stretch                  2    18                       1.08677
    6 Stretch                  3     4                       1.41322
    7 Stretch                  3     7                       1.43459
    8 Stretch                  4     5                       1.41704
    9 Stretch                  4     8                       1.49593
   10 Stretch                  5     6                       1.39909
   11 Stretch                  5    19                       1.08694
   12 Stretch                  6    20                       1.08462
   13 Stretch                  7    10                       1.43459
   14 Stretch                  7    16                       1.08417
   15 Stretch                  8     9                       1.49593
   16 Stretch                  8    21                       1.10649
   17 Stretch                  8    25                       1.10649
   18 Stretch                  9    10                       1.41322
   19 Stretch                  9    15                       1.41704
   20 Stretch                 10    11                       1.41017
   21 Stretch                 11    12                       1.08677
   22 Stretch                 11    13                       1.41011
   23 Stretch                 13    14                       1.39514
   24 Stretch                 13    22                       1.08521
   25 Stretch                 14    15                       1.39909
   26 Stretch                 14    23                       1.08462
   27 Stretch                 15    24                       1.08694
   28 Bend                     1     2     3               121.63899
   29 Bend                     1     2    18               119.22719
   30 Bend                     1     6     5               119.09332
   31 Bend                     1     6    20               120.68580
   32 Bend                     2     1     6               120.07583
   33 Bend                     2     1    17               119.39171
   34 Bend                     2     3     4               117.96908
   35 Bend                     2     3     7               121.70310
   36 Bend                     3     2    18               119.13382
   37 Bend                     3     4     5               119.95016
   38 Bend                     3     4     8               120.64356
   39 Bend                     3     7    10               121.27105
   40 Bend                     3     7    16               119.36448
   41 Bend                     4     3     7               120.32782
   42 Bend                     4     5     6               121.27262
   43 Bend                     4     5    19               118.98049
   44 Bend                     4     8     9               116.78620
   45 Bend                     4     8    21               109.10558
   46 Bend                     4     8    25               109.10558
   47 Bend                     5     4     8               119.40628
   48 Bend                     5     6    20               120.22088
   49 Bend                     6     1    17               120.53246
   50 Bend                     6     5    19               119.74689
   51 Bend                     7    10     9               120.32782
   52 Bend                     7    10    11               121.70310
   53 Bend                     8     9    10               120.64356
   54 Bend                     8     9    15               119.40628
   55 Bend                     9     8    21               109.10558
   56 Bend                     9     8    25               109.10558
   57 Bend                     9    10    11               117.96908
   58 Bend                     9    15    14               121.27262
   59 Bend                     9    15    24               118.98049
   60 Bend                    10     7    16               119.36448
   61 Bend                    10     9    15               119.95016
   62 Bend                    10    11    12               119.13382
   63 Bend                    10    11    13               121.63899
   64 Bend                    11    13    14               120.07583
   65 Bend                    11    13    22               119.39171
   66 Bend                    12    11    13               119.22719
   67 Bend                    13    14    15               119.09332
   68 Bend                    13    14    23               120.68580
   69 Bend                    14    13    22               120.53246
   70 Bend                    14    15    24               119.74689
   71 Bend                    15    14    23               120.22088
   72 Bend                    21     8    25               102.70432
   73 Torsion                  1     2     3     4           0.00000
   74 Torsion                  1     2     3     7         180.00000
   75 Torsion                  1     6     5     4           0.00000
   76 Torsion                  1     6     5    19         180.00000
   77 Torsion                  2     1     6     5           0.00000
   78 Torsion                  2     1     6    20         180.00000
   79 Torsion                  2     3     4     5           0.00000
   80 Torsion                  2     3     4     8         180.00000
   81 Torsion                  2     3     7    10         180.00000
   82 Torsion                  2     3     7    16           0.00000
   83 Torsion                  3     2     1     6           0.00000
   84 Torsion                  3     2     1    17         180.00000
   85 Torsion                  3     4     5     6          -0.00000
   86 Torsion                  3     4     5    19         180.00000
   87 Torsion                  3     4     8     9           0.00000
   88 Torsion                  3     4     8    21         124.25640
   89 Torsion                  3     4     8    25        -124.25640
   90 Torsion                  3     7    10     9           0.00000
   91 Torsion                  3     7    10    11         180.00000
   92 Torsion                  4     3     2    18         180.00000
   93 Torsion                  4     3     7    10           0.00000
   94 Torsion                  4     3     7    16         180.00000
   95 Torsion                  4     5     6    20         180.00000
   96 Torsion                  4     8     9    10           0.00000
   97 Torsion                  4     8     9    15         180.00000
   98 Torsion                  5     4     3     7         180.00000
   99 Torsion                  5     4     8     9         180.00000
  100 Torsion                  5     4     8    21         -55.74360
  101 Torsion                  5     4     8    25          55.74360
  102 Torsion                  5     6     1    17         180.00000
  103 Torsion                  6     1     2    18         180.00000
  104 Torsion                  6     5     4     8         180.00000
  105 Torsion                  7     3     2    18           0.00000
  106 Torsion                  7     3     4     8           0.00000
  107 Torsion                  7    10     9     8           0.00000
  108 Torsion                  7    10     9    15         180.00000
  109 Torsion                  7    10    11    12           0.00000
  110 Torsion                  7    10    11    13         180.00000
  111 Torsion                  8     4     5    19           0.00000
  112 Torsion                  8     9    10    11         180.00000
  113 Torsion                  8     9    15    14         180.00000
  114 Torsion                  8     9    15    24           0.00000
  115 Torsion                  9    10     7    16         180.00000
  116 Torsion                  9    10    11    12         180.00000
  117 Torsion                  9    10    11    13          -0.00000
  118 Torsion                  9    15    14    13           0.00000
  119 Torsion                  9    15    14    23         180.00000
  120 Torsion                 10     9     8    21        -124.25640
  121 Torsion                 10     9     8    25         124.25640
  122 Torsion                 10     9    15    14           0.00000
  123 Torsion                 10     9    15    24         180.00000
  124 Torsion                 10    11    13    14           0.00000
  125 Torsion                 10    11    13    22         180.00000
  126 Torsion                 11    10     7    16           0.00000
  127 Torsion                 11    10     9    15           0.00000
  128 Torsion                 11    13    14    15           0.00000
  129 Torsion                 11    13    14    23         180.00000
  130 Torsion                 12    11    13    14         180.00000
  131 Torsion                 12    11    13    22           0.00000
  132 Torsion                 13    14    15    24         180.00000
  133 Torsion                 15     9     8    21          55.74360
  134 Torsion                 15     9     8    25         -55.74360
  135 Torsion                 15    14    13    22         180.00000
  136 Torsion                 17     1     2    18           0.00000
  137 Torsion                 17     1     6    20           0.00000
  138 Torsion                 19     5     6    20           0.00000
  139 Torsion                 22    13    14    23           0.00000
  140 Torsion                 23    14    15    24           0.00000


            XYZ format geometry
            -------------------
    25
 geometry
 C                    -3.71260000     0.00000000    -0.72139316
 C                    -2.48444000     0.00000000    -1.41423316
 C                    -1.25027000     0.00000000    -0.73202316
 C                    -1.27403000     0.00000000     0.68099684
 C                    -2.51356000     0.00000000     1.36770684
 C                    -3.72836000     0.00000000     0.67365684
 C                     0.00000000     0.00000000    -1.43549316
 C                     0.00000000     0.00000000     1.46499684
 C                     1.27403000     0.00000000     0.68099684
 C                     1.25027000     0.00000000    -0.73202316
 C                     2.48444000     0.00000000    -1.41423316
 H                     2.48826000     0.00000000    -2.50099316
 C                     3.71260000     0.00000000    -0.72139316
 C                     3.72836000     0.00000000     0.67365684
 C                     2.51356000     0.00000000     1.36770684
 H                     0.00000000     0.00000000    -2.51966316
 H                    -4.64105000     0.00000000    -1.28323316
 H                    -2.48826000     0.00000000    -2.50099316
 H                    -2.51344000     0.00000000     2.45464684
 H                    -4.66730000     0.00000000     1.21659684
 H                     0.00000000     0.86417000     2.15603684
 H                     4.64105000     0.00000000    -1.28323316
 H                     4.66730000     0.00000000     1.21659684
 H                     2.51344000     0.00000000     2.45464684
 H                     0.00000000    -0.86417000     2.15603684

 ==============================================================================
                                internuclear distances
 ------------------------------------------------------------------------------
       center one      |      center two      | atomic units |  angstroms
 ------------------------------------------------------------------------------
    2 C                |   1 C                |     2.66472  |     1.41011
    3 C                |   2 C                |     2.66484  |     1.41017
    4 C                |   3 C                |     2.67060  |     1.41322
    5 C                |   4 C                |     2.67782  |     1.41704
    6 C                |   1 C                |     2.63643  |     1.39514
    6 C                |   5 C                |     2.64389  |     1.39909
    7 C                |   3 C                |     2.71098  |     1.43459
    8 C                |   4 C                |     2.82690  |     1.49593
    9 C                |   8 C                |     2.82690  |     1.49593
   10 C                |   7 C                |     2.71098  |     1.43459
   10 C                |   9 C                |     2.67060  |     1.41322
   11 C                |  10 C                |     2.66484  |     1.41017
   12 H                |  11 C                |     2.05369  |     1.08677
   13 C                |  11 C                |     2.66472  |     1.41011
   14 C                |  13 C                |     2.63643  |     1.39514
   15 C                |   9 C                |     2.67782  |     1.41704
   15 C                |  14 C                |     2.64389  |     1.39909
   16 H                |   7 C                |     2.04878  |     1.08417
   17 H                |   1 C                |     2.05075  |     1.08521
   18 H                |   2 C                |     2.05369  |     1.08677
   19 H                |   5 C                |     2.05402  |     1.08694
   20 H                |   6 C                |     2.04963  |     1.08462
   21 H                |   8 C                |     2.09097  |     1.10649
   22 H                |  13 C                |     2.05075  |     1.08521
   23 H                |  14 C                |     2.04963  |     1.08462
   24 H                |  15 C                |     2.05402  |     1.08694
   25 H                |   8 C                |     2.09097  |     1.10649
 ------------------------------------------------------------------------------
                         number of included internuclear distances:         27
 ==============================================================================



 ==============================================================================
                                 internuclear angles
 ------------------------------------------------------------------------------
        center 1       |       center 2       |       center 3       |  degrees
 ------------------------------------------------------------------------------
    2 C                |   1 C                |   6 C                |   120.08
    2 C                |   1 C                |  17 H                |   119.39
    6 C                |   1 C                |  17 H                |   120.53
    1 C                |   2 C                |   3 C                |   121.64
    1 C                |   2 C                |  18 H                |   119.23
    3 C                |   2 C                |  18 H                |   119.13
    2 C                |   3 C                |   4 C                |   117.97
    2 C                |   3 C                |   7 C                |   121.70
    4 C                |   3 C                |   7 C                |   120.33
    3 C                |   4 C                |   5 C                |   119.95
    3 C                |   4 C                |   8 C                |   120.64
    5 C                |   4 C                |   8 C                |   119.41
    4 C                |   5 C                |   6 C                |   121.27
    4 C                |   5 C                |  19 H                |   118.98
    6 C                |   5 C                |  19 H                |   119.75
    1 C                |   6 C                |   5 C                |   119.09
    1 C                |   6 C                |  20 H                |   120.69
    5 C                |   6 C                |  20 H                |   120.22
    3 C                |   7 C                |  10 C                |   121.27
    3 C                |   7 C                |  16 H                |   119.36
   10 C                |   7 C                |  16 H                |   119.36
    4 C                |   8 C                |   9 C                |   116.79
    4 C                |   8 C                |  21 H                |   109.11
    4 C                |   8 C                |  25 H                |   109.11
    9 C                |   8 C                |  21 H                |   109.11
    9 C                |   8 C                |  25 H                |   109.11
   21 H                |   8 C                |  25 H                |   102.70
    8 C                |   9 C                |  10 C                |   120.64
    8 C                |   9 C                |  15 C                |   119.41
   10 C                |   9 C                |  15 C                |   119.95
    7 C                |  10 C                |   9 C                |   120.33
    7 C                |  10 C                |  11 C                |   121.70
    9 C                |  10 C                |  11 C                |   117.97
   10 C                |  11 C                |  12 H                |   119.13
   10 C                |  11 C                |  13 C                |   121.64
   12 H                |  11 C                |  13 C                |   119.23
   11 C                |  13 C                |  14 C                |   120.08
   11 C                |  13 C                |  22 H                |   119.39
   14 C                |  13 C                |  22 H                |   120.53
   13 C                |  14 C                |  15 C                |   119.09
   13 C                |  14 C                |  23 H                |   120.69
   15 C                |  14 C                |  23 H                |   120.22
    9 C                |  15 C                |  14 C                |   121.27
    9 C                |  15 C                |  24 H                |   118.98
   14 C                |  15 C                |  24 H                |   119.75
 ------------------------------------------------------------------------------
                            number of included internuclear angles:         45
 ==============================================================================





 Summary of "ao basis" -> "" (cartesian)
 ------------------------------------------------------------------------------
       Tag                 Description            Shells   Functions and Types
 ---------------- ------------------------------  ------  ---------------------
 *                          6-311+G*                  on all atoms 


 tddft_input: filename not found; default name will be used


                           NWChem Geometry Optimization
                           ----------------------------




                                       Title


 maximum gradient threshold         (gmax) =   0.000450
 rms gradient threshold             (grms) =   0.000300
 maximum cartesian step threshold   (xmax) =   0.001800
 rms cartesian step threshold       (xrms) =   0.001200
 fixed trust radius                (trust) =   0.300000
 maximum step size to saddle      (sadstp) =   0.100000
 energy precision                  (eprec) =   1.0D-07
 maximum number of steps          (nptopt) =   20
 initial hessian option           (inhess) =    0
 line search option               (linopt) =    1
 hessian update option            (modupd) =    1
 saddle point option              (modsad) =    0
 initial eigen-mode to follow     (moddir) =    0
 initial variable to follow       (vardir) =    0
 follow first negative mode     (firstneg) =    T
 apply conjugacy                    (opcg) =    F
 source of zmatrix                         =   autoz   


          -------------------
          Energy Minimization
          -------------------


 Names of Z-matrix variables 
    1              2              3              4              5         
    6              7              8              9             10         
   11             12             13             14             15         
   16             17             18             19             20         
   21             22             23             24             25         
   26             27             28             29             30         
   31             32             33             34             35         
   36             37             38             39             40         
   41             42             43             44             45         
   46             47             48             49             50         
   51             52             53             54             55         
   56             57             58             59             60         
   61             62             63             64             65         
   66             67             68             69             70         
   71             72             73             74             75         
   76             77             78             79             80         
   81             82             83             84             85         
   86             87             88             89             90         
   91             92             93             94             95         
   96             97             98             99            100         
  101            102            103            104            105         
  106            107            108            109            110         
  111            112            113            114            115         
  116            117            118            119            120         
  121            122            123            124            125         
  126            127            128            129            130         
  131            132            133            134            135         
  136            137            138            139            140         

 Variables with the same non-blank name are constrained to be equal


 Using old Hessian from previous optimization

          --------
          Step   0
          --------


                         Geometry "geometry" -> "geometry"
                         ---------------------------------

 Output coordinates in angstroms (scale by  1.889725989 to convert to a.u.)

  No.       Tag          Charge          X              Y              Z
 ---- ---------------- ---------- -------------- -------------- --------------
    1 C                    6.0000    -3.71260000     0.00000000    -0.72139316
    2 C                    6.0000    -2.48444000     0.00000000    -1.41423316
    3 C                    6.0000    -1.25027000     0.00000000    -0.73202316
    4 C                    6.0000    -1.27403000     0.00000000     0.68099684
    5 C                    6.0000    -2.51356000     0.00000000     1.36770684
    6 C                    6.0000    -3.72836000     0.00000000     0.67365684
    7 C                    6.0000     0.00000000     0.00000000    -1.43549316
    8 C                    6.0000     0.00000000     0.00000000     1.46499684
    9 C                    6.0000     1.27403000     0.00000000     0.68099684
   10 C                    6.0000     1.25027000     0.00000000    -0.73202316
   11 C                    6.0000     2.48444000     0.00000000    -1.41423316
   12 H                    1.0000     2.48826000     0.00000000    -2.50099316
   13 C                    6.0000     3.71260000     0.00000000    -0.72139316
   14 C                    6.0000     3.72836000     0.00000000     0.67365684
   15 C                    6.0000     2.51356000     0.00000000     1.36770684
   16 H                    1.0000     0.00000000     0.00000000    -2.51966316
   17 H                    1.0000    -4.64105000     0.00000000    -1.28323316
   18 H                    1.0000    -2.48826000     0.00000000    -2.50099316
   19 H                    1.0000    -2.51344000     0.00000000     2.45464684
   20 H                    1.0000    -4.66730000     0.00000000     1.21659684
   21 H                    1.0000     0.00000000     0.86417000     2.15603684
   22 H                    1.0000     4.64105000     0.00000000    -1.28323316
   23 H                    1.0000     4.66730000     0.00000000     1.21659684
   24 H                    1.0000     2.51344000     0.00000000     2.45464684
   25 H                    1.0000     0.00000000    -0.86417000     2.15603684

      Atomic Mass 
      ----------- 

      C                 12.000000
      H                  1.007825


 Effective nuclear repulsion energy (a.u.)     775.9942101114

            Nuclear Dipole moment (a.u.) 
            ----------------------------
        X                 Y               Z
 ---------------- ---------------- ----------------
    -0.0000000000     0.0000000000    -0.0000000000

      Symmetry information
      --------------------

 Group name             C2v       
 Group number             16
 Group order               4
 No. of unique centers    14

      Symmetry unique atoms

     1    2    3    4    5    6    7    8   12   16   17   19   20   21


                                 NWChem DFT Module
                                 -----------------


                                       Title


                      Basis "ao basis" -> "ao basis" (cartesian)
                      -----
  C (Carbon)
  ----------
            Exponent  Coefficients 
       -------------- ---------------------------------------------------------
  1 S  4.56324000E+03  0.001967
  1 S  6.82024000E+02  0.015231
  1 S  1.54973000E+02  0.076127
  1 S  4.44553000E+01  0.260801
  1 S  1.30290000E+01  0.616462
  1 S  1.82773000E+00  0.221006

  2 S  2.09642000E+01  0.114660
  2 S  4.80331000E+00  0.919999
  2 S  1.45933000E+00 -0.003031

  3 P  2.09642000E+01  0.040249
  3 P  4.80331000E+00  0.237594
  3 P  1.45933000E+00  0.815854

  4 S  4.83456000E-01  1.000000

  5 P  4.83456000E-01  1.000000

  6 S  1.45585000E-01  1.000000

  7 P  1.45585000E-01  1.000000

  8 S  4.38000000E-02  1.000000

  9 P  4.38000000E-02  1.000000

 10 D  6.26000000E-01  1.000000

  H (Hydrogen)
  ------------
            Exponent  Coefficients 
       -------------- ---------------------------------------------------------
  1 S  3.38650000E+01  0.025494
  1 S  5.09479000E+00  0.190373
  1 S  1.15879000E+00  0.852161

  2 S  3.25840000E-01  1.000000

  3 S  1.02741000E-01  1.000000



 Summary of "ao basis" -> "ao basis" (cartesian)
 ------------------------------------------------------------------------------
       Tag                 Description            Shells   Functions and Types
 ---------------- ------------------------------  ------  ---------------------
 C                          6-311+G*                10       23   5s4p1d
 H                          6-311+G*                 3        3   3s




 Summary of "ao basis" -> "ao basis" (cartesian)
 ------------------------------------------------------------------------------
       Tag                 Description            Shells   Functions and Types
 ---------------- ------------------------------  ------  ---------------------
 C                          6-311+G*                10       23   5s4p1d
 H                          6-311+G*                 3        3   3s


      Symmetry analysis of basis
      --------------------------

        a1        144
        a2         38
        b1        124
        b2         49

  Caching 1-el integrals 

            General Information
            -------------------
          SCF calculation type: DFT
          Wavefunction type:  closed shell.
          No. of atoms     :    25
          No. of electrons :    94
           Alpha electrons :    47
            Beta electrons :    47
          Charge           :     1
          Spin multiplicity:     1
          Use of symmetry is: off; symmetry adaption is: on 
          Maximum number of iterations:  30
          AO basis - number of functions:   355
                     number of shells:   173
          Convergence on energy requested:  1.00D-06
          Convergence on density requested:  1.00D-05
          Convergence on gradient requested:  5.00D-04

              XC Information
              --------------
                         B3LYP Method XC Potential
                     Hartree-Fock (Exact) Exchange  0.200          
                        Slater Exchange Functional  0.800 local    
                    Becke 1988 Exchange Functional  0.720 non-local
              Lee-Yang-Parr Correlation Functional  0.810          
                  VWN I RPA Correlation Functional  0.190 local    

             Grid Information
             ----------------
          Grid used for XC integration:  medium    
          Radial quadrature: Mura-Knowles        
          Angular quadrature: Lebedev. 
          Tag              B.-S. Rad. Rad. Pts. Rad. Cut. Ang. Pts.
          ---              ---------- --------- --------- ---------
          C                   0.70       49          19.0       434
          H                   0.35       45          21.0       434
          Grid pruning is: on 
          Number of quadrature shells:  1181
          Spatial weights used:  Erf1

          Convergence Information
          -----------------------
          Convergence aids based upon iterative change in 
          total energy or number of iterations. 
          Levelshifting, if invoked, occurs when the 
          HOMO/LUMO gap drops below (HL_TOL):  1.00D-02
          DIIS, if invoked, will attempt to extrapolate 
          using up to (NFOCK): 10 stored Fock matrices.

                    Damping( 0%)  Levelshifting(0.5)       DIIS
                  --------------- ------------------- ---------------
          dE  on:    start            ASAP                start   
          dE off:    2 iters         30 iters            30 iters 


      Screening Tolerance Information
      -------------------------------
          Density screening/tol_rho:  1.00D-10
          AO Gaussian exp screening on grid/accAOfunc:  14
          CD Gaussian exp screening on grid/accCDfunc:  20
          XC Gaussian exp screening on grid/accXCfunc:  20
          Schwarz screening/accCoul:  1.00D-08


 WARNING : Found    11 linear dependencies 
 S eigenvalue threshold:     1.00000E-05
 Smallest S eigenvalue :     1.00746E-07
 Largest  S eigenvalue :     9.47965E-06


 !! The overlap matrix has  11 vectors deemed linearly dependent with
    eigenvalues:
 1.01D-07 1.08D-07 6.42D-07 6.64D-07 6.79D-07 1.15D-06 1.75D-06 3.54D-06
 5.77D-06 7.00D-06 9.48D-06


      Superposition of Atomic Density Guess
      -------------------------------------

 Sum of atomic energies:        -532.86555143

 Renormalizing density from      95.00 to     94

      Non-variational initial energy
      ------------------------------

 Total energy =    -539.183661
 1-e energy   =   -2230.790703
 2-e energy   =     915.612832
 HOMO         =      -0.470880
 LUMO         =      -0.347251


      Symmetry analysis of molecular orbitals - initial
      -------------------------------------------------

  Numbering of irreducible representations: 

     1 a1          2 a2          3 b1          4 b2      

  Orbital symmetries:

     1 a1          2 b1          3 a1          4 b1          5 a1      
     6 a1          7 b1          8 a1          9 b1         10 a1      
    11 b1         12 a1         13 b1         14 a1         15 a1      
    16 b1         17 a1         18 a1         19 b1         20 b1      
    21 a1         22 a1         23 a1         24 b1         25 b1      
    26 a1         27 b1         28 a1         29 b1         30 b2      
    31 a1         32 a1         33 b1         34 b1         35 b1      
    36 a1         37 a2         38 b2         39 a1         40 a1      
    41 b1         42 b2         43 a1         44 b1         45 a2      
    46 a2         47 b2         48 b2         49 b2         50 a2      
    51 a2         52 b2         53 a1         54 b1         55 a1      
    56 a1         57 b2      

   Time after variat. SCF:    182.9
   Time prior to 1st pass:    182.9

 Integral file          = ./molecule.aoints.0
 Record size in doubles =  65536        No. of integs per rec  =  32766
 Max. records in memory =      0        Max. records in file   =   4918
 No. of bits per label  =     16        No. of bits per value  =     64


 #quartets = 7.101D+07 #integrals = 6.330D+08 #direct = 74.5% #cached = 25.5%


 Grid_pts file          = ./molecule.gridpts.0
 Record size in doubles =  12289        No. of grid_pts per rec  =   3070
 Max. records in memory =    185        Max. recs in file   =      1824

 Grid integrated density:      95.459133813540
 Requested integration accuracy:   0.10E-05

 !! scf_movecs_sym_adapt:  248 vectors were symmetry contaminated

  Symmetry fudging

 !! scf_movecs_sym_adapt:   77 vectors were symmetry contaminated


           Memory utilization after 1st SCF pass: 
           Heap Space remaining (MW):       10.81            10814818
          Stack Space remaining (MW):       13.10            13104468

   convergence    iter        energy       DeltaE   RMS-Dens  Diis-err    time
 ---------------- ----- ----------------- --------- --------- ---------  ------
 d= 0,ls=0.0,diis     1   -540.5388771699 -1.32D+03  1.07D-02  4.48D+00   396.5

 !! scf_movecs_sym_adapt:  252 vectors were symmetry contaminated

  Symmetry fudging

 !! scf_movecs_sym_adapt:   84 vectors were symmetry contaminated

 d= 0,ls=0.0,diis     2   -539.7502046292  7.89D-01  7.82D-03  1.51D+00   554.7

 !! scf_movecs_sym_adapt:  250 vectors were symmetry contaminated

  Symmetry fudging

 !! scf_movecs_sym_adapt:   79 vectors were symmetry contaminated

 d= 0,ls=0.0,diis     3   -539.6880974964  6.21D-02  3.84D-03  2.05D+00   718.3

 !! scf_movecs_sym_adapt:  249 vectors were symmetry contaminated

  Symmetry fudging

 !! scf_movecs_sym_adapt:   78 vectors were symmetry contaminated

 d= 0,ls=0.0,diis     4   -539.9831128995 -2.95D-01  1.09D-03  7.14D-02   881.7

 !! scf_movecs_sym_adapt:  248 vectors were symmetry contaminated

  Symmetry fudging

 !! scf_movecs_sym_adapt:   72 vectors were symmetry contaminated

 d= 0,ls=0.0,diis     5   -539.9905886013 -7.48D-03  3.60D-04  1.44D-02  1045.6

 !! scf_movecs_sym_adapt:  234 vectors were symmetry contaminated

  Symmetry fudging

 !! scf_movecs_sym_adapt:   49 vectors were symmetry contaminated

  Resetting Diis
 d= 0,ls=0.0,diis     6   -539.9924397266 -1.85D-03  4.11D-04  2.44D-03  1216.2

 !! scf_movecs_sym_adapt:   24 vectors were symmetry contaminated

  Symmetry fudging
 d= 0,ls=0.0,diis     7   -539.9927286199 -2.89D-04  5.51D-04  1.93D-04  1382.7

 !! scf_movecs_sym_adapt:   18 vectors were symmetry contaminated

  Symmetry fudging
 d= 0,ls=0.0,diis     8   -539.9926199307  1.09D-04  8.21D-05  9.56D-04  1549.0

 !! scf_movecs_sym_adapt:   18 vectors were symmetry contaminated

  Symmetry fudging
 d= 0,ls=0.0,diis     9   -539.9927577766 -1.38D-04  1.29D-05  6.28D-06  1716.7

 !! scf_movecs_sym_adapt:   18 vectors were symmetry contaminated

  Symmetry fudging
 d= 0,ls=0.0,diis    10   -539.9927585559 -7.79D-07  3.58D-06  7.49D-07  1886.5


         Total DFT energy =     -539.992758555925
      One electron energy =    -2251.512386626507
           Coulomb energy =     1015.324511851852
    Exchange-Corr. energy =      -79.799093892650
 Nuclear repulsion energy =      775.994210111380

 Numeric. integr. density =       94.000026644559

     Total iterative time =   1703.5s



                  Occupations of the irreducible representations
                  ----------------------------------------------

                     irrep           alpha         beta
                     --------     --------     --------
                     a1               22.0         22.0
                     a2                3.0          3.0
                     b1               18.0         18.0
                     b2                4.0          4.0


                       DFT Final Molecular Orbital Analysis
                       ------------------------------------

 Vector    1  Occ=2.000000D+00  E=-1.040711D+01  Symmetry=a1
              MO Center= -6.5D-15, -5.2D-16, -1.4D+00, r^2= 2.8D-02
   Bfn.  Coefficient  Atom+Function         Bfn.  Coefficient  Atom+Function  
  ----- ------------  ---------------      ----- ------------  ---------------
   139      0.563637   7 C  s               140      0.459479   7 C  s         

 Vector    2  Occ=2.000000D+00  E=-1.036793D+01  Symmetry=b1
              MO Center= -1.9D-15, -2.5D-28,  6.8D-01, r^2= 1.7D+00
   Bfn.  Coefficient  Atom+Function         Bfn.  Coefficient  Atom+Function  
  ----- ------------  ---------------      ----- ------------  ---------------
    70      0.397874   4 C  s               185     -0.397874   9 C  s         
    71      0.324282   4 C  s               186     -0.324282   9 C  s         

 Vector    3  Occ=2.000000D+00  E=-1.036793D+01  Symmetry=a1
              MO Center= -6.2D-16,  5.9D-22,  6.8D-01, r^2= 1.7D+00
   Bfn.  Coefficient  Atom+Function         Bfn.  Coefficient  Atom+Function  
  ----- ------------  ---------------      ----- ------------  ---------------
    70      0.397876   4 C  s               185      0.397876   9 C  s         
    71      0.324250   4 C  s               186      0.324250   9 C  s         

 Vector    4  Occ=2.000000D+00  E=-1.036350D+01  Symmetry=b1
              MO Center=  7.3D-15,  2.2D-28, -7.3D-01, r^2= 1.6D+00
   Bfn.  Coefficient  Atom+Function         Bfn.  Coefficient  Atom+Function  
  ----- ------------  ---------------      ----- ------------  ---------------
    47      0.397800   3 C  s               208     -0.397800  10 C  s         
    48      0.324189   3 C  s               209     -0.324189  10 C  s         

 Vector    5  Occ=2.000000D+00  E=-1.036350D+01  Symmetry=a1
              MO Center=  5.9D-16, -4.1D-22, -7.3D-01, r^2= 1.6D+00
   Bfn.  Coefficient  Atom+Function         Bfn.  Coefficient  Atom+Function  
  ----- ------------  ---------------      ----- ------------  ---------------
    47      0.397818   3 C  s               208      0.397818  10 C  s         
    48      0.324163   3 C  s               209      0.324163  10 C  s         

 Vector    6  Occ=2.000000D+00  E=-1.034970D+01  Symmetry=b1
              MO Center=  1.5D-15,  5.7D-31, -1.4D+00, r^2= 6.2D+00
   Bfn.  Coefficient  Atom+Function         Bfn.  Coefficient  Atom+Function  
  ----- ------------  ---------------      ----- ------------  ---------------
    24      0.398394   2 C  s               231     -0.398394  11 C  s         
    25      0.324734   2 C  s               232     -0.324734  11 C  s         

 Vector    7  Occ=2.000000D+00  E=-1.034970D+01  Symmetry=a1
              MO Center= -1.6D-16,  1.8D-23, -1.4D+00, r^2= 6.2D+00
   Bfn.  Coefficient  Atom+Function         Bfn.  Coefficient  Atom+Function  
  ----- ------------  ---------------      ----- ------------  ---------------
    24      0.398394   2 C  s               231      0.398394  11 C  s         
    25      0.324731   2 C  s               232      0.324731  11 C  s         

 Vector    8  Occ=2.000000D+00  E=-1.034959D+01  Symmetry=a1
              MO Center=  1.4D-19, -2.6D-21,  1.5D+00, r^2= 2.8D-02
   Bfn.  Coefficient  Atom+Function         Bfn.  Coefficient  Atom+Function  
  ----- ------------  ---------------      ----- ------------  ---------------
   162      0.563657   8 C  s               163      0.459226   8 C  s         
   171      0.029371   8 C  s         

 Vector    9  Occ=2.000000D+00  E=-1.034763D+01  Symmetry=b1
              MO Center=  1.3D-15, -1.7D-29,  6.7D-01, r^2= 1.4D+01
   Bfn.  Coefficient  Atom+Function         Bfn.  Coefficient  Atom+Function  
  ----- ------------  ---------------      ----- ------------  ---------------
   116      0.398219   6 C  s               280     -0.398219  14 C  s         
   117      0.324600   6 C  s               281     -0.324600  14 C  s         

 Vector   10  Occ=2.000000D+00  E=-1.034763D+01  Symmetry=a1
              MO Center=  0.0D+00,  2.6D-23,  6.7D-01, r^2= 1.4D+01
   Bfn.  Coefficient  Atom+Function         Bfn.  Coefficient  Atom+Function  
  ----- ------------  ---------------      ----- ------------  ---------------
   116      0.398219   6 C  s               280      0.398219  14 C  s         
   117      0.324604   6 C  s               281      0.324604  14 C  s         

 Vector   11  Occ=2.000000D+00  E=-1.033851D+01  Symmetry=a1
              MO Center= -8.9D-16, -8.1D-23,  1.4D+00, r^2= 6.4D+00
   Bfn.  Coefficient  Atom+Function         Bfn.  Coefficient  Atom+Function  
  ----- ------------  ---------------      ----- ------------  ---------------
    93      0.398328   5 C  s               303      0.398328  15 C  s         
    94      0.324662   5 C  s               304      0.324662  15 C  s         

 Vector   12  Occ=2.000000D+00  E=-1.033851D+01  Symmetry=b1
              MO Center= -1.8D-15, -1.1D-30,  1.4D+00, r^2= 6.4D+00
   Bfn.  Coefficient  Atom+Function         Bfn.  Coefficient  Atom+Function  
  ----- ------------  ---------------      ----- ------------  ---------------
    93      0.398328   5 C  s               303     -0.398328  15 C  s         
    94      0.324664   5 C  s               304     -0.324664  15 C  s         

 Vector   13  Occ=2.000000D+00  E=-1.033547D+01  Symmetry=b1
              MO Center=  4.4D-16,  1.7D-29, -7.2D-01, r^2= 1.4D+01
   Bfn.  Coefficient  Atom+Function         Bfn.  Coefficient  Atom+Function  
  ----- ------------  ---------------      ----- ------------  ---------------
     1      0.398350   1 C  s               257     -0.398350  13 C  s         
     2      0.324686   1 C  s               258     -0.324686  13 C  s         

 Vector   14  Occ=2.000000D+00  E=-1.033547D+01  Symmetry=a1
              MO Center=  1.6D-15,  1.4D-23, -7.2D-01, r^2= 1.4D+01
   Bfn.  Coefficient  Atom+Function         Bfn.  Coefficient  Atom+Function  
  ----- ------------  ---------------      ----- ------------  ---------------
     1      0.398350   1 C  s               257      0.398350  13 C  s         
     2      0.324688   1 C  s               258      0.324688  13 C  s         

 Vector   15  Occ=2.000000D+00  E=-1.053696D+00  Symmetry=a1
              MO Center= -5.9D-09, -9.7D-10, -1.5D-01, r^2= 4.2D+00
   Bfn.  Coefficient  Atom+Function         Bfn.  Coefficient  Atom+Function  
  ----- ------------  ---------------      ----- ------------  ---------------
    52      0.205113   3 C  s               213      0.205113  10 C  s         
    75      0.183433   4 C  s               144      0.184174   7 C  s         
   190      0.183433   9 C  s               167      0.135684   8 C  s         
    29      0.106801   2 C  s               236      0.106801  11 C  s         
   175      0.101242   8 C  s                98      0.094895   5 C  s         

 Vector   16  Occ=2.000000D+00  E=-1.018411D+00  Symmetry=b1
              MO Center=  5.8D-09,  8.5D-14, -6.1D-02, r^2= 7.9D+00
   Bfn.  Coefficient  Atom+Function         Bfn.  Coefficient  Atom+Function  
  ----- ------------  ---------------      ----- ------------  ---------------
    52      0.161902   3 C  s               213     -0.161902  10 C  s         
    75      0.153364   4 C  s               190     -0.153364   9 C  s         
    29      0.150327   2 C  s               236     -0.150327  11 C  s         
    98      0.142091   5 C  s               308     -0.142091  15 C  s         
   121      0.140069   6 C  s               285     -0.140069  14 C  s         

 Vector   17  Occ=2.000000D+00  E=-9.668729D-01  Symmetry=a1
              MO Center= -1.4D-11,  2.4D-12, -1.1D-01, r^2= 9.5D+00
   Bfn.  Coefficient  Atom+Function         Bfn.  Coefficient  Atom+Function  
  ----- ------------  ---------------      ----- ------------  ---------------
   144      0.225698   7 C  s               121     -0.200473   6 C  s         
   285     -0.200473  14 C  s               175      0.171025   8 C  s         
     6     -0.166852   1 C  s               262     -0.166852  13 C  s         
   152      0.146950   7 C  s                98     -0.141799   5 C  s         
   308     -0.141799  15 C  s               148      0.114911   7 C  s         

 Vector   18  Occ=2.000000D+00  E=-9.548846D-01  Symmetry=a1
              MO Center=  3.3D-11, -9.4D-13,  2.4D-01, r^2= 5.1D+00
   Bfn.  Coefficient  Atom+Function         Bfn.  Coefficient  Atom+Function  
  ----- ------------  ---------------      ----- ------------  ---------------
   167      0.278778   8 C  s               171      0.181396   8 C  s         
    75      0.166234   4 C  s               190      0.166234   9 C  s         
   144     -0.163261   7 C  s                29     -0.146961   2 C  s         
   236     -0.146961  11 C  s               175      0.142959   8 C  s         
   152      0.124209   7 C  s               148     -0.106125   7 C  s         

 Vector   19  Occ=2.000000D+00  E=-9.159448D-01  Symmetry=b1
              MO Center=  8.8D-11,  3.5D-12, -7.4D-02, r^2= 9.0D+00
   Bfn.  Coefficient  Atom+Function         Bfn.  Coefficient  Atom+Function  
  ----- ------------  ---------------      ----- ------------  ---------------
    52      0.209154   3 C  s               213     -0.209154  10 C  s         
   121     -0.203536   6 C  s               285      0.203536  14 C  s         
    98     -0.155957   5 C  s               308      0.155957  15 C  s         
    29      0.145437   2 C  s               236     -0.145437  11 C  s         
   125     -0.109805   6 C  s               289      0.109805  14 C  s         

 Vector   20  Occ=2.000000D+00  E=-9.058561D-01  Symmetry=b1
              MO Center=  1.6D-10,  3.2D-12,  1.6D-02, r^2= 9.1D+00
   Bfn.  Coefficient  Atom+Function         Bfn.  Coefficient  Atom+Function  
  ----- ------------  ---------------      ----- ------------  ---------------
    75     -0.213055   4 C  s               190      0.213055   9 C  s         
     6      0.204694   1 C  s               262     -0.204694  13 C  s         
    29      0.146754   2 C  s               236     -0.146754  11 C  s         
    98     -0.139700   5 C  s               308      0.139700  15 C  s         
    79     -0.112067   4 C  s               194      0.112067   9 C  s         

 Vector   21  Occ=2.000000D+00  E=-8.656051D-01  Symmetry=a1
              MO Center= -3.1D-11,  2.8D-12, -5.0D-02, r^2= 9.2D+00
   Bfn.  Coefficient  Atom+Function         Bfn.  Coefficient  Atom+Function  
  ----- ------------  ---------------      ----- ------------  ---------------
   144     -0.192777   7 C  s                29      0.188085   2 C  s         
   236      0.188085  11 C  s               167      0.179029   8 C  s         
    98     -0.167298   5 C  s               308     -0.167298  15 C  s         
   121     -0.134205   6 C  s               285     -0.134205  14 C  s         
     6      0.117232   1 C  s               171      0.116684   8 C  s         

 Vector   22  Occ=2.000000D+00  E=-8.231405D-01  Symmetry=a1
              MO Center= -3.9D-11, -1.9D-20,  6.0D-02, r^2= 8.4D+00
   Bfn.  Coefficient  Atom+Function         Bfn.  Coefficient  Atom+Function  
  ----- ------------  ---------------      ----- ------------  ---------------
   167      0.203309   8 C  s               144      0.199984   7 C  s         
     6      0.139189   1 C  s               262      0.139189  13 C  s         
   171      0.133751   8 C  s               121      0.130874   6 C  s         
   285      0.130874  14 C  s                98     -0.102252   5 C  s         
   308     -0.102252  15 C  s               148      0.099917   7 C  s         

 Vector   23  Occ=2.000000D+00  E=-7.796473D-01  Symmetry=a1
              MO Center= -3.8D-12, -3.1D-18, -1.2D-01, r^2= 6.6D+00
   Bfn.  Coefficient  Atom+Function         Bfn.  Coefficient  Atom+Function  
  ----- ------------  ---------------      ----- ------------  ---------------
   171      0.139670   8 C  s                98      0.132796   5 C  s         
   308      0.132796  15 C  s                29      0.126616   2 C  s         
   236      0.126616  11 C  s               144      0.119940   7 C  s         
    55     -0.105463   3 C  pz              216     -0.105463  10 C  pz        
   167      0.104227   8 C  s               147     -0.102660   7 C  pz        

 Vector   24  Occ=2.000000D+00  E=-7.755781D-01  Symmetry=b1
              MO Center=  8.8D-11,  1.7D-12, -6.4D-02, r^2= 9.8D+00
   Bfn.  Coefficient  Atom+Function         Bfn.  Coefficient  Atom+Function  
  ----- ------------  ---------------      ----- ------------  ---------------
    14      0.189067   1 C  s               270     -0.189067  13 C  s         
   121      0.162656   6 C  s               285     -0.162656  14 C  s         
    52      0.150458   3 C  s               129     -0.150934   6 C  s         
   213     -0.150458  10 C  s               293      0.150934  14 C  s         
    75     -0.144297   4 C  s               190      0.144297   9 C  s         

 Vector   25  Occ=2.000000D+00  E=-7.573101D-01  Symmetry=b1
              MO Center= -1.1D-11, -1.7D-20, -4.2D-02, r^2= 9.8D+00
   Bfn.  Coefficient  Atom+Function         Bfn.  Coefficient  Atom+Function  
  ----- ------------  ---------------      ----- ------------  ---------------
    29      0.174791   2 C  s                98      0.175092   5 C  s         
   236     -0.174791  11 C  s               308     -0.175092  15 C  s         
    33      0.119292   2 C  s               240     -0.119292  11 C  s         
   102      0.116595   5 C  s               312     -0.116595  15 C  s         
    75     -0.105396   4 C  s               190      0.105396   9 C  s         

 Vector   26  Occ=2.000000D+00  E=-7.079344D-01  Symmetry=a1
              MO Center= -1.0D-10, -4.9D-19, -2.6D-02, r^2= 1.1D+01
   Bfn.  Coefficient  Atom+Function         Bfn.  Coefficient  Atom+Function  
  ----- ------------  ---------------      ----- ------------  ---------------
   129      0.223904   6 C  s               293      0.223904  14 C  s         
    14     -0.182557   1 C  s               270     -0.182557  13 C  s         
   148      0.163016   7 C  s                 6      0.149743   1 C  s         
   121     -0.150409   6 C  s               262      0.149743  13 C  s         
   285     -0.150409  14 C  s               171     -0.148982   8 C  s         

 Vector   27  Occ=2.000000D+00  E=-6.840218D-01  Symmetry=b1
              MO Center=  1.0D-09, -1.5D-13, -7.9D-02, r^2= 9.7D+00
   Bfn.  Coefficient  Atom+Function         Bfn.  Coefficient  Atom+Function  
  ----- ------------  ---------------      ----- ------------  ---------------
    84      0.222384   4 C  px              199      0.222384   9 C  px        
    83      0.220731   4 C  s               198     -0.220731   9 C  s         
    60      0.216893   3 C  s               221     -0.216893  10 C  s         
    61      0.187740   3 C  px              222      0.187740  10 C  px        
   106      0.184539   5 C  s               316     -0.184539  15 C  s         

 Vector   28  Occ=2.000000D+00  E=-6.699018D-01  Symmetry=a1
              MO Center= -1.2D-09, -2.3D-12, -2.9D-01, r^2= 9.6D+00
   Bfn.  Coefficient  Atom+Function         Bfn.  Coefficient  Atom+Function  
  ----- ------------  ---------------      ----- ------------  ---------------
   106      0.621618   5 C  s               316      0.621618  15 C  s         
    37      0.596724   2 C  s               244      0.596724  11 C  s         
   175     -0.550650   8 C  s               152     -0.517127   7 C  s         
    61      0.265043   3 C  px              222     -0.265043  10 C  px        
    83     -0.258730   4 C  s               198     -0.258730   9 C  s         

 Vector   29  Occ=2.000000D+00  E=-6.266619D-01  Symmetry=a1
              MO Center= -3.7D-10, -3.6D-12, -7.8D-02, r^2= 1.2D+01
   Bfn.  Coefficient  Atom+Function         Bfn.  Coefficient  Atom+Function  
  ----- ------------  ---------------      ----- ------------  ---------------
    37      0.216336   2 C  s               244      0.216336  11 C  s         
   129     -0.186345   6 C  s               293     -0.186345  14 C  s         
   106      0.184321   5 C  s               316      0.184321  15 C  s         
   122     -0.141122   6 C  px              286      0.141122  14 C  px        
    75      0.121496   4 C  s               190      0.121496   9 C  s         

 Vector   30  Occ=2.000000D+00  E=-6.235090D-01  Symmetry=b1
              MO Center=  4.9D-10, -6.9D-21, -1.2D-01, r^2= 1.2D+01
   Bfn.  Coefficient  Atom+Function         Bfn.  Coefficient  Atom+Function  
  ----- ------------  ---------------      ----- ------------  ---------------
   145      0.146118   7 C  px              153     -0.141806   7 C  px        
    14      0.124975   1 C  s               270     -0.124975  13 C  s         
    60     -0.108452   3 C  s               221      0.108452  10 C  s         
     6     -0.104300   1 C  s               141      0.104583   7 C  px        
   262      0.104300  13 C  s               176      0.103239   8 C  px        

 Vector   31  Occ=2.000000D+00  E=-6.163651D-01  Symmetry=a1
              MO Center= -7.9D-10, -2.4D-11, -9.7D-02, r^2= 8.4D+00
   Bfn.  Coefficient  Atom+Function         Bfn.  Coefficient  Atom+Function  
  ----- ------------  ---------------      ----- ------------  ---------------
   106     -0.191328   5 C  s               316     -0.191328  15 C  s         
    14      0.185726   1 C  s               270      0.185726  13 C  s         
   147     -0.147341   7 C  pz              170     -0.145766   8 C  pz        
    56     -0.126808   3 C  s               217     -0.126808  10 C  s         
    52     -0.123085   3 C  s               213     -0.123085  10 C  s         

 Vector   32  Occ=2.000000D+00  E=-6.153474D-01  Symmetry=b1
              MO Center=  1.0D-09,  1.1D-14,  7.8D-02, r^2= 9.9D+00
   Bfn.  Coefficient  Atom+Function         Bfn.  Coefficient  Atom+Function  
  ----- ------------  ---------------      ----- ------------  ---------------
     9      0.131682   1 C  pz              265     -0.131682  13 C  pz        
    78      0.129821   4 C  pz              193     -0.129821   9 C  pz        
   176      0.111208   8 C  px               55     -0.103556   3 C  pz        
   216      0.103556  10 C  pz              124     -0.098370   6 C  pz        
   288      0.098370  14 C  pz               30      0.091263   2 C  px        

 Vector   33  Occ=2.000000D+00  E=-6.088708D-01  Symmetry=b2
              MO Center= -3.3D-12,  4.9D-10,  1.1D+00, r^2= 2.8D+00
   Bfn.  Coefficient  Atom+Function         Bfn.  Coefficient  Atom+Function  
  ----- ------------  ---------------      ----- ------------  ---------------
   169      0.259556   8 C  py              173      0.194654   8 C  py        
   165      0.163644   8 C  py              342      0.122084  21 H  s         
   354     -0.122084  25 H  s                77      0.120523   4 C  py        
   192      0.120523   9 C  py              341      0.106385  21 H  s         
   353     -0.106385  25 H  s                54      0.078735   3 C  py        

 Vector   34  Occ=2.000000D+00  E=-5.830979D-01  Symmetry=b1
              MO Center=  9.0D-11, -3.2D-20, -1.1D-02, r^2= 9.9D+00
   Bfn.  Coefficient  Atom+Function         Bfn.  Coefficient  Atom+Function  
  ----- ------------  ---------------      ----- ------------  ---------------
   101      0.138793   5 C  pz              311     -0.138793  15 C  pz        
    32      0.133296   2 C  pz              239     -0.133296  11 C  pz        
    53     -0.131051   3 C  px              214     -0.131051  10 C  px        
   122     -0.116763   6 C  px              286     -0.116763  14 C  px        
   145      0.114286   7 C  px              149      0.112289   7 C  px        

 Vector   35  Occ=2.000000D+00  E=-5.784917D-01  Symmetry=a1
              MO Center= -8.5D-10, -5.4D-13, -4.6D-01, r^2= 8.6D+00
   Bfn.  Coefficient  Atom+Function         Bfn.  Coefficient  Atom+Function  
  ----- ------------  ---------------      ----- ------------  ---------------
   147      0.165072   7 C  pz               32     -0.143975   2 C  pz        
   239     -0.143975  11 C  pz              101     -0.120114   5 C  pz        
   311     -0.120114  15 C  pz              106      0.116199   5 C  s         
   316      0.116199  15 C  s                37      0.111108   2 C  s         
   244      0.111108  11 C  s               327     -0.107524  16 H  s         

 Vector   36  Occ=2.000000D+00  E=-5.688246D-01  Symmetry=b1
              MO Center=  2.0D-10, -6.2D-13, -1.1D-01, r^2= 9.6D+00
   Bfn.  Coefficient  Atom+Function         Bfn.  Coefficient  Atom+Function  
  ----- ------------  ---------------      ----- ------------  ---------------
   168     -0.160982   8 C  px                7      0.152312   1 C  px        
    76      0.152031   4 C  px              191      0.152031   9 C  px        
   263      0.152312  13 C  px              172     -0.117226   8 C  px        
   164     -0.107677   8 C  px               72      0.105157   4 C  px        
   187      0.105157   9 C  px                3      0.102825   1 C  px        

 Vector   37  Occ=2.000000D+00  E=-5.574813D-01  Symmetry=a1
              MO Center=  2.9D-11, -9.1D-12,  6.0D-01, r^2= 9.4D+00
   Bfn.  Coefficient  Atom+Function         Bfn.  Coefficient  Atom+Function  
  ----- ------------  ---------------      ----- ------------  ---------------
   170      0.189944   8 C  pz              129      0.165871   6 C  s         
   293      0.165871  14 C  s               174      0.143534   8 C  pz        
     9     -0.124453   1 C  pz              265     -0.124453  13 C  pz        
   124      0.121350   6 C  pz              288      0.121350  14 C  pz        
   166      0.120590   8 C  pz               37     -0.106692   2 C  s         

 Vector   38  Occ=2.000000D+00  E=-5.337381D-01  Symmetry=b2
              MO Center=  2.2D-16,  4.1D-10, -1.8D-01, r^2= 5.7D+00
   Bfn.  Coefficient  Atom+Function         Bfn.  Coefficient  Atom+Function  
  ----- ------------  ---------------      ----- ------------  ---------------
   169     -0.164365   8 C  py              146      0.163456   7 C  py        
    54      0.151818   3 C  py              215      0.151818  10 C  py        
   173     -0.138618   8 C  py              150      0.118047   7 C  py        
    31      0.106695   2 C  py               58      0.106906   3 C  py        
   219      0.106906  10 C  py              238      0.106695  11 C  py        

 Vector   39  Occ=2.000000D+00  E=-5.328767D-01  Symmetry=a1
              MO Center=  1.8D-10,  1.3D-13,  1.1D-02, r^2= 1.5D+01
   Bfn.  Coefficient  Atom+Function         Bfn.  Coefficient  Atom+Function  
  ----- ------------  ---------------      ----- ------------  ---------------
     7      0.141191   1 C  px              122     -0.141080   6 C  px        
   263     -0.141191  13 C  px              286      0.141080  14 C  px        
   148      0.129293   7 C  s               339      0.111070  20 H  s         
   348      0.111070  23 H  s                30     -0.108931   2 C  px        
   237      0.108931  11 C  px               99      0.105298   5 C  px        

 Vector   40  Occ=2.000000D+00  E=-5.274285D-01  Symmetry=a2
              MO Center=  9.8D-12,  4.8D-12, -3.0D-02, r^2= 8.5D+00
   Bfn.  Coefficient  Atom+Function         Bfn.  Coefficient  Atom+Function  
  ----- ------------  ---------------      ----- ------------  ---------------
    54      0.123927   3 C  py              215     -0.123927  10 C  py        
    77      0.120840   4 C  py              192     -0.120840   9 C  py        
    31      0.112672   2 C  py              238     -0.112672  11 C  py        
   100      0.111036   5 C  py              310     -0.111036  15 C  py        
   123      0.108130   6 C  py              287     -0.108130  14 C  py        

 Vector   41  Occ=2.000000D+00  E=-5.130228D-01  Symmetry=b1
              MO Center=  1.7D-11, -8.1D-13,  6.5D-02, r^2= 1.2D+01
   Bfn.  Coefficient  Atom+Function         Bfn.  Coefficient  Atom+Function  
  ----- ------------  ---------------      ----- ------------  ---------------
   124     -0.132257   6 C  pz              288      0.132257  14 C  pz        
     9      0.131520   1 C  pz              265     -0.131520  13 C  pz        
   101      0.113458   5 C  pz              311     -0.113458  15 C  pz        
    32     -0.108404   2 C  pz              239      0.108404  11 C  pz        
   336      0.096782  19 H  s               351     -0.096782  24 H  s         

 Vector   42  Occ=2.000000D+00  E=-4.983488D-01  Symmetry=a1
              MO Center=  3.6D-11, -3.7D-12,  6.2D-02, r^2= 8.7D+00
   Bfn.  Coefficient  Atom+Function         Bfn.  Coefficient  Atom+Function  
  ----- ------------  ---------------      ----- ------------  ---------------
    78     -0.134517   4 C  pz              174      0.134421   8 C  pz        
   193     -0.134517   9 C  pz               55      0.133474   3 C  pz        
   216      0.133474  10 C  pz              170      0.124717   8 C  pz        
    82     -0.106626   4 C  pz              197     -0.106626   9 C  pz        
    51      0.096205   3 C  pz               59      0.096126   3 C  pz        

 Vector   43  Occ=2.000000D+00  E=-4.954092D-01  Symmetry=b1
              MO Center= -3.9D-11, -4.7D-14,  1.2D-01, r^2= 1.0D+01
   Bfn.  Coefficient  Atom+Function         Bfn.  Coefficient  Atom+Function  
  ----- ------------  ---------------      ----- ------------  ---------------
   168      0.154305   8 C  px              172      0.143739   8 C  px        
    76     -0.127174   4 C  px              191     -0.127174   9 C  px        
    99      0.125827   5 C  px              309      0.125827  15 C  px        
   122     -0.116363   6 C  px              149     -0.116880   7 C  px        
   286     -0.116363  14 C  px               30     -0.112646   2 C  px        

 Vector   44  Occ=2.000000D+00  E=-4.667876D-01  Symmetry=b2
              MO Center=  1.0D-11, -9.5D-12, -2.0D-02, r^2= 1.1D+01
   Bfn.  Coefficient  Atom+Function         Bfn.  Coefficient  Atom+Function  
  ----- ------------  ---------------      ----- ------------  ---------------
   146     -0.172806   7 C  py              123      0.166884   6 C  py        
   287      0.166884  14 C  py              150     -0.155266   7 C  py        
     8      0.126022   1 C  py              127      0.126095   6 C  py        
   264      0.126022  13 C  py              291      0.126095  14 C  py        
   100      0.119193   5 C  py              310      0.119193  15 C  py        

 Vector   45  Occ=2.000000D+00  E=-4.153422D-01  Symmetry=a2
              MO Center= -3.9D-09, -5.2D-10, -5.0D-03, r^2= 9.2D+00
   Bfn.  Coefficient  Atom+Function         Bfn.  Coefficient  Atom+Function  
  ----- ------------  ---------------      ----- ------------  ---------------
    54      0.161792   3 C  py              215     -0.161792  10 C  py        
    58      0.155820   3 C  py              219     -0.155820  10 C  py        
   123     -0.152226   6 C  py              287      0.152226  14 C  py        
   100     -0.147278   5 C  py              310      0.147278  15 C  py        
    31      0.138867   2 C  py              238     -0.138867  11 C  py        

 Vector   46  Occ=2.000000D+00  E=-4.129415D-01  Symmetry=a2
              MO Center=  6.5D-12, -2.3D-11, -5.3D-02, r^2= 9.4D+00
   Bfn.  Coefficient  Atom+Function         Bfn.  Coefficient  Atom+Function  
  ----- ------------  ---------------      ----- ------------  ---------------
    77     -0.176754   4 C  py              192      0.176754   9 C  py        
     8      0.172518   1 C  py              264     -0.172518  13 C  py        
    81     -0.165611   4 C  py              196      0.165611   9 C  py        
    12      0.148745   1 C  py              268     -0.148745  13 C  py        
    73     -0.112725   4 C  py              188      0.112725   9 C  py        

 Vector   47  Occ=2.000000D+00  E=-3.971962D-01  Symmetry=b2
              MO Center=  3.7D-09,  2.2D-11,  1.1D-01, r^2= 9.2D+00
   Bfn.  Coefficient  Atom+Function         Bfn.  Coefficient  Atom+Function  
  ----- ------------  ---------------      ----- ------------  ---------------
   100     -0.157315   5 C  py              310     -0.157315  15 C  py        
    31      0.153089   2 C  py              238      0.153089  11 C  py        
    35      0.151264   2 C  py              242      0.151264  11 C  py        
   104     -0.143339   5 C  py              314     -0.143339  15 C  py        
     8      0.138584   1 C  py              264      0.138584  13 C  py        

 Vector   48  Occ=0.000000D+00  E=-2.863375D-01  Symmetry=b2
              MO Center= -1.1D-10,  2.8D-13, -4.4D-01, r^2= 6.8D+00
   Bfn.  Coefficient  Atom+Function         Bfn.  Coefficient  Atom+Function  
  ----- ------------  ---------------      ----- ------------  ---------------
   150      0.352536   7 C  py              146      0.283928   7 C  py        
   142      0.181715   7 C  py               81     -0.171024   4 C  py        
   196     -0.171024   9 C  py              127      0.159141   6 C  py        
   291      0.159141  14 C  py               77     -0.143090   4 C  py        
   192     -0.143090   9 C  py               35     -0.139845   2 C  py        

 Vector   49  Occ=0.000000D+00  E=-1.815887D-01  Symmetry=b2
              MO Center=  7.0D-11,  4.0D-12,  2.4D-01, r^2= 1.0D+01
   Bfn.  Coefficient  Atom+Function         Bfn.  Coefficient  Atom+Function  
  ----- ------------  ---------------      ----- ------------  ---------------
   104      0.283540   5 C  py              314      0.283540  15 C  py        
    35      0.274893   2 C  py              242      0.274893  11 C  py        
   108      0.240566   5 C  py              318      0.240566  15 C  py        
   343      0.232382  21 H  s               355     -0.232382  25 H  s         
    12     -0.223387   1 C  py              268     -0.223387  13 C  py        

 Vector   50  Occ=0.000000D+00  E=-1.760637D-01  Symmetry=a2
              MO Center=  9.5D-12, -3.6D-11, -3.4D-02, r^2= 9.8D+00
   Bfn.  Coefficient  Atom+Function         Bfn.  Coefficient  Atom+Function  
  ----- ------------  ---------------      ----- ------------  ---------------
    58      0.312637   3 C  py              219     -0.312637  10 C  py        
    62      0.285528   3 C  py              223     -0.285528  10 C  py        
    81     -0.279023   4 C  py              196      0.279023   9 C  py        
   127      0.270703   6 C  py              291     -0.270703  14 C  py        
    85     -0.259609   4 C  py              200      0.259609   9 C  py        

 Vector   51  Occ=0.000000D+00  E=-1.656733D-01  Symmetry=a2
              MO Center= -2.2D-12,  3.4D-11, -1.7D-02, r^2= 1.0D+01
   Bfn.  Coefficient  Atom+Function         Bfn.  Coefficient  Atom+Function  
  ----- ------------  ---------------      ----- ------------  ---------------
   104      0.310660   5 C  py              314     -0.310660  15 C  py        
    35      0.307797   2 C  py              242     -0.307797  11 C  py        
   108      0.239920   5 C  py              318     -0.239920  15 C  py        
    39      0.233679   2 C  py              246     -0.233679  11 C  py        
    12     -0.190970   1 C  py               81     -0.190570   4 C  py        

 Vector   52  Occ=0.000000D+00  E=-1.178362D-01  Symmetry=b2
              MO Center=  1.9D-11,  3.6D-13, -3.4D-01, r^2= 1.1D+01
   Bfn.  Coefficient  Atom+Function         Bfn.  Coefficient  Atom+Function  
  ----- ------------  ---------------      ----- ------------  ---------------
   154     -0.683722   7 C  py               62      0.631739   3 C  py        
   223      0.631739  10 C  py              150     -0.380770   7 C  py        
    58      0.337177   3 C  py               85     -0.336620   4 C  py        
   200     -0.336620   9 C  py              219      0.337177  10 C  py        
   127      0.330598   6 C  py              291      0.330598  14 C  py        

 Vector   53  Occ=0.000000D+00  E=-1.167722D-01  Symmetry=a1
              MO Center= -4.1D-09, -1.6D-10,  2.5D-01, r^2= 1.5D+01
   Bfn.  Coefficient  Atom+Function         Bfn.  Coefficient  Atom+Function  
  ----- ------------  ---------------      ----- ------------  ---------------
    37      1.761357   2 C  s               244      1.761357  11 C  s         
   175     -1.705449   8 C  s               106      1.512458   5 C  s         
   316      1.512458  15 C  s               129     -1.392582   6 C  s         
   293     -1.392582  14 C  s               152     -1.299112   7 C  s         
    83     -0.851214   4 C  s               198     -0.851214   9 C  s         

 Vector   54  Occ=0.000000D+00  E=-1.059525D-01  Symmetry=a1
              MO Center= -4.1D-13,  3.2D-13, -1.1D+00, r^2= 1.7D+01
   Bfn.  Coefficient  Atom+Function         Bfn.  Coefficient  Atom+Function  
  ----- ------------  ---------------      ----- ------------  ---------------
   175     -2.378289   8 C  s                14      2.223556   1 C  s         
   270      2.223556  13 C  s                37      1.632198   2 C  s         
   244      1.632198  11 C  s               152     -1.592293   7 C  s         
   155     -1.152972   7 C  pz              107      1.055590   5 C  px        
   317     -1.055590  15 C  px              132      1.022724   6 C  pz        

 Vector   55  Occ=0.000000D+00  E=-9.911387D-02  Symmetry=b1
              MO Center=  4.2D-09, -2.3D-12,  1.1D-02, r^2= 2.8D+01
   Bfn.  Coefficient  Atom+Function         Bfn.  Coefficient  Atom+Function  
  ----- ------------  ---------------      ----- ------------  ---------------
    60     -2.643632   3 C  s               221      2.643632  10 C  s         
    14      2.459251   1 C  s               270     -2.459251  13 C  s         
    84     -2.277073   4 C  px              199     -2.277073   9 C  px        
   106     -2.221307   5 C  s               316      2.221307  15 C  s         
    37     -2.204225   2 C  s                83     -2.203102   4 C  s         

 Vector   56  Occ=0.000000D+00  E=-8.781109D-02  Symmetry=a1
              MO Center=  8.5D-13, -3.1D-13,  6.2D-01, r^2= 2.4D+01
   Bfn.  Coefficient  Atom+Function         Bfn.  Coefficient  Atom+Function  
  ----- ------------  ---------------      ----- ------------  ---------------
   106      2.389064   5 C  s               316      2.389064  15 C  s         
    37      2.150820   2 C  s               244      2.150820  11 C  s         
    14     -1.588435   1 C  s               270     -1.588435  13 C  s         
   129     -1.326994   6 C  s               293     -1.326994  14 C  s         
    86      1.128800   4 C  pz              201      1.128800   9 C  pz        

 Vector   57  Occ=0.000000D+00  E=-7.716385D-02  Symmetry=a1
              MO Center=  2.0D-12, -1.3D-12,  2.5D-01, r^2= 2.2D+01
   Bfn.  Coefficient  Atom+Function         Bfn.  Coefficient  Atom+Function  
  ----- ------------  ---------------      ----- ------------  ---------------
   155     -1.349294   7 C  pz               63      1.322755   3 C  pz        
   224      1.322755  10 C  pz              178      1.275631   8 C  pz        
    86     -1.146824   4 C  pz              201     -1.146824   9 C  pz        
   175     -1.005869   8 C  s               152     -0.906936   7 C  s         
    14      0.872011   1 C  s               270      0.872011  13 C  s         

 Vector   58  Occ=0.000000D+00  E=-7.623479D-02  Symmetry=b1
              MO Center=  6.3D-09, -1.2D-10, -1.8D-01, r^2= 2.7D+01
[...]
   21 Stretch                 11    12                       1.08503   -0.00173
   22 Stretch                 11    13                       1.40773   -0.00238
   23 Stretch                 13    14                       1.39240   -0.00274
   24 Stretch                 13    22                       1.08376   -0.00146
   25 Stretch                 14    15                       1.39681   -0.00227
   26 Stretch                 14    23                       1.08321   -0.00140
   27 Stretch                 15    24                       1.08564   -0.00130
   28 Bend                     1     2     3               121.67212    0.03313
   29 Bend                     1     2    18               119.11963   -0.10756
   30 Bend                     1     6     5               119.06464   -0.02868
   31 Bend                     1     6    20               120.67409   -0.01171
   32 Bend                     2     1     6               120.08161    0.00578
   33 Bend                     2     1    17               119.43482    0.04311
   34 Bend                     2     3     4               117.93987   -0.02921
   35 Bend                     2     3     7               121.73249    0.02939
   36 Bend                     3     2    18               119.20825    0.07443
   37 Bend                     3     4     5               119.95778    0.00762
   38 Bend                     3     4     8               120.64535    0.00179
   39 Bend                     3     7    10               121.25501   -0.01604
   40 Bend                     3     7    16               119.37250    0.00802
   41 Bend                     4     3     7               120.32764   -0.00018
   42 Bend                     4     5     6               121.28398    0.01137
   43 Bend                     4     5    19               119.03796    0.05747
   44 Bend                     4     8     9               116.79900    0.01280
   45 Bend                     4     8    21               109.08817   -0.01742
   46 Bend                     4     8    25               109.08817   -0.01742
   47 Bend                     5     4     8               119.39687   -0.00941
   48 Bend                     5     6    20               120.26128    0.04039
   49 Bend                     6     1    17               120.48357   -0.04889
   50 Bend                     6     5    19               119.67805   -0.06883
   51 Bend                     7    10     9               120.32764   -0.00018
   52 Bend                     7    10    11               121.73249    0.02939
   53 Bend                     8     9    10               120.64535    0.00179
   54 Bend                     8     9    15               119.39687   -0.00941
   55 Bend                     9     8    21               109.08817   -0.01742
   56 Bend                     9     8    25               109.08817   -0.01742
   57 Bend                     9    10    11               117.93987   -0.02921
   58 Bend                     9    15    14               121.28398    0.01137
   59 Bend                     9    15    24               119.03796    0.05747
   60 Bend                    10     7    16               119.37250    0.00802
   61 Bend                    10     9    15               119.95778    0.00762
   62 Bend                    10    11    12               119.20825    0.07443
   63 Bend                    10    11    13               121.67212    0.03313
   64 Bend                    11    13    14               120.08161    0.00578
   65 Bend                    11    13    22               119.43482    0.04311
   66 Bend                    12    11    13               119.11963   -0.10756
   67 Bend                    13    14    15               119.06464   -0.02868
   68 Bend                    13    14    23               120.67409   -0.01171
   69 Bend                    14    13    22               120.48357   -0.04889
   70 Bend                    14    15    24               119.67805   -0.06883
   71 Bend                    15    14    23               120.26128    0.04039
   72 Bend                    21     8    25               102.76810    0.06378
   73 Torsion                  1     2     3     4           0.00000    0.00000
   74 Torsion                  1     2     3     7         180.00000    0.00000
   75 Torsion                  1     6     5     4           0.00000    0.00000
   76 Torsion                  1     6     5    19         180.00000    0.00000
   77 Torsion                  2     1     6     5           0.00000    0.00000
   78 Torsion                  2     1     6    20         180.00000    0.00000
   79 Torsion                  2     3     4     5           0.00000    0.00000
   80 Torsion                  2     3     4     8         180.00000    0.00000
   81 Torsion                  2     3     7    10         180.00000    0.00000
   82 Torsion                  2     3     7    16           0.00000    0.00000
   83 Torsion                  3     2     1     6           0.00000    0.00000
   84 Torsion                  3     2     1    17         180.00000    0.00000
   85 Torsion                  3     4     5     6          -0.00000    0.00000
   86 Torsion                  3     4     5    19         180.00000    0.00000
   87 Torsion                  3     4     8     9           0.00000    0.00000
   88 Torsion                  3     4     8    21         124.22782   -0.02858
   89 Torsion                  3     4     8    25        -124.22782    0.02858
   90 Torsion                  3     7    10     9           0.00000    0.00000
   91 Torsion                  3     7    10    11         180.00000    0.00000
   92 Torsion                  4     3     2    18         180.00000    0.00000
   93 Torsion                  4     3     7    10           0.00000    0.00000
   94 Torsion                  4     3     7    16         180.00000    0.00000
   95 Torsion                  4     5     6    20         180.00000    0.00000
   96 Torsion                  4     8     9    10           0.00000    0.00000
   97 Torsion                  4     8     9    15         180.00000    0.00000
   98 Torsion                  5     4     3     7         180.00000    0.00000
   99 Torsion                  5     4     8     9         180.00000    0.00000
  100 Torsion                  5     4     8    21         -55.77218   -0.02858
  101 Torsion                  5     4     8    25          55.77218    0.02858
  102 Torsion                  5     6     1    17         180.00000    0.00000
  103 Torsion                  6     1     2    18         180.00000    0.00000
  104 Torsion                  6     5     4     8         180.00000    0.00000
  105 Torsion                  7     3     2    18           0.00000    0.00000
  106 Torsion                  7     3     4     8           0.00000    0.00000
  107 Torsion                  7    10     9     8           0.00000    0.00000
  108 Torsion                  7    10     9    15         180.00000    0.00000
  109 Torsion                  7    10    11    12           0.00000    0.00000
  110 Torsion                  7    10    11    13         180.00000    0.00000
  111 Torsion                  8     4     5    19           0.00000    0.00000
  112 Torsion                  8     9    10    11         180.00000    0.00000
  113 Torsion                  8     9    15    14         180.00000    0.00000
  114 Torsion                  8     9    15    24           0.00000    0.00000
  115 Torsion                  9    10     7    16         180.00000    0.00000
  116 Torsion                  9    10    11    12         180.00000    0.00000
  117 Torsion                  9    10    11    13          -0.00000    0.00000
  118 Torsion                  9    15    14    13           0.00000    0.00000
  119 Torsion                  9    15    14    23         180.00000    0.00000
  120 Torsion                 10     9     8    21        -124.22782    0.02858
  121 Torsion                 10     9     8    25         124.22782   -0.02858
  122 Torsion                 10     9    15    14           0.00000    0.00000
  123 Torsion                 10     9    15    24         180.00000    0.00000
  124 Torsion                 10    11    13    14           0.00000    0.00000
  125 Torsion                 10    11    13    22         180.00000    0.00000
  126 Torsion                 11    10     7    16           0.00000    0.00000
  127 Torsion                 11    10     9    15           0.00000    0.00000
  128 Torsion                 11    13    14    15           0.00000    0.00000
  129 Torsion                 11    13    14    23         180.00000    0.00000
  130 Torsion                 12    11    13    14         180.00000    0.00000
  131 Torsion                 12    11    13    22           0.00000    0.00000
  132 Torsion                 13    14    15    24         180.00000    0.00000
  133 Torsion                 15     9     8    21          55.77218    0.02858
  134 Torsion                 15     9     8    25         -55.77218   -0.02858
  135 Torsion                 15    14    13    22         180.00000    0.00000
  136 Torsion                 17     1     2    18           0.00000    0.00000
  137 Torsion                 17     1     6    20           0.00000    0.00000
  138 Torsion                 19     5     6    20           0.00000    0.00000
  139 Torsion                 22    13    14    23           0.00000    0.00000
  140 Torsion                 23    14    15    24           0.00000    0.00000

 ==============================================================================
                                internuclear distances
 ------------------------------------------------------------------------------
       center one      |      center two      | atomic units |  angstroms
 ------------------------------------------------------------------------------
    2 C                |   1 C                |     2.66021  |     1.40773
    3 C                |   2 C                |     2.66024  |     1.40774
    4 C                |   3 C                |     2.66505  |     1.41028
    5 C                |   4 C                |     2.67411  |     1.41508
    6 C                |   1 C                |     2.63125  |     1.39240
    6 C                |   5 C                |     2.63959  |     1.39681
    7 C                |   3 C                |     2.70741  |     1.43270
    8 C                |   4 C                |     2.82227  |     1.49348
    9 C                |   8 C                |     2.82227  |     1.49348
   10 C                |   7 C                |     2.70741  |     1.43270
   10 C                |   9 C                |     2.66505  |     1.41028
   11 C                |  10 C                |     2.66024  |     1.40774
   12 H                |  11 C                |     2.05042  |     1.08503
   13 C                |  11 C                |     2.66021  |     1.40773
   14 C                |  13 C                |     2.63125  |     1.39240
   15 C                |   9 C                |     2.67411  |     1.41508
   15 C                |  14 C                |     2.63959  |     1.39681
   16 H                |   7 C                |     2.04582  |     1.08260
   17 H                |   1 C                |     2.04800  |     1.08376
   18 H                |   2 C                |     2.05042  |     1.08503
   19 H                |   5 C                |     2.05156  |     1.08564
   20 H                |   6 C                |     2.04698  |     1.08321
   21 H                |   8 C                |     2.08670  |     1.10423
   22 H                |  13 C                |     2.04800  |     1.08376
   23 H                |  14 C                |     2.04698  |     1.08321
   24 H                |  15 C                |     2.05156  |     1.08564
   25 H                |   8 C                |     2.08670  |     1.10423
 ------------------------------------------------------------------------------
                         number of included internuclear distances:         27
 ==============================================================================



 ==============================================================================
                                 internuclear angles
 ------------------------------------------------------------------------------
        center 1       |       center 2       |       center 3       |  degrees
 ------------------------------------------------------------------------------
    2 C                |   1 C                |   6 C                |   120.08
    2 C                |   1 C                |  17 H                |   119.43
    6 C                |   1 C                |  17 H                |   120.48
    1 C                |   2 C                |   3 C                |   121.67
    1 C                |   2 C                |  18 H                |   119.12
    3 C                |   2 C                |  18 H                |   119.21
    2 C                |   3 C                |   4 C                |   117.94
    2 C                |   3 C                |   7 C                |   121.73
    4 C                |   3 C                |   7 C                |   120.33
    3 C                |   4 C                |   5 C                |   119.96
    3 C                |   4 C                |   8 C                |   120.65
    5 C                |   4 C                |   8 C                |   119.40
    4 C                |   5 C                |   6 C                |   121.28
    4 C                |   5 C                |  19 H                |   119.04
    6 C                |   5 C                |  19 H                |   119.68
    1 C                |   6 C                |   5 C                |   119.06
    1 C                |   6 C                |  20 H                |   120.67
    5 C                |   6 C                |  20 H                |   120.26
    3 C                |   7 C                |  10 C                |   121.26
    3 C                |   7 C                |  16 H                |   119.37
   10 C                |   7 C                |  16 H                |   119.37
    4 C                |   8 C                |   9 C                |   116.80
    4 C                |   8 C                |  21 H                |   109.09
    4 C                |   8 C                |  25 H                |   109.09
    9 C                |   8 C                |  21 H                |   109.09
    9 C                |   8 C                |  25 H                |   109.09
   21 H                |   8 C                |  25 H                |   102.77
    8 C                |   9 C                |  10 C                |   120.65
    8 C                |   9 C                |  15 C                |   119.40
   10 C                |   9 C                |  15 C                |   119.96
    7 C                |  10 C                |   9 C                |   120.33
    7 C                |  10 C                |  11 C                |   121.73
    9 C                |  10 C                |  11 C                |   117.94
   10 C                |  11 C                |  12 H                |   119.21
   10 C                |  11 C                |  13 C                |   121.67
   12 H                |  11 C                |  13 C                |   119.12
   11 C                |  13 C                |  14 C                |   120.08
   11 C                |  13 C                |  22 H                |   119.43
   14 C                |  13 C                |  22 H                |   120.48
   13 C                |  14 C                |  15 C                |   119.06
   13 C                |  14 C                |  23 H                |   120.67
   15 C                |  14 C                |  23 H                |   120.26
    9 C                |  15 C                |  14 C                |   121.28
    9 C                |  15 C                |  24 H                |   119.04
   14 C                |  15 C                |  24 H                |   119.68
 ------------------------------------------------------------------------------
                            number of included internuclear angles:         45
 ==============================================================================




 Task  times  cpu:    34896.2s     wall:    34706.3s
 Summary of allocated global arrays
-----------------------------------
  No active global arrays



                         GA Statistics for process    0
                         ------------------------------

       create   destroy   get      put      acc     scatter   gather  read&inc
calls: 4233     4233     1.18e+08 6.01e+06 1.21e+08  959        0     4.35e+04 
number of processes/call 1.00e+00 1.00e+00 1.00e+00 0.00e+00 0.00e+00
bytes total:             2.59e+11 5.79e+09 3.26e+11 1.01e+06 0.00e+00 3.48e+05
bytes remote:            0.00e+00 0.00e+00 0.00e+00 0.00e+00 0.00e+00 0.00e+00
Max memory consumed for GA by this process: 162421120 bytes
MA_summarize_allocated_blocks: starting scan ...
MA_summarize_allocated_blocks: scan completed: 0 heap blocks, 0 stack blocks
MA usage statistics:

	allocation statistics:
					      heap	     stack
					      ----	     -----
	current number of blocks	         0	         0
	maximum number of blocks	        22	       103
	current total bytes		         0	         0
	maximum total bytes		  18338800	  76864792
	maximum total K-bytes		     18339	     76865
	maximum total M-bytes		        19	        77


                                NWChem Input Module
                                -------------------





                                     CITATION
                                     --------
                Please cite the following reference when publishing
                           results obtained with NWChem:

                 M. Valiev, E.J. Bylaska, N. Govind, K. Kowalski,
              T.P. Straatsma, H.J.J. van Dam, D. Wang, J. Nieplocha,
                        E. Apra, T.L. Windus, W.A. de Jong
                 "NWChem: a comprehensive and scalable open-source
                  solution for large scale molecular simulations"
                      Comput. Phys. Commun. 181, 1477 (2010)
                           doi:10.1016/j.cpc.2010.04.018

                                      AUTHORS
                                      -------
          E. Apra, E. J. Bylaska, W. A. de Jong, N. Govind, K. Kowalski,
       T. P. Straatsma, M. Valiev, H. J. J. van Dam, D. Wang, T. L. Windus,
        J. Hammond, J. Autschbach, K. Bhaskaran-Nair, J. Brabec, K. Lopata,
    S. A. Fischer, S. Krishnamoorthy, M. Jacquelin, W. Ma, M. Klemm, O. Villa,
      Y. Chen, V. Anisimov, F. Aquino, S. Hirata, M. T. Hackler, V. Konjkov,
            D. Mejia-Rodriguez, T. Risthaus, M. Malagoli, A. Marenich,
   A. Otero-de-la-Roza, J. Mullin, P. Nichols, R. Peverati, J. Pittner, Y. Zhao,
        P.-D. Fan, A. Fonari, M. J. Williamson, R. J. Harrison, J. R. Rehr,
      M. Dupuis, D. Silverstein, D. M. A. Smith, J. Nieplocha, V. Tipparaju,
    M. Krishnan, B. E. Van Kuiken, A. Vazquez-Mayagoitia, L. Jensen, M. Swart,
      Q. Wu, T. Van Voorhis, A. A. Auer, M. Nooijen, L. D. Crosby, E. Brown,
      G. Cisneros, G. I. Fann, H. Fruchtl, J. Garza, K. Hirao, R. A. Kendall,
      J. A. Nichols, K. Tsemekhman, K. Wolinski, J. Anchell, D. E. Bernholdt,
      P. Borowski, T. Clark, D. Clerc, H. Dachsel, M. J. O. Deegan, K. Dyall,
    D. Elwood, E. Glendening, M. Gutowski, A. C. Hess, J. Jaffe, B. G. Johnson,
     J. Ju, R. Kobayashi, R. Kutteh, Z. Lin, R. Littlefield, X. Long, B. Meng,
      T. Nakajima, S. Niu, L. Pollack, M. Rosing, K. Glaesemann, G. Sandrone,
      M. Stave, H. Taylor, G. Thomas, J. H. van Lenthe, A. T. Wong, Z. Zhang.

 Total times  cpu:    34897.1s     wall:    34706.9s
