 Entering Gaussian System, Link 0=g16
 Initial command:
 /apps/gaussian/g16c01/g16/l1.exe "/jobfs/53803565.gadi-pbs/Gau-1031156.inp" -scrdir="/jobfs/53803565.gadi-pbs/"
 Entering Link 1 = /apps/gaussian/g16c01/g16/l1.exe PID=   1031157.
  
 Copyright (c) 1988-2019, Gaussian, Inc.  All Rights Reserved.
  
 This is part of the Gaussian(R) 16 program.  It is based on
 the Gaussian(R) 09 system (copyright 2009, Gaussian, Inc.),
 the Gaussian(R) 03 system (copyright 2003, Gaussian, Inc.),
 the Gaussian(R) 98 system (copyright 1998, Gaussian, Inc.),
 the Gaussian(R) 94 system (copyright 1995, Gaussian, Inc.),
 the Gaussian 92(TM) system (copyright 1992, Gaussian, Inc.),
 the Gaussian 90(TM) system (copyright 1990, Gaussian, Inc.),
 the Gaussian 88(TM) system (copyright 1988, Gaussian, Inc.),
 the Gaussian 86(TM) system (copyright 1986, Carnegie Mellon
 University), and the Gaussian 82(TM) system (copyright 1983,
 Carnegie Mellon University). Gaussian is a federally registered
 trademark of Gaussian, Inc.
  
 This software contains proprietary and confidential information,
 including trade secrets, belonging to Gaussian, Inc.
  
 This software is provided under written license and may be
 used, copied, transmitted, or stored only in accord with that
 written license.
  
 The following legend is applicable only to US Government
 contracts under FAR:
  
                    RESTRICTED RIGHTS LEGEND
  
 Use, reproduction and disclosure by the US Government is
 subject to restrictions as set forth in subparagraphs (a)
 and (c) of the Commercial Computer Software - Restricted
 Rights clause in FAR 52.227-19.
  
 Gaussian, Inc.
 340 Quinnipiac St., Bldg. 40, Wallingford CT 06492
  
  
 ---------------------------------------------------------------
 Warning -- This program may not be used in any manner that
 competes with the business of Gaussian, Inc. or will provide
 assistance to any competitor of Gaussian, Inc.  The licensee
 of this program is prohibited from giving any competitor of
 Gaussian, Inc. access to this program.  By using this program,
 the user acknowledges that Gaussian, Inc. is engaged in the
 business of creating and licensing software in the field of
 computational chemistry and represents and warrants to the
 licensee that it is not a competitor of Gaussian, Inc. and that
 it will not use this program in any manner prohibited above.
 ---------------------------------------------------------------
  

 Cite this work as:
 Gaussian 16, Revision C.01,
 M. J. Frisch, G. W. Trucks, H. B. Schlegel, G. E. Scuseria, 
 M. A. Robb, J. R. Cheeseman, G. Scalmani, V. Barone, 
 G. A. Petersson, H. Nakatsuji, X. Li, M. Caricato, A. V. Marenich, 
 J. Bloino, B. G. Janesko, R. Gomperts, B. Mennucci, H. P. Hratchian, 
 J. V. Ortiz, A. F. Izmaylov, J. L. Sonnenberg, D. Williams-Young, 
 F. Ding, F. Lipparini, F. Egidi, J. Goings, B. Peng, A. Petrone, 
 T. Henderson, D. Ranasinghe, V. G. Zakrzewski, J. Gao, N. Rega, 
 G. Zheng, W. Liang, M. Hada, M. Ehara, K. Toyota, R. Fukuda, 
 J. Hasegawa, M. Ishida, T. Nakajima, Y. Honda, O. Kitao, H. Nakai, 
 T. Vreven, K. Throssell, J. A. Montgomery, Jr., J. E. Peralta, 
 F. Ogliaro, M. J. Bearpark, J. J. Heyd, E. N. Brothers, K. N. Kudin, 
 V. N. Staroverov, T. A. Keith, R. Kobayashi, J. Normand, 
 K. Raghavachari, A. P. Rendell, J. C. Burant, S. S. Iyengar, 
 J. Tomasi, M. Cossi, J. M. Millam, M. Klene, C. Adamo, R. Cammi, 
 J. W. Ochterski, R. L. Martin, K. Morokuma, O. Farkas, 
 J. B. Foresman, and D. J. Fox, Gaussian, Inc., Wallingford CT, 2019.
 
 ******************************************
 Gaussian 16:  ES64L-G16RevC.01  3-Jul-2019
                 2-Aug-2022 
 ******************************************
 %NProcShared=48
 Will use up to   48 processors via shared memory.
 %mem = 190GB
 ---------------------------------------------------------------
 #n M062X/6-311++G(d,p) TD(NStates=1) EmpiricalDispersion=GD3 SP
 ---------------------------------------------------------------
 1/38=1,172=1/1;
 2/12=2,17=6,18=5,40=1/2;
 3/5=4,6=6,7=1111,11=9,25=1,30=1,74=-55,124=31/1,2,3,8;
 4//1;
 5/5=2,38=5/2;
 8/6=1,10=2,108=1/1;
 9/41=1,42=1,70=2/14;
 6/7=2,8=2,9=2,10=2/1;
 99/5=1,9=1/99;
 -----
 SP_-6
 -----
 Symbolic Z-matrix:
 Charge =  1 Multiplicity = 1
 C                     0.        2.56266   1.33843 
 C                     0.        3.79951   0.72999 
 C                     0.        3.75386  -0.60583 
 C                     0.        2.36716  -1.37754 
 C                     0.       -2.55916  -1.43754 
 C                     0.       -3.61386  -0.82183 
 C                     0.       -3.60351   0.61399 
 C                     0.       -2.42266   1.38243 
 C                     0.        0.056     1.45337 
 C                     0.       -0.186    -1.42919 
 C                     0.        1.19606   0.56907 
 C                     0.        1.19147  -0.7628 
 C                     0.       -1.32805   0.78507 
 C                     0.       -1.28347  -0.6988 
 H                     0.        2.46407   2.42165 
 H                     0.        4.72075   1.28769 
 H                     0.        4.64326  -1.23035 
 H                     0.        2.46555  -2.46006 
 H                     0.       -0.212    -2.51027 
 H                     0.       -2.46955  -2.52006 
 H                     0.       -4.57526  -1.31435 
 H                     0.       -4.55275   1.13569 
 H                     0.       -2.51207   2.46565 
 H                    -0.85959   0.312     2.14579 
 H                     0.85959   0.312     2.14579 
 
                          Input orientation:                          
 ---------------------------------------------------------------------
 Center     Atomic      Atomic             Coordinates (Angstroms)
 Number     Number       Type             X           Y           Z
 ---------------------------------------------------------------------
      1          6           0        0.000000    2.562655    1.338431
      2          6           0        0.000000    3.799508    0.729989
      3          6           0        0.000000    3.753861   -0.605830
      4          6           0        0.000000    2.367156   -1.377538
      5          6           0        0.000000   -2.559156   -1.437538
      6          6           0        0.000000   -3.613861   -0.821830
      7          6           0        0.000000   -3.603508    0.613989
      8          6           0        0.000000   -2.422655    1.382431
      9          6           0        0.000000    0.056000    1.453369
     10          6           0        0.000000   -0.186000   -1.429189
     11          6           0        0.000000    1.196055    0.569065
     12          6           0        0.000000    1.191471   -0.762804
     13          6           0        0.000000   -1.328055    0.785065
     14          6           0        0.000000   -1.283471   -0.698804
     15          1           0        0.000000    2.464071    2.421647
     16          1           0        0.000000    4.720753    1.287689
     17          1           0        0.000000    4.643262   -1.230349
     18          1           0        0.000000    2.465550   -2.460059
     19          1           0        0.000000   -0.212000   -2.510266
     20          1           0        0.000000   -2.469550   -2.520059
     21          1           0        0.000000   -4.575262   -1.314349
     22          1           0        0.000000   -4.552753    1.135689
     23          1           0        0.000000   -2.512071    2.465647
     24          1           0       -0.859585    0.312000    2.145787
     25          1           0        0.859585    0.312000    2.145787
 ---------------------------------------------------------------------
                    Distance matrix (angstroms):
                    1          2          3          4          5
     1  C    0.000000
     2  C    1.378407   0.000000
     3  C    2.280158   1.336599   0.000000
     4  C    2.722996   2.548196   1.586973   0.000000
     5  C    5.825715   6.717945   6.367568   4.926677   0.000000
     6  C    6.543400   7.574047   7.370888   6.006777   1.221269
     7  C    6.208573   7.403925   7.457804   6.294045   2.302050
     8  C    4.985504   6.256276   6.488646   5.528085   2.823271
     9  C    2.509289   3.812759   4.232550   3.654515   3.898254
    10  C    3.900619   4.532805   4.024975   2.553678   2.373171
    11  C    1.568286   2.608422   2.814738   2.271726   4.257707
    12  C    2.509050   3.005044   2.567194   1.326700   3.810836
    13  C    3.929865   5.127859   5.268820   4.281523   2.540782
    14  C    4.352357   5.279974   5.038190   3.713187   1.474144
    15  H    1.087693   2.155249   3.290771   3.800421   6.334518
    16  H    2.158694   1.076904   2.126098   3.555679   7.773284
    17  H    3.305685   2.134208   1.086765   2.280860   7.205397
    18  H    3.799731   3.457723   2.257855   1.086983   5.127691
    19  H    4.744595   5.156690   4.399424   2.816934   2.580676
    20  H    6.341217   7.061438   6.511153   4.969817   1.086223
    21  H    7.614926   8.620678   8.359204   6.942706   2.019866
    22  H    7.118296   8.362108   8.487209   7.362163   3.255138
    23  H    5.198409   6.545879   6.978243   6.211033   3.903469
    24  H    2.540897   3.860840   4.489620   4.168498   4.671471
    25  H    2.540897   3.860840   4.489620   4.168498   4.671471
                    6          7          8          9         10
     6  C    0.000000
     7  C    1.435856   0.000000
     8  C    2.505542   1.408871   0.000000
     9  C    4.317917   3.754538   2.479670   0.000000
    10  C    3.481252   3.981700   3.592747   2.892699   0.000000
    11  C    5.006983   4.799773   3.708993   1.442816   2.429629
    12  C    4.805695   4.988726   4.202849   2.490124   1.530195
    13  C    2.794105   2.281875   1.246995   1.536958   2.491427
    14  C    2.333635   2.665708   2.372610   2.534962   1.318296
    15  H    6.889224   6.331125   4.996004   2.595451   4.674592
    16  H    8.597433   8.351478   7.144036   4.667694   5.608712
    17  H    8.267223   8.450491   7.533512   5.314632   4.833354
    18  H    6.296271   6.803178   6.217659   4.595743   2.844892
    19  H    3.797825   4.611214   4.476615   3.972685   1.081390
    20  H    2.047786   3.332884   3.902772   4.708135   2.530731
    21  H    1.080216   2.159350   3.450556   5.395262   4.390764
    22  H    2.171036   1.083161   2.144341   4.619689   5.064300
    23  H    3.467196   2.149389   1.086900   2.760380   4.536557
    24  H    4.995800   4.291444   2.966469   1.133078   3.710437
    25  H    4.995800   4.291444   2.966469   1.133078   3.710437
                   11         12         13         14         15
    11  C    0.000000
    12  C    1.331877   0.000000
    13  C    2.533335   2.957010   0.000000
    14  C    2.784877   2.475769   1.484539   0.000000
    15  H    2.244978   3.429320   4.130208   4.876606   0.000000
    16  H    3.597210   4.081710   6.069655   6.324307   2.525564
    17  H    3.888589   3.483312   6.302263   5.950521   4.252758
    18  H    3.284389   2.122252   4.992221   4.142122   4.881706
    19  H    3.385986   2.241284   3.479193   2.104625   5.611160
    20  H    4.793678   4.060914   3.496692   2.173420   6.982913
    21  H    6.070861   5.793049   3.866768   3.348848   7.969308
    22  H    5.776665   6.049825   3.243704   3.748809   7.133688
    23  H    4.165000   4.913158   2.055784   3.394585   4.976337
    24  H    2.001622   3.157888   2.297875   3.372849   2.333751
    25  H    2.001622   3.157888   2.297875   3.372849   2.333751
                   16         17         18         19         20
    16  H    0.000000
    17  H    2.519230   0.000000
    18  H    4.373963   2.500923   0.000000
    19  H    6.225473   5.021131   2.678021   0.000000
    20  H    8.136301   7.228793   4.935465   2.257571   0.000000
    21  H    9.653315   9.218907   7.133420   4.524188   2.426471
    22  H    9.274752   9.495516   7.885809   5.668785   4.207639
    23  H    7.328119   8.053520   7.002806   5.481791   4.985887
    24  H    4.572999   5.558508   5.156596   4.763643   5.499639
    25  H    4.572999   5.558508   5.156596   4.763643   5.499639
                   21         22         23         24         25
    21  H    0.000000
    22  H    2.450141   0.000000
    23  H    4.306405   2.435810   0.000000
    24  H    6.049525   5.042321   2.969272   0.000000
    25  H    6.049525   5.042321   2.969272   1.719170   0.000000
 Stoichiometry    C14H11(1+)
 Framework group  CS[SG(C14H9),X(H2)]
 Deg. of freedom    46
 Full point group                 CS      NOp   2
 Largest Abelian subgroup         CS      NOp   2
 Largest concise Abelian subgroup CS      NOp   2
                         Standard orientation:                         
 ---------------------------------------------------------------------
 Center     Atomic      Atomic             Coordinates (Angstroms)
 Number     Number       Type             X           Y           Z
 ---------------------------------------------------------------------
      1          6           0        0.106659    2.887513    0.000000
      2          6           0       -0.974676    3.742336    0.000000
      3          6           0       -2.160942    3.126488    0.000000
      4          6           0       -2.261066    1.542676    0.000000
      5          6           0       -0.196038   -2.930333    0.000000
      6          6           0        0.813500   -3.617597    0.000000
      7          6           0        2.105223   -2.990593    0.000000
      8          6           0        2.290952   -1.594018    0.000000
      9          6           0        1.288727    0.674089    0.000000
     10          6           0       -1.209382   -0.784389    0.000000
     11          6           0        0.000000    1.322858    0.000000
     12          6           0       -1.200365    0.745779    0.000000
     13          6           0        1.280810   -0.862848    0.000000
     14          6           0       -0.077923   -1.460928    0.000000
     15          1           0        1.126934    3.264493    0.000000
     16          1           0       -0.867515    4.813895    0.000000
     17          1           0       -3.107324    3.660735    0.000000
     18          1           0       -3.280633    1.165824    0.000000
     19          1           0       -2.174133   -1.272916    0.000000
     20          1           0       -1.211824   -3.315118    0.000000
     21          1           0        0.782455   -4.697367    0.000000
     22          1           0        2.984529   -3.623094    0.000000
     23          1           0        3.307283   -1.208761    0.000000
     24          1           0        1.803678    1.203055    0.859585
     25          1           0        1.803678    1.203055   -0.859585
 ---------------------------------------------------------------------
 Rotational constants (GHZ):           2.1354226           0.4437752           0.3682169
 Standard basis: 6-311++G(d,p) (5D, 7F)
 There are   299 symmetry adapted cartesian basis functions of A'  symmetry.
 There are   100 symmetry adapted cartesian basis functions of A"  symmetry.
 There are   285 symmetry adapted basis functions of A'  symmetry.
 There are   100 symmetry adapted basis functions of A"  symmetry.
   385 basis functions,   603 primitive gaussians,   399 cartesian basis functions
    47 alpha electrons       47 beta electrons
       nuclear repulsion energy       782.0786328859 Hartrees.
 NAtoms=   25 NActive=   25 NUniq=   24 SFac= 1.09D+00 NAtFMM=   60 NAOKFM=F Big=F
 Integral buffers will be    131072 words long.
 Regular integral format.
 Two-electron integral symmetry is turned on.
 Nuclear repulsion after empirical dispersion term =      782.0776597348 Hartrees.
 One-electron integrals computed using PRISM.
 NBasis=   385 RedAO= T EigKep=  1.02D-06  NBF=   285   100
 NBsUse=   379 1.00D-06 EigRej=  8.00D-07 NBFU=   279   100
 ExpMin= 3.60D-02 ExpMax= 4.56D+03 ExpMxC= 6.82D+02 IAcc=3 IRadAn=         5 AccDes= 0.00D+00
 Harris functional with IExCor= 1009 and IRadAn=       5 diagonalized for initial guess.
 HarFok:  IExCor= 1009 AccDes= 0.00D+00 IRadAn=         5 IDoV= 1 UseB2=F ITyADJ=14
 ICtDFT=  3500011 ScaDFX=  1.000000  1.000000  1.000000  1.000000
 FoFCou: FMM=F IPFlag=           0 FMFlag=      100000 FMFlg1=           0
         NFxFlg=           0 DoJE=T BraDBF=F KetDBF=T FulRan=T
         wScrn=  0.000000 ICntrl=       500 IOpCl=  0 I1Cent=   200000004 NGrid=           0
         NMat0=    1 NMatS0=      1 NMatT0=    0 NMatD0=    1 NMtDS0=    0 NMtDT0=    0
 Petite list used in FoFCou.
 Initial guess orbital symmetries:
       Occupied  (A') (A') (A') (A') (A') (A') (A') (A') (A') (A')
                 (A') (A') (A') (A') (A') (A') (A') (A') (A') (A')
                 (A') (A') (A') (A') (A') (A') (A') (A') (A') (A')
                 (A') (A') (A') (A") (A') (A') (A') (A") (A') (A')
                 (A") (A') (A') (A") (A") (A") (A")
       Virtual   (A") (A") (A") (A") (A") (A') (A') (A') (A') (A")
                 (A') (A") (A') (A') (A') (A') (A") (A') (A') (A')
                 (A') (A") (A') (A") (A') (A") (A') (A') (A") (A')
                 (A') (A') (A') (A') (A") (A') (A') (A') (A") (A')
                 (A") (A') (A") (A') (A') (A') (A') (A') (A') (A")
                 (A') (A") (A') (A") (A') (A') (A") (A') (A') (A")
                 (A') (A') (A') (A') (A') (A") (A') (A') (A') (A")
                 (A') (A') (A') (A') (A') (A') (A') (A') (A') (A')
                 (A') (A') (A') (A') (A') (A') (A') (A') (A') (A')
                 (A') (A') (A') (A') (A') (A") (A') (A') (A") (A')
                 (A') (A") (A") (A') (A') (A") (A') (A") (A") (A')
                 (A") (A') (A") (A') (A") (A') (A') (A') (A") (A")
                 (A') (A") (A') (A') (A') (A") (A') (A') (A") (A')
                 (A') (A') (A') (A') (A') (A') (A') (A") (A') (A')
                 (A') (A') (A') (A') (A') (A') (A") (A') (A') (A')
                 (A") (A') (A") (A') (A") (A') (A') (A") (A') (A")
                 (A') (A") (A') (A") (A") (A") (A') (A') (A') (A')
                 (A") (A') (A') (A') (A') (A') (A') (A") (A') (A')
                 (A") (A') (A') (A") (A") (A') (A') (A") (A') (A")
                 (A") (A') (A') (A') (A") (A') (A') (A") (A') (A')
                 (A") (A") (A") (A') (A") (A') (A') (A") (A") (A')
                 (A') (A') (A") (A') (A') (A") (A') (A') (A") (A')
                 (A") (A') (A') (A') (A") (A') (A') (A") (A') (A')
                 (A") (A') (A') (A") (A') (A') (A") (A") (A') (A")
                 (A') (A') (A') (A") (A') (A') (A') (A') (A') (A")
                 (A') (A') (A') (A") (A") (A') (A') (A") (A') (A')
                 (A") (A') (A') (A") (A') (A') (A') (A') (A") (A")
                 (A') (A') (A') (A') (A") (A") (A') (A') (A") (A')
                 (A") (A') (A") (A') (A") (A") (A') (A') (A') (A')
                 (A') (A') (A') (A') (A') (A') (A') (A') (A') (A')
                 (A') (A') (A") (A') (A') (A') (A') (A') (A') (A')
                 (A') (A') (A') (A') (A') (A') (A') (A') (A') (A')
                 (A') (A') (A') (A') (A') (A') (A') (A') (A') (A')
                 (A') (A')
 The electronic state of the initial guess is 1-A'.
 Requested convergence on RMS density matrix=1.00D-08 within 128 cycles.
 Requested convergence on MAX density matrix=1.00D-06.
 Requested convergence on             energy=1.00D-06.
 No special actions if energy rises.
 SCF Done:  E(RM062X) =  -539.620010987     A.U. after   16 cycles
            NFock= 16  Conv=0.52D-08     -V/T= 2.0029
 DoSCS=F DFT=T ScalE2(SS,OS)=  1.000000  1.000000
 ExpMin= 3.60D-02 ExpMax= 4.56D+03 ExpMxC= 6.82D+02 IAcc=3 IRadAn=         5 AccDes= 0.00D+00
 HarFok:  IExCor=  205 AccDes= 0.00D+00 IRadAn=         5 IDoV=-2 UseB2=F ITyADJ=14
 ICtDFT= 12500011 ScaDFX=  1.000000  1.000000  1.000000  1.000000
 Range of M.O.s used for correlation:    15   379
 NBasis=   385 NAE=    47 NBE=    47 NFC=    14 NFV=     0
 NROrb=    365 NOA=    33 NOB=    33 NVA=   332 NVB=   332

 **** Warning!!: The largest alpha MO coefficient is  0.17077316D+03

 Orbital symmetries:
       Occupied  (A') (A') (A') (A') (A') (A') (A') (A') (A') (A')
                 (A') (A') (A') (A') (A') (A') (A') (A') (A') (A')
                 (A') (A') (A') (A') (A') (A') (A') (A') (A') (A')
                 (A') (A") (A') (A') (A') (A") (A') (A') (A") (A')
                 (A') (A') (A") (A") (A') (A") (A")
       Virtual   (A") (A") (A") (A") (A') (A') (A') (A') (A') (A")
                 (A') (A") (A') (A") (A') (A') (A") (A') (A') (A')
                 (A") (A") (A') (A') (A') (A") (A') (A') (A") (A')
                 (A") (A') (A') (A") (A') (A') (A') (A') (A") (A')
                 (A") (A') (A') (A") (A') (A") (A") (A') (A') (A')
                 (A") (A') (A') (A') (A') (A") (A') (A') (A') (A')
                 (A') (A") (A') (A') (A') (A') (A") (A') (A') (A')
                 (A') (A') (A') (A') (A') (A') (A') (A') (A') (A')
                 (A') (A') (A') (A') (A') (A') (A') (A') (A') (A')
                 (A') (A') (A') (A") (A') (A") (A') (A") (A') (A')
                 (A") (A') (A') (A") (A') (A") (A') (A") (A') (A')
                 (A") (A") (A') (A') (A") (A') (A") (A') (A') (A")
                 (A") (A') (A') (A") (A') (A') (A") (A') (A') (A')
                 (A') (A') (A') (A') (A') (A') (A') (A') (A') (A')
                 (A') (A') (A') (A') (A") (A') (A') (A') (A') (A")
                 (A') (A') (A') (A') (A') (A") (A") (A") (A') (A")
                 (A') (A") (A") (A') (A') (A") (A") (A") (A') (A')
                 (A") (A') (A') (A') (A') (A') (A') (A") (A") (A')
                 (A') (A') (A') (A") (A") (A') (A') (A") (A") (A")
                 (A') (A') (A') (A") (A') (A") (A') (A') (A') (A")
                 (A') (A") (A') (A") (A") (A') (A') (A") (A') (A')
                 (A') (A") (A') (A") (A') (A') (A") (A') (A") (A')
                 (A") (A') (A') (A') (A") (A') (A') (A") (A') (A")
                 (A') (A') (A') (A") (A') (A') (A") (A') (A") (A")
                 (A') (A') (A') (A") (A') (A') (A') (A') (A') (A')
                 (A") (A') (A') (A') (A') (A") (A") (A') (A') (A")
                 (A') (A') (A') (A') (A') (A") (A') (A') (A') (A')
                 (A') (A") (A') (A") (A") (A') (A") (A") (A') (A")
                 (A') (A") (A") (A') (A") (A") (A') (A') (A') (A')
                 (A') (A') (A') (A') (A') (A') (A') (A') (A') (A')
                 (A') (A") (A') (A') (A') (A') (A') (A') (A') (A')
                 (A') (A') (A') (A') (A') (A') (A') (A') (A') (A')
                 (A') (A') (A') (A') (A') (A') (A') (A') (A') (A')
                 (A') (A')
     4 initial guesses have been made.
 Convergence on wavefunction:    0.001000000000000
 Iteration     1 Dimension     4 NMult     0 NNew      4
 CISAX will form     4 AO SS matrices at one time.
 Iteration     2 Dimension     6 NMult     4 NNew      2
 Iteration     3 Dimension     8 NMult     6 NNew      2
 Iteration     4 Dimension    10 NMult     8 NNew      2
 Iteration     5 Dimension    12 NMult    10 NNew      2
 Iteration     6 Dimension    14 NMult    12 NNew      2
 ***********************************************************************
 Excited states from <AA,BB:AA,BB> singles matrix:
 ***********************************************************************
 
 Ground to excited state transition densities written to RWF  633
 Ground to excited state transition electric dipole moments (Au):
       state          X           Y           Z        Dip. S.      Osc.
         1         0.0740      0.6647      0.0000      0.4473      0.0190
 Ground to excited state transition velocity dipole moments (Au):
       state          X           Y           Z        Dip. S.      Osc.
         1        -0.0119     -0.0398     -0.0000      0.0017      0.0180
 Ground to excited state transition magnetic dipole moments (Au):
       state          X           Y           Z
         1        -0.0000      0.0000     -0.1320
 Ground to excited state transition velocity quadrupole moments (Au):
       state          XX          YY          ZZ          XY          XZ          YZ
         1         0.0581      0.0376     -0.0048     -0.0781     -0.0000     -0.0000
 <0|del|b> * <b|rxdel|0> + <0|del|b> * <b|delr+rdel|0>
 Rotatory Strengths (R) in cgs (10**-40 erg-esu-cm/Gauss)
       state          XX          YY          ZZ    R(velocity)    E-M Angle
         1        -0.0000      0.0000     -0.0000     -0.0000       90.00
 1/2[<0|r|b>*<b|rxdel|0> + (<0|rxdel|b>*<b|r|0>)*]
 Rotatory Strengths (R) in cgs (10**-40 erg-esu-cm/Gauss)
       state          XX          YY          ZZ     R(length)
         1         0.0000     -0.0000      0.0000     -0.0000
  1/2[<0|del|b>*<b|r|0> + (<0|r|b>*<b|del|0>)*] (Au)
       state          X           Y           Z        Dip. S.   Osc.(frdel)
         1        -0.0009     -0.0264     -0.0000      0.0273      0.0182

 Excitation energies and oscillator strengths:
 
 Excited State   1:      Singlet-A'     1.7343 eV  714.89 nm  f=0.0190  <S**2>=0.000
      47 -> 48         0.70269
 This state for optimization and/or second-order correction.
 Total Energy, E(TD-HF/TD-DFT) =  -539.556276128    
 Copying the excited state density for this state as the 1-particle RhoCI density.
 SavETr:  write IOETrn=   770 NScale= 10 NData=  16 NLR=1 NState=    1 LETran=      28.

 **********************************************************************

            Population analysis using the SCF Density.

 **********************************************************************

 Orbital symmetries:
       Occupied  (A') (A') (A') (A') (A') (A') (A') (A') (A') (A')
                 (A') (A') (A') (A') (A') (A') (A') (A') (A') (A')
                 (A') (A') (A') (A') (A') (A') (A') (A') (A') (A')
                 (A') (A") (A') (A') (A') (A") (A') (A') (A") (A')
                 (A') (A') (A") (A") (A') (A") (A")
       Virtual   (A") (A") (A") (A") (A') (A') (A') (A') (A') (A")
                 (A') (A") (A') (A") (A') (A') (A") (A') (A') (A')
                 (A") (A") (A') (A') (A') (A") (A') (A') (A") (A')
                 (A") (A') (A') (A") (A') (A') (A') (A') (A") (A')
                 (A") (A') (A') (A") (A') (A") (A") (A') (A') (A')
                 (A") (A') (A') (A') (A') (A") (A') (A') (A') (A')
                 (A') (A") (A') (A') (A') (A') (A") (A') (A') (A')
                 (A') (A') (A') (A') (A') (A') (A') (A') (A') (A')
                 (A') (A') (A') (A') (A') (A') (A') (A') (A') (A')
                 (A') (A') (A') (A") (A') (A") (A') (A") (A') (A')
                 (A") (A') (A') (A") (A') (A") (A') (A") (A') (A')
                 (A") (A") (A') (A') (A") (A') (A") (A') (A') (A")
                 (A") (A') (A') (A") (A') (A') (A") (A') (A') (A')
                 (A') (A') (A') (A') (A') (A') (A') (A') (A') (A')
                 (A') (A') (A') (A') (A") (A') (A') (A') (A') (A")
                 (A') (A') (A') (A') (A') (A") (A") (A") (A') (A")
                 (A') (A") (A") (A') (A') (A") (A") (A") (A') (A')
                 (A") (A') (A') (A') (A') (A') (A') (A") (A") (A')
                 (A') (A') (A') (A") (A") (A') (A') (A") (A") (A")
                 (A') (A') (A') (A") (A') (A") (A') (A') (A') (A")
                 (A') (A") (A') (A") (A") (A') (A') (A") (A') (A')
                 (A') (A") (A') (A") (A') (A') (A") (A') (A") (A')
                 (A") (A') (A') (A') (A") (A') (A') (A") (A') (A")
                 (A') (A') (A') (A") (A') (A') (A") (A') (A") (A")
                 (A') (A') (A') (A") (A') (A') (A') (A') (A') (A')
                 (A") (A') (A') (A') (A') (A") (A") (A') (A') (A")
                 (A') (A') (A') (A') (A') (A") (A') (A') (A') (A')
                 (A') (A") (A') (A") (A") (A') (A") (A") (A') (A")
                 (A') (A") (A") (A') (A") (A") (A') (A') (A') (A')
                 (A') (A') (A') (A') (A') (A') (A') (A') (A') (A')
                 (A') (A") (A') (A') (A') (A') (A') (A') (A') (A')
                 (A') (A') (A') (A') (A') (A') (A') (A') (A') (A')
                 (A') (A') (A') (A') (A') (A') (A') (A') (A') (A')
                 (A') (A')
 The electronic state is 1-A'.
 Alpha  occ. eigenvalues --  -10.76120 -10.75884 -10.75097 -10.73288 -10.72102
 Alpha  occ. eigenvalues --  -10.71479 -10.71151 -10.70985 -10.70166 -10.70102
 Alpha  occ. eigenvalues --  -10.69191 -10.69106 -10.68650 -10.67422  -1.18093
 Alpha  occ. eigenvalues --   -1.12640  -1.08372  -1.06678  -1.01886  -1.01131
 Alpha  occ. eigenvalues --   -0.94799  -0.90059  -0.86526  -0.85528  -0.83672
 Alpha  occ. eigenvalues --   -0.77280  -0.77243  -0.74305  -0.71270  -0.69621
 Alpha  occ. eigenvalues --   -0.68517  -0.67753  -0.66978  -0.66177  -0.64088
 Alpha  occ. eigenvalues --   -0.62219  -0.62075  -0.61333  -0.57838  -0.57434
 Alpha  occ. eigenvalues --   -0.56008  -0.55600  -0.52403  -0.51797  -0.51492
 Alpha  occ. eigenvalues --   -0.46541  -0.39744
 Alpha virt. eigenvalues --   -0.26484  -0.14961  -0.13606  -0.12086  -0.11387
 Alpha virt. eigenvalues --   -0.10221  -0.09592  -0.07777  -0.07599  -0.07547
 Alpha virt. eigenvalues --   -0.07328  -0.06649  -0.05701  -0.05503  -0.05473
 Alpha virt. eigenvalues --   -0.04132  -0.03928  -0.03235  -0.03141  -0.02031
 Alpha virt. eigenvalues --   -0.01405  -0.01067  -0.00003   0.00251   0.00681
 Alpha virt. eigenvalues --    0.01190   0.01298   0.01523   0.02027   0.02033
 Alpha virt. eigenvalues --    0.02417   0.02465   0.03210   0.03384   0.03467
 Alpha virt. eigenvalues --    0.04060   0.04496   0.05047   0.05111   0.05488
 Alpha virt. eigenvalues --    0.05913   0.06135   0.06211   0.07221   0.07251
 Alpha virt. eigenvalues --    0.07530   0.07893   0.07920   0.08431   0.08638
 Alpha virt. eigenvalues --    0.09291   0.09310   0.09777   0.09857   0.10297
 Alpha virt. eigenvalues --    0.11251   0.11269   0.11684   0.12041   0.12926
 Alpha virt. eigenvalues --    0.13188   0.13616   0.13709   0.13927   0.14426
 Alpha virt. eigenvalues --    0.15477   0.16023   0.16605   0.17254   0.17581
 Alpha virt. eigenvalues --    0.18024   0.19261   0.19665   0.20449   0.21028
 Alpha virt. eigenvalues --    0.21201   0.21975   0.23134   0.23612   0.23948
 Alpha virt. eigenvalues --    0.24504   0.24958   0.26196   0.27011   0.27597
 Alpha virt. eigenvalues --    0.29117   0.29749   0.30434   0.31579   0.35442
 Alpha virt. eigenvalues --    0.36911   0.38272   0.39280   0.39510   0.39996
 Alpha virt. eigenvalues --    0.40752   0.42321   0.43204   0.43615   0.44128
 Alpha virt. eigenvalues --    0.44869   0.45287   0.45388   0.46813   0.46962
 Alpha virt. eigenvalues --    0.47868   0.48299   0.49130   0.50440   0.51289
 Alpha virt. eigenvalues --    0.51460   0.52345   0.52514   0.53755   0.54159
 Alpha virt. eigenvalues --    0.54696   0.55155   0.55957   0.57752   0.57953
 Alpha virt. eigenvalues --    0.58670   0.60626   0.62050   0.62257   0.63330
 Alpha virt. eigenvalues --    0.63645   0.63705   0.64725   0.65988   0.68921
 Alpha virt. eigenvalues --    0.69142   0.70555   0.72602   0.73476   0.73845
 Alpha virt. eigenvalues --    0.74873   0.75632   0.76887   0.77107   0.77512
 Alpha virt. eigenvalues --    0.78670   0.79113   0.79727   0.80230   0.80735
 Alpha virt. eigenvalues --    0.81250   0.82400   0.83566   0.84266   0.85446
 Alpha virt. eigenvalues --    0.86390   0.88527   0.89415   0.89855   0.90473
 Alpha virt. eigenvalues --    0.90983   0.92586   0.94657   0.95066   0.96531
 Alpha virt. eigenvalues --    0.96864   0.98377   1.01199   1.02402   1.02930
 Alpha virt. eigenvalues --    1.04522   1.04613   1.06526   1.07667   1.10236
 Alpha virt. eigenvalues --    1.18266   1.19807   1.21186   1.23844   1.27320
 Alpha virt. eigenvalues --    1.31929   1.33290   1.33643   1.35730   1.37019
 Alpha virt. eigenvalues --    1.37371   1.38397   1.39440   1.41103   1.42243
 Alpha virt. eigenvalues --    1.44123   1.45308   1.45504   1.46753   1.48650
 Alpha virt. eigenvalues --    1.48709   1.49936   1.53312   1.53581   1.55557
 Alpha virt. eigenvalues --    1.56305   1.56494   1.57164   1.58017   1.60830
 Alpha virt. eigenvalues --    1.62398   1.64008   1.65266   1.65299   1.67909
 Alpha virt. eigenvalues --    1.69006   1.70267   1.70531   1.74665   1.76652
 Alpha virt. eigenvalues --    1.76889   1.77090   1.79328   1.79688   1.80694
 Alpha virt. eigenvalues --    1.82180   1.82528   1.83543   1.84301   1.85047
 Alpha virt. eigenvalues --    1.85422   1.87532   1.88461   1.89371   1.92009
 Alpha virt. eigenvalues --    1.93046   1.94059   1.98018   1.98263   1.99382
 Alpha virt. eigenvalues --    2.00177   2.03860   2.07980   2.08428   2.11454
 Alpha virt. eigenvalues --    2.14676   2.16443   2.17445   2.19014   2.21924
 Alpha virt. eigenvalues --    2.22430   2.26245   2.31346   2.31698   2.33378
 Alpha virt. eigenvalues --    2.36291   2.39133   2.39209   2.41089   2.42325
 Alpha virt. eigenvalues --    2.44747   2.46129   2.47965   2.52993   2.54329
 Alpha virt. eigenvalues --    2.55820   2.57883   2.57900   2.59040   2.59957
 Alpha virt. eigenvalues --    2.60810   2.61381   2.62314   2.63280   2.64444
 Alpha virt. eigenvalues --    2.64628   2.65477   2.66603   2.67034   2.67541
 Alpha virt. eigenvalues --    2.69518   2.70637   2.72930   2.74016   2.74510
 Alpha virt. eigenvalues --    2.76105   2.76162   2.78993   2.82933   2.84624
 Alpha virt. eigenvalues --    2.86600   2.86859   2.92393   2.96640   2.99047
 Alpha virt. eigenvalues --    3.00820   3.02970   3.04331   3.06824   3.11827
 Alpha virt. eigenvalues --    3.14505   3.17004   3.23633   3.28630   3.32494
 Alpha virt. eigenvalues --    3.33161   3.36734   3.42900   3.48595   3.51349
 Alpha virt. eigenvalues --    3.52672   3.57749   3.58040   3.61950   3.70788
 Alpha virt. eigenvalues --    3.73326   3.88708   3.89397   3.91122   3.95943
 Alpha virt. eigenvalues --    4.01528   4.03475   4.07850   4.11490   4.31374
 Alpha virt. eigenvalues --    4.51304   4.58776   4.62439  23.42885  23.54197
 Alpha virt. eigenvalues --   23.63975  23.65248  23.68240  23.87119  23.89601
 Alpha virt. eigenvalues --   23.92596  24.05609  24.18115  24.22815  24.27899
 Alpha virt. eigenvalues --   24.51115  24.65518
          Condensed to atoms (all electrons):
               1          2          3          4          5          6
     1  C   13.011150  -2.820094   0.633296   3.412329  -0.468087  -0.149939
     2  C   -2.820094   9.192976  -0.711516  -1.906782   0.227064  -0.009822
     3  C    0.633296  -0.711516   6.819187   1.245813  -0.209820   0.013619
     4  C    3.412329  -1.906782   1.245813   9.809166  -0.737604  -0.081226
     5  C   -0.468087   0.227064  -0.209820  -0.737604  13.779927   0.958442
     6  C   -0.149939  -0.009822   0.013619  -0.081226   0.958442   6.988607
     7  C    0.053435  -0.020319  -0.009451  -0.087059  -0.902321   0.597908
     8  C    0.344812  -0.040638  -0.065553  -0.123075   1.423463  -0.616963
     9  C   -0.653641  -1.239149   0.326806  -0.426434   0.900738   0.258775
    10  C   -1.567476   0.671377  -0.581319  -1.634905  -3.303044  -0.101250
    11  C   -0.644838  -0.592033   0.941697  -0.280109  -1.366624  -0.476965
    12  C   -5.524845   3.762083  -1.842867  -2.244801  -1.030174   0.341399
    13  C    1.161303  -0.894402   0.225084  -0.963126  -1.531864   0.096707
    14  C   -1.415742   0.561666  -0.670056  -0.166449  -2.147641  -1.771078
    15  H    0.433488  -0.176774   0.032096   0.039421  -0.007480   0.001155
    16  H   -0.014072   0.363356  -0.011803   0.000815   0.000614  -0.000214
    17  H   -0.070529   0.038472   0.349248  -0.059022  -0.000417   0.000368
    18  H    0.080526  -0.019455  -0.068821   0.443366   0.005621  -0.004720
    19  H   -0.043729  -0.012899   0.050507  -0.034135  -0.109121   0.047487
    20  H    0.004543   0.004212  -0.005722  -0.004033   0.535772  -0.062529
    21  H   -0.001772  -0.000326   0.000402   0.000525  -0.067497   0.389805
    22  H    0.002302   0.000547  -0.000373  -0.002455   0.024135  -0.028877
    23  H    0.003309  -0.002994   0.001054   0.006203   0.017862  -0.006497
    24  H    0.001306   0.010561  -0.002349  -0.017132  -0.001988  -0.001309
    25  H    0.001306   0.010561  -0.002349  -0.017132  -0.001988  -0.001309
               7          8          9         10         11         12
     1  C    0.053435   0.344812  -0.653641  -1.567476  -0.644838  -5.524845
     2  C   -0.020319  -0.040638  -1.239149   0.671377  -0.592033   3.762083
     3  C   -0.009451  -0.065553   0.326806  -0.581319   0.941697  -1.842867
     4  C   -0.087059  -0.123075  -0.426434  -1.634905  -0.280109  -2.244801
     5  C   -0.902321   1.423463   0.900738  -3.303044  -1.366624  -1.030174
     6  C    0.597908  -0.616963   0.258775  -0.101250  -0.476965   0.341399
     7  C    7.503327   0.854813  -1.006485  -0.126933  -0.253185  -0.499240
     8  C    0.854813   7.812236  -0.502814  -0.994171   0.223385  -1.428060
     9  C   -1.006485  -0.502814  10.073410   0.060129   0.409057  -0.777449
    10  C   -0.126933  -0.994171   0.060129   8.560757  -0.345152   2.441856
    11  C   -0.253185   0.223385   0.409057  -0.345152  12.207029  -0.392040
    12  C   -0.499240  -1.428060  -0.777449   2.441856  -0.392040  14.454124
    13  C    0.010236   0.634946   0.703375   0.467905  -0.179669  -3.987495
    14  C   -0.013078  -1.940050  -2.609241   2.074330  -2.905747   2.292785
    15  H    0.001295   0.008859   0.129829  -0.014470  -0.076278  -0.104006
    16  H   -0.000017  -0.000397  -0.005023  -0.000896   0.008327   0.001302
    17  H   -0.000375  -0.001292  -0.005245   0.009919  -0.003456   0.093642
    18  H    0.001249   0.003291  -0.021563   0.019231   0.034154  -0.140569
    19  H   -0.004822  -0.031948   0.068414   0.427004   0.056449   0.067911
    20  H    0.010148   0.041038  -0.010703  -0.020769  -0.008945  -0.067349
    21  H   -0.033532  -0.007128  -0.002468   0.018480  -0.007404   0.008652
    22  H    0.385007  -0.020181  -0.003665  -0.013391   0.005217  -0.016242
    23  H   -0.097323   0.369757   0.059910  -0.003626  -0.018720   0.008416
    24  H    0.015016   0.041579   0.365646   0.006554  -0.040187  -0.033745
    25  H    0.015016   0.041579   0.365646   0.006554  -0.040187  -0.033745
              13         14         15         16         17         18
     1  C    1.161303  -1.415742   0.433488  -0.014072  -0.070529   0.080526
     2  C   -0.894402   0.561666  -0.176774   0.363356   0.038472  -0.019455
     3  C    0.225084  -0.670056   0.032096  -0.011803   0.349248  -0.068821
     4  C   -0.963126  -0.166449   0.039421   0.000815  -0.059022   0.443366
     5  C   -1.531864  -2.147641  -0.007480   0.000614  -0.000417   0.005621
     6  C    0.096707  -1.771078   0.001155  -0.000214   0.000368  -0.004720
     7  C    0.010236  -0.013078   0.001295  -0.000017  -0.000375   0.001249
     8  C    0.634946  -1.940050   0.008859  -0.000397  -0.001292   0.003291
     9  C    0.703375  -2.609241   0.129829  -0.005023  -0.005245  -0.021563
    10  C    0.467905   2.074330  -0.014470  -0.000896   0.009919   0.019231
    11  C   -0.179669  -2.905747  -0.076278   0.008327  -0.003456   0.034154
    12  C   -3.987495   2.292785  -0.104006   0.001302   0.093642  -0.140569
    13  C   15.430542  -4.659947   0.058974  -0.005793  -0.003890  -0.013482
    14  C   -4.659947  18.917951  -0.024410   0.002380   0.000034   0.011845
    15  H    0.058974  -0.024410   0.475411  -0.008864   0.000462  -0.000713
    16  H   -0.005793   0.002380  -0.008864   0.430549  -0.002954   0.001610
    17  H   -0.003890   0.000034   0.000462  -0.002954   0.425851  -0.007266
    18  H   -0.013482   0.011845  -0.000713   0.001610  -0.007266   0.465138
    19  H    0.089774  -0.200648   0.000458  -0.000483   0.000738  -0.009783
    20  H   -0.018624  -0.057098  -0.000174   0.000022  -0.000112   0.001144
    21  H   -0.018921   0.062566   0.000005  -0.000005   0.000010  -0.000185
    22  H    0.027508  -0.023191  -0.000159   0.000007  -0.000007   0.000021
    23  H   -0.044526   0.048504   0.000405  -0.000104   0.000028  -0.000133
    24  H    0.040274  -0.049888  -0.000761   0.000597  -0.000109   0.000317
    25  H    0.040274  -0.049888  -0.000761   0.000597  -0.000109   0.000317
              19         20         21         22         23         24
     1  C   -0.043729   0.004543  -0.001772   0.002302   0.003309   0.001306
     2  C   -0.012899   0.004212  -0.000326   0.000547  -0.002994   0.010561
     3  C    0.050507  -0.005722   0.000402  -0.000373   0.001054  -0.002349
     4  C   -0.034135  -0.004033   0.000525  -0.002455   0.006203  -0.017132
     5  C   -0.109121   0.535772  -0.067497   0.024135   0.017862  -0.001988
     6  C    0.047487  -0.062529   0.389805  -0.028877  -0.006497  -0.001309
     7  C   -0.004822   0.010148  -0.033532   0.385007  -0.097323   0.015016
     8  C   -0.031948   0.041038  -0.007128  -0.020181   0.369757   0.041579
     9  C    0.068414  -0.010703  -0.002468  -0.003665   0.059910   0.365646
    10  C    0.427004  -0.020769   0.018480  -0.013391  -0.003626   0.006554
    11  C    0.056449  -0.008945  -0.007404   0.005217  -0.018720  -0.040187
    12  C    0.067911  -0.067349   0.008652  -0.016242   0.008416  -0.033745
    13  C    0.089774  -0.018624  -0.018921   0.027508  -0.044526   0.040274
    14  C   -0.200648  -0.057098   0.062566  -0.023191   0.048504  -0.049888
    15  H    0.000458  -0.000174   0.000005  -0.000159   0.000405  -0.000761
    16  H   -0.000483   0.000022  -0.000005   0.000007  -0.000104   0.000597
    17  H    0.000738  -0.000112   0.000010  -0.000007   0.000028  -0.000109
    18  H   -0.009783   0.001144  -0.000185   0.000021  -0.000133   0.000317
    19  H    0.458746  -0.004005   0.002226  -0.000542   0.000488   0.000535
    20  H   -0.004005   0.442453  -0.011167   0.002193   0.000255   0.000089
    21  H    0.002226  -0.011167   0.412909  -0.005942   0.001814  -0.000119
    22  H   -0.000542   0.002193  -0.005942   0.397495  -0.006128   0.000536
    23  H    0.000488   0.000255   0.001814  -0.006128   0.419027  -0.000697
    24  H    0.000535   0.000089  -0.000119   0.000536  -0.000697   0.481473
    25  H    0.000535   0.000089  -0.000119   0.000536  -0.000697  -0.074497
              25
     1  C    0.001306
     2  C    0.010561
     3  C   -0.002349
     4  C   -0.017132
     5  C   -0.001988
     6  C   -0.001309
     7  C    0.015016
     8  C    0.041579
     9  C    0.365646
    10  C    0.006554
    11  C   -0.040187
    12  C   -0.033745
    13  C    0.040274
    14  C   -0.049888
    15  H   -0.000761
    16  H    0.000597
    17  H   -0.000109
    18  H    0.000317
    19  H    0.000535
    20  H    0.000089
    21  H   -0.000119
    22  H    0.000536
    23  H   -0.000697
    24  H   -0.074497
    25  H    0.481473
 Mulliken charges:
               1
     1  C    0.231660
     2  C   -0.395674
     3  C   -0.456810
     4  C   -0.172160
     5  C    0.012030
     6  C   -0.381575
     7  C   -0.393309
     8  C   -0.027490
     9  C   -0.457856
    10  C   -0.056696
    11  C   -0.253779
    12  C    0.650455
    13  C   -0.665165
    14  C    0.732093
    15  H    0.232992
    16  H    0.240447
    17  H    0.236010
    18  H    0.218861
    19  H    0.180844
    20  H    0.229274
    21  H    0.259192
    22  H    0.275649
    23  H    0.244413
    24  H    0.258297
    25  H    0.258297
 Sum of Mulliken charges =   1.00000
 Mulliken charges with hydrogens summed into heavy atoms:
               1
     1  C    0.464652
     2  C   -0.155226
     3  C   -0.220800
     4  C    0.046701
     5  C    0.241304
     6  C   -0.122383
     7  C   -0.117660
     8  C    0.216922
     9  C    0.058739
    10  C    0.124147
    11  C   -0.253779
    12  C    0.650455
    13  C   -0.665165
    14  C    0.732093
 Electronic spatial extent (au):  <R**2>=           2859.0271
 Charge=              1.0000 electrons
 Dipole moment (field-independent basis, Debye):
    X=              1.9722    Y=             -3.6561    Z=             -0.0000  Tot=              4.1541
 Quadrupole moment (field-independent basis, Debye-Ang):
   XX=            -52.5070   YY=            -33.1491   ZZ=            -83.9407
   XY=             -9.9146   XZ=              0.0000   YZ=             -0.0000
 Traceless Quadrupole moment (field-independent basis, Debye-Ang):
   XX=              4.0253   YY=             23.3831   ZZ=            -27.4084
   XY=             -9.9146   XZ=              0.0000   YZ=             -0.0000
 Octapole moment (field-independent basis, Debye-Ang**2):
  XXX=             13.6604  YYY=            -30.1726  ZZZ=             -0.0000  XYY=             12.0539
  XXY=            -17.7227  XXZ=              0.0000  XZZ=              5.5761  YZZ=             -4.5261
  YYZ=              0.0000  XYZ=              0.0000
 Hexadecapole moment (field-independent basis, Debye-Ang**3):
 XXXX=           -903.9234 YYYY=          -1906.0393 ZZZZ=            -99.0438 XXXY=            313.4637
 XXXZ=              0.0000 YYYX=            234.4011 YYYZ=             -0.0000 ZZZX=              0.0000
 ZZZY=              0.0000 XXYY=           -456.9372 XXZZ=           -220.7130 YYZZ=           -513.6302
 XXYZ=             -0.0000 YYXZ=             -0.0000 ZZXY=            165.4937
 N-N= 7.820776597348D+02 E-N=-2.800813241163D+03  KE= 5.380535200442D+02
 Symmetry A'   KE= 5.232755287056D+02
 Symmetry A"   KE= 1.477799133856D+01
 Unable to Open any file for archive entry.
 1\1\GINC-GADI-CPU-CLX-0240\SP\RM062X TD-FC\6-311++G(d,p)\C14H11(1+)\TS
 1578\02-Aug-2022\0\\#n M062X/6-311++G(d,p) TD(NStates=1) EmpiricalDisp
 ersion=GD3 SP\\SP_-6\\1,1\C,0,0.,2.562655,1.338431\C,0,0.,3.799508,0.7
 29989\C,0,0.,3.753861,-0.60583\C,0,0.,2.367156,-1.377538\C,0,0.,-2.559
 156,-1.437538\C,0,0.,-3.613861,-0.82183\C,0,0.,-3.603508,0.613989\C,0,
 0.,-2.422655,1.382431\C,0,0.,0.056,1.453369\C,0,0.,-0.186,-1.429189\C,
 0,0.,1.196055,0.569065\C,0,0.,1.191471,-0.762804\C,0,0.,-1.328055,0.78
 5065\C,0,0.,-1.283471,-0.698804\H,0,0.,2.464071,2.421647\H,0,0.,4.7207
 53,1.287689\H,0,0.,4.643262,-1.230349\H,0,0.,2.46555,-2.460059\H,0,0.,
 -0.212,-2.510266\H,0,0.,-2.46955,-2.520059\H,0,0.,-4.575262,-1.314349\
 H,0,0.,-4.552753,1.135689\H,0,0.,-2.512071,2.465647\H,0,-0.859585,0.31
 2,2.145787\H,0,0.859585,0.312,2.145787\\Version=ES64L-G16RevC.01\State
 =1-A'\HF=-539.620011\RMSD=5.207e-09\PG=CS [SG(C14H9),X(H2)]\\@
 The archive entry for this job was punched.


 The arm of the moral universe is long, but it bends toward justice.
 -- Martin Luther King, Jr.
 Job cpu time:       0 days  0 hours 53 minutes  1.6 seconds.
 Elapsed time:       0 days  0 hours  1 minutes  6.4 seconds.
 File lengths (MBytes):  RWF=    460 Int=      0 D2E=      0 Chk=     15 Scr=      1
 Normal termination of Gaussian 16 at Tue Aug  2 12:15:04 2022.
