 Entering Gaussian System, Link 0=g16
 Initial command:
 /apps/gaussian/g16c01/g16/l1.exe "/jobfs/53803565.gadi-pbs/Gau-1071994.inp" -scrdir="/jobfs/53803565.gadi-pbs/"
 Entering Link 1 = /apps/gaussian/g16c01/g16/l1.exe PID=   1071995.
  
 Copyright (c) 1988-2019, Gaussian, Inc.  All Rights Reserved.
  
 This is part of the Gaussian(R) 16 program.  It is based on
 the Gaussian(R) 09 system (copyright 2009, Gaussian, Inc.),
 the Gaussian(R) 03 system (copyright 2003, Gaussian, Inc.),
 the Gaussian(R) 98 system (copyright 1998, Gaussian, Inc.),
 the Gaussian(R) 94 system (copyright 1995, Gaussian, Inc.),
 the Gaussian 92(TM) system (copyright 1992, Gaussian, Inc.),
 the Gaussian 90(TM) system (copyright 1990, Gaussian, Inc.),
 the Gaussian 88(TM) system (copyright 1988, Gaussian, Inc.),
 the Gaussian 86(TM) system (copyright 1986, Carnegie Mellon
 University), and the Gaussian 82(TM) system (copyright 1983,
 Carnegie Mellon University). Gaussian is a federally registered
 trademark of Gaussian, Inc.
  
 This software contains proprietary and confidential information,
 including trade secrets, belonging to Gaussian, Inc.
  
 This software is provided under written license and may be
 used, copied, transmitted, or stored only in accord with that
 written license.
  
 The following legend is applicable only to US Government
 contracts under FAR:
  
                    RESTRICTED RIGHTS LEGEND
  
 Use, reproduction and disclosure by the US Government is
 subject to restrictions as set forth in subparagraphs (a)
 and (c) of the Commercial Computer Software - Restricted
 Rights clause in FAR 52.227-19.
  
 Gaussian, Inc.
 340 Quinnipiac St., Bldg. 40, Wallingford CT 06492
  
  
 ---------------------------------------------------------------
 Warning -- This program may not be used in any manner that
 competes with the business of Gaussian, Inc. or will provide
 assistance to any competitor of Gaussian, Inc.  The licensee
 of this program is prohibited from giving any competitor of
 Gaussian, Inc. access to this program.  By using this program,
 the user acknowledges that Gaussian, Inc. is engaged in the
 business of creating and licensing software in the field of
 computational chemistry and represents and warrants to the
 licensee that it is not a competitor of Gaussian, Inc. and that
 it will not use this program in any manner prohibited above.
 ---------------------------------------------------------------
  

 Cite this work as:
 Gaussian 16, Revision C.01,
 M. J. Frisch, G. W. Trucks, H. B. Schlegel, G. E. Scuseria, 
 M. A. Robb, J. R. Cheeseman, G. Scalmani, V. Barone, 
 G. A. Petersson, H. Nakatsuji, X. Li, M. Caricato, A. V. Marenich, 
 J. Bloino, B. G. Janesko, R. Gomperts, B. Mennucci, H. P. Hratchian, 
 J. V. Ortiz, A. F. Izmaylov, J. L. Sonnenberg, D. Williams-Young, 
 F. Ding, F. Lipparini, F. Egidi, J. Goings, B. Peng, A. Petrone, 
 T. Henderson, D. Ranasinghe, V. G. Zakrzewski, J. Gao, N. Rega, 
 G. Zheng, W. Liang, M. Hada, M. Ehara, K. Toyota, R. Fukuda, 
 J. Hasegawa, M. Ishida, T. Nakajima, Y. Honda, O. Kitao, H. Nakai, 
 T. Vreven, K. Throssell, J. A. Montgomery, Jr., J. E. Peralta, 
 F. Ogliaro, M. J. Bearpark, J. J. Heyd, E. N. Brothers, K. N. Kudin, 
 V. N. Staroverov, T. A. Keith, R. Kobayashi, J. Normand, 
 K. Raghavachari, A. P. Rendell, J. C. Burant, S. S. Iyengar, 
 J. Tomasi, M. Cossi, J. M. Millam, M. Klene, C. Adamo, R. Cammi, 
 J. W. Ochterski, R. L. Martin, K. Morokuma, O. Farkas, 
 J. B. Foresman, and D. J. Fox, Gaussian, Inc., Wallingford CT, 2019.
 
 ******************************************
 Gaussian 16:  ES64L-G16RevC.01  3-Jul-2019
                 2-Aug-2022 
 ******************************************
 %NProcShared=48
 Will use up to   48 processors via shared memory.
 %mem = 190GB
 ---------------------------------------------------------------
 #n M062X/6-311++G(d,p) TD(NStates=1) EmpiricalDispersion=GD3 SP
 ---------------------------------------------------------------
 1/38=1,172=1/1;
 2/12=2,17=6,18=5,40=1/2;
 3/5=4,6=6,7=1111,11=9,25=1,30=1,74=-55,124=31/1,2,3,8;
 4//1;
 5/5=2,38=5/2;
 8/6=1,10=2,108=1/1;
 9/41=1,42=1,70=2/14;
 6/7=2,8=2,9=2,10=2/1;
 99/5=1,9=1/99;
 -----
 SP_12
 -----
 Symbolic Z-matrix:
 Charge =  1 Multiplicity = 1
 C                     0.        2.35265   1.40443 
 C                     0.        3.50551   0.55599 
 C                     0.        3.54386  -0.92983 
 C                     0.        2.65516  -1.46754 
 C                     0.       -2.27116  -1.34754 
 C                     0.       -3.82386  -0.49783 
 C                     0.       -3.89751   0.78799 
 C                     0.       -2.63266   1.31643 
 C                     0.       -0.112     1.45337 
 C                     0.        0.372    -1.42919 
 C                     0.        1.39406   0.89307 
 C                     0.        1.32947  -0.6668 
 C                     0.       -1.13006   0.46107 
 C                     0.       -1.14547  -0.7948 
 H                     0.        2.53607   2.48765 
 H                     0.        4.46875   1.05969 
 H                     0.        4.54126  -1.35635 
 H                     0.        2.47155  -2.55006 
 H                     0.        0.424    -2.51027 
 H                     0.       -2.46355  -2.43006 
 H                     0.       -4.67726  -1.18835 
 H                     0.       -4.80475   1.36369 
 H                     0.       -2.44007   2.39965 
 H                    -0.85959  -0.624     2.14579 
 H                     0.85959  -0.624     2.14579 
 
                          Input orientation:                          
 ---------------------------------------------------------------------
 Center     Atomic      Atomic             Coordinates (Angstroms)
 Number     Number       Type             X           Y           Z
 ---------------------------------------------------------------------
      1          6           0        0.000000    2.352655    1.404431
      2          6           0        0.000000    3.505508    0.555989
      3          6           0        0.000000    3.543861   -0.929830
      4          6           0        0.000000    2.655156   -1.467538
      5          6           0        0.000000   -2.271156   -1.347538
      6          6           0        0.000000   -3.823861   -0.497830
      7          6           0        0.000000   -3.897508    0.787989
      8          6           0        0.000000   -2.632655    1.316431
      9          6           0        0.000000   -0.112000    1.453369
     10          6           0        0.000000    0.372000   -1.429189
     11          6           0        0.000000    1.394055    0.893065
     12          6           0        0.000000    1.329471   -0.666804
     13          6           0        0.000000   -1.130055    0.461065
     14          6           0        0.000000   -1.145471   -0.794804
     15          1           0        0.000000    2.536071    2.487647
     16          1           0        0.000000    4.468753    1.059689
     17          1           0        0.000000    4.541262   -1.356349
     18          1           0        0.000000    2.471550   -2.550059
     19          1           0        0.000000    0.424000   -2.510266
     20          1           0        0.000000   -2.463550   -2.430059
     21          1           0        0.000000   -4.677262   -1.188349
     22          1           0        0.000000   -4.804753    1.363689
     23          1           0        0.000000   -2.440071    2.399647
     24          1           0       -0.859585   -0.624000    2.145787
     25          1           0        0.859585   -0.624000    2.145787
 ---------------------------------------------------------------------
                    Distance matrix (angstroms):
                    1          2          3          4          5
     1  C    0.000000
     2  C    1.431406   0.000000
     3  C    2.620639   1.486314   0.000000
     4  C    2.887856   2.194940   1.038714   0.000000
     5  C    5.380796   6.082209   5.830000   4.927773   0.000000
     6  C    6.462813   7.404741   7.380376   6.551183   1.769999
     7  C    6.280489   7.406650   7.637072   6.929993   2.684306
     8  C    4.986087   6.185088   6.572293   5.975904   2.688385
     9  C    2.465141   3.727151   4.364053   4.023537   3.536529
    10  C    3.457224   3.709421   3.210928   2.283478   2.644417
    11  C    1.086466   2.138189   2.818619   2.676345   4.295820
    12  C    2.310177   2.496069   2.229956   1.548746   3.664412
    13  C    3.608214   4.636535   4.876482   4.248215   2.138494
    14  C    4.132012   4.843165   4.691276   3.859707   1.254066
    15  H    1.098635   2.161275   3.562975   3.956977   6.149640
    16  H    2.143996   1.086993   2.193994   3.110629   7.156893
    17  H    3.523054   2.174816   1.084771   1.889381   6.812424
    18  H    3.956277   3.273622   1.942934   1.097981   4.892782
    19  H    4.364008   4.347138   3.497329   2.462791   2.935269
    20  H    6.156228   6.674289   6.191904   5.208416   1.099485
    21  H    7.492813   8.366627   8.225187   7.337731   2.411366
    22  H    7.157524   8.349420   8.657920   7.979103   3.710777
    23  H    4.894964   6.224868   6.847836   6.396597   3.750990
    24  H    3.185745   4.507680   5.250654   4.954581   3.956682
    25  H    3.185745   4.507680   5.250654   4.954581   3.956682
                    6          7          8          9         10
     6  C    0.000000
     7  C    1.287926   0.000000
     8  C    2.170372   1.370804   0.000000
     9  C    4.193458   3.843540   2.524372   0.000000
    10  C    4.297985   4.810881   4.070182   2.922909   0.000000
    11  C    5.400114   5.292606   4.048905   1.606905   2.537215
    12  C    5.156102   5.425655   4.430763   2.563781   1.223921
    13  C    2.859383   2.786696   1.729005   1.421655   2.414380
    14  C    2.694804   3.174735   2.582446   2.474337   1.644738
    15  H    7.025796   6.654305   5.299762   2.842888   4.474909
    16  H    8.437613   8.370672   7.106048   4.597639   4.793527
    17  H    8.409063   8.706953   7.655641   5.435749   4.169898
    18  H    6.621468   7.190790   6.403331   4.764679   2.380013
    19  H    4.700449   5.436351   4.897627   3.999712   1.082327
    20  H    2.363039   3.523077   3.750304   4.539912   3.007006
    21  H    1.097775   2.124601   3.233317   5.274494   5.055003
    22  H    2.104139   1.074488   2.172612   4.693610   5.882086
    23  H    3.210957   2.172916   1.100202   2.513037   4.750550
    24  H    4.238715   3.646691   2.336967   1.216747   3.809377
    25  H    4.238715   3.646691   2.336967   1.216747   3.809377
                   11         12         13         14         15
    11  C    0.000000
    12  C    1.561205   0.000000
    13  C    2.560811   2.705801   0.000000
    14  C    3.049278   2.478250   1.255964   0.000000
    15  H    1.961350   3.377343   4.188975   4.932366   0.000000
    16  H    3.079210   3.582718   5.630719   5.912584   2.402982
    17  H    3.868433   3.284977   5.955403   5.714391   4.335562
    18  H    3.607783   2.202497   4.694510   4.020418   5.038119
    19  H    3.538880   2.053833   3.353192   2.325091   5.425862
    20  H    5.091588   4.182831   3.183835   2.100331   7.012848
    21  H    6.418191   6.029333   3.911936   3.553650   8.095994
    22  H    6.216648   6.461548   3.783931   4.248463   7.426370
    23  H    4.119504   4.859277   2.339710   3.446811   4.976920
    24  H    2.526014   3.530666   1.957873   3.107715   3.292689
    25  H    2.526014   3.530666   1.957873   3.107715   3.292689
                   16         17         18         19         20
    16  H    0.000000
    17  H    2.417126   0.000000
    18  H    4.125421   2.389278   0.000000
    19  H    5.394868   4.275906   2.047937   0.000000
    20  H    7.761132   7.086624   4.936559   2.888664   0.000000
    21  H    9.418241   9.220055   7.277346   5.269757   2.538181
    22  H    9.278487   9.733787   8.262083   6.507487   4.457999
    23  H    7.037566   7.927579   6.973063   5.684202   4.829763
    24  H    5.277748   6.299506   5.689665   4.849332   5.006116
    25  H    5.277748   6.299506   5.689665   4.849332   5.006116
                   21         22         23         24         25
    21  H    0.000000
    22  H    2.555221   0.000000
    23  H    4.228326   2.581653   0.000000
    24  H    5.318297   4.339269   2.025202   0.000000
    25  H    5.318297   4.339269   2.025202   1.719170   0.000000
 Stoichiometry    C14H11(1+)
 Framework group  CS[SG(C14H9),X(H2)]
 Deg. of freedom    46
 Full point group                 CS      NOp   2
 Largest Abelian subgroup         CS      NOp   2
 Largest concise Abelian subgroup CS      NOp   2
                         Standard orientation:                         
 ---------------------------------------------------------------------
 Center     Atomic      Atomic             Coordinates (Angstroms)
 Number     Number       Type             X           Y           Z
 ---------------------------------------------------------------------
      1          6           0       -2.192420   -1.648682    0.000000
      2          6           0       -1.843957   -3.037026    0.000000
      3          6           0       -0.483413   -3.635398    0.000000
      4          6           0        0.350888   -3.016635    0.000000
      5          6           0        2.106086    1.587953    0.000000
      6          6           0        1.907928    3.346824    0.000000
      7          6           0        0.745848    3.902094    0.000000
      8          6           0       -0.222375    2.931709    0.000000
      9          6           0       -1.304016    0.650808    0.000000
     10          6           0        1.180334   -0.889127    0.000000
     11          6           0       -1.356019   -0.955255    0.000000
     12          6           0        0.112051   -1.486415    0.000000
     13          6           0        0.000000    1.217064    0.000000
     14          6           0        1.168103    0.755565    0.000000
     15          1           0       -3.264383   -1.408068    0.000000
     16          1           0       -2.675023   -3.737656    0.000000
     17          1           0       -0.466534   -4.720038    0.000000
     18          1           0        1.422279   -3.256810    0.000000
     19          1           0        2.161133   -1.346800    0.000000
     20          1           0        3.180806    1.355911    0.000000
     21          1           0        2.870276    3.875025    0.000000
     22          1           0        0.556753    4.959812    0.000000
     23          1           0       -1.297811    3.163838    0.000000
     24          1           0       -1.750862    1.386958    0.859585
     25          1           0       -1.750862    1.386958   -0.859585
 ---------------------------------------------------------------------
 Rotational constants (GHZ):           2.1329040           0.4412445           0.3663987
 Standard basis: 6-311++G(d,p) (5D, 7F)
 There are   299 symmetry adapted cartesian basis functions of A'  symmetry.
 There are   100 symmetry adapted cartesian basis functions of A"  symmetry.
 There are   285 symmetry adapted basis functions of A'  symmetry.
 There are   100 symmetry adapted basis functions of A"  symmetry.
   385 basis functions,   603 primitive gaussians,   399 cartesian basis functions
    47 alpha electrons       47 beta electrons
       nuclear repulsion energy       784.9457526592 Hartrees.
 NAtoms=   25 NActive=   25 NUniq=   24 SFac= 1.09D+00 NAtFMM=   60 NAOKFM=F Big=F
 Integral buffers will be    131072 words long.
 Regular integral format.
 Two-electron integral symmetry is turned on.
 Nuclear repulsion after empirical dispersion term =      784.9447992153 Hartrees.
 One-electron integrals computed using PRISM.
 NBasis=   385 RedAO= T EigKep=  1.14D-06  NBF=   285   100
 NBsUse=   379 1.00D-06 EigRej=  6.81D-07 NBFU=   279   100
 ExpMin= 3.60D-02 ExpMax= 4.56D+03 ExpMxC= 6.82D+02 IAcc=3 IRadAn=         5 AccDes= 0.00D+00
 Harris functional with IExCor= 1009 and IRadAn=       5 diagonalized for initial guess.
 HarFok:  IExCor= 1009 AccDes= 0.00D+00 IRadAn=         5 IDoV= 1 UseB2=F ITyADJ=14
 ICtDFT=  3500011 ScaDFX=  1.000000  1.000000  1.000000  1.000000
 FoFCou: FMM=F IPFlag=           0 FMFlag=      100000 FMFlg1=           0
         NFxFlg=           0 DoJE=T BraDBF=F KetDBF=T FulRan=T
         wScrn=  0.000000 ICntrl=       500 IOpCl=  0 I1Cent=   200000004 NGrid=           0
         NMat0=    1 NMatS0=      1 NMatT0=    0 NMatD0=    1 NMtDS0=    0 NMtDT0=    0
 Petite list used in FoFCou.
 Initial guess orbital symmetries:
       Occupied  (A') (A') (A') (A') (A') (A') (A') (A') (A') (A')
                 (A') (A') (A') (A') (A') (A') (A') (A') (A') (A')
                 (A') (A') (A') (A') (A') (A') (A') (A') (A') (A')
                 (A') (A') (A") (A') (A') (A") (A') (A") (A') (A')
                 (A') (A") (A") (A') (A") (A') (A")
       Virtual   (A") (A") (A") (A") (A') (A") (A') (A') (A') (A')
                 (A') (A') (A") (A') (A') (A") (A') (A') (A") (A')
                 (A') (A') (A") (A') (A') (A") (A') (A") (A') (A")
                 (A') (A') (A') (A') (A") (A') (A') (A') (A') (A")
                 (A") (A') (A") (A') (A') (A') (A') (A') (A') (A')
                 (A") (A') (A") (A") (A') (A') (A") (A') (A") (A')
                 (A') (A') (A') (A') (A") (A') (A') (A') (A") (A')
                 (A') (A') (A') (A') (A') (A') (A') (A') (A') (A')
                 (A') (A') (A') (A') (A') (A') (A') (A') (A') (A')
                 (A') (A') (A") (A') (A') (A") (A') (A') (A") (A')
                 (A') (A") (A') (A") (A') (A") (A') (A') (A") (A')
                 (A") (A") (A") (A') (A') (A") (A') (A') (A') (A")
                 (A") (A') (A') (A') (A") (A') (A') (A') (A") (A')
                 (A') (A') (A') (A') (A') (A') (A') (A') (A") (A')
                 (A') (A') (A') (A') (A") (A') (A') (A') (A') (A')
                 (A") (A') (A') (A") (A") (A') (A') (A') (A") (A")
                 (A") (A') (A") (A') (A") (A') (A") (A') (A') (A')
                 (A") (A') (A') (A') (A') (A') (A') (A') (A") (A")
                 (A') (A") (A') (A") (A') (A") (A') (A") (A') (A')
                 (A") (A') (A") (A') (A') (A') (A') (A") (A') (A")
                 (A") (A') (A") (A') (A") (A") (A') (A') (A') (A")
                 (A') (A') (A') (A") (A') (A') (A') (A") (A') (A")
                 (A') (A') (A") (A") (A') (A') (A') (A") (A') (A')
                 (A") (A') (A") (A') (A') (A') (A") (A") (A') (A")
                 (A') (A') (A') (A') (A") (A') (A') (A') (A') (A')
                 (A") (A') (A') (A") (A") (A') (A') (A") (A') (A')
                 (A") (A') (A') (A") (A') (A') (A') (A') (A") (A")
                 (A') (A") (A') (A') (A') (A") (A') (A") (A') (A')
                 (A') (A") (A") (A') (A") (A') (A") (A') (A') (A')
                 (A') (A') (A') (A') (A') (A') (A') (A') (A") (A')
                 (A') (A') (A') (A') (A') (A') (A') (A') (A') (A')
                 (A') (A') (A') (A') (A') (A') (A') (A') (A') (A')
                 (A') (A') (A') (A') (A') (A') (A') (A') (A') (A')
                 (A') (A')
 The electronic state of the initial guess is 1-A'.
 Requested convergence on RMS density matrix=1.00D-08 within 128 cycles.
 Requested convergence on MAX density matrix=1.00D-06.
 Requested convergence on             energy=1.00D-06.
 No special actions if energy rises.
 SCF Done:  E(RM062X) =  -539.108189983     A.U. after   17 cycles
            NFock= 17  Conv=0.88D-08     -V/T= 1.9986
 DoSCS=F DFT=T ScalE2(SS,OS)=  1.000000  1.000000
 ExpMin= 3.60D-02 ExpMax= 4.56D+03 ExpMxC= 6.82D+02 IAcc=3 IRadAn=         5 AccDes= 0.00D+00
 HarFok:  IExCor=  205 AccDes= 0.00D+00 IRadAn=         5 IDoV=-2 UseB2=F ITyADJ=14
 ICtDFT= 12500011 ScaDFX=  1.000000  1.000000  1.000000  1.000000
 Range of M.O.s used for correlation:    15   379
 NBasis=   385 NAE=    47 NBE=    47 NFC=    14 NFV=     0
 NROrb=    365 NOA=    33 NOB=    33 NVA=   332 NVB=   332

 **** Warning!!: The largest alpha MO coefficient is  0.22521396D+03


 **** Warning!!: The smallest alpha delta epsilon is  0.88372065D-01

 Orbital symmetries:
       Occupied  (A') (A') (A') (A') (A') (A') (A') (A') (A') (A')
                 (A') (A') (A') (A') (A') (A') (A') (A') (A') (A')
                 (A') (A') (A') (A') (A') (A') (A') (A') (A') (A')
                 (A') (A") (A') (A') (A") (A') (A') (A') (A") (A')
                 (A") (A') (A") (A') (A") (A') (A")
       Virtual   (A") (A") (A") (A') (A') (A') (A") (A') (A') (A")
                 (A') (A") (A') (A') (A") (A') (A") (A') (A') (A')
                 (A") (A') (A") (A') (A') (A') (A') (A') (A') (A")
                 (A") (A') (A") (A') (A') (A') (A") (A') (A") (A')
                 (A') (A') (A") (A') (A') (A') (A") (A') (A") (A')
                 (A") (A') (A') (A") (A') (A') (A') (A") (A') (A')
                 (A') (A') (A') (A") (A') (A') (A") (A') (A') (A')
                 (A') (A') (A') (A') (A') (A') (A') (A') (A') (A')
                 (A') (A') (A') (A') (A') (A') (A') (A') (A') (A')
                 (A') (A") (A') (A") (A') (A') (A') (A') (A") (A')
                 (A") (A') (A") (A') (A') (A") (A") (A') (A") (A')
                 (A') (A") (A') (A") (A') (A') (A") (A") (A') (A")
                 (A') (A') (A') (A') (A") (A") (A') (A') (A') (A')
                 (A') (A') (A') (A') (A') (A') (A') (A') (A') (A')
                 (A') (A') (A") (A') (A') (A') (A') (A") (A') (A')
                 (A') (A') (A") (A') (A') (A') (A") (A") (A") (A')
                 (A") (A') (A") (A') (A") (A") (A') (A') (A") (A')
                 (A") (A') (A') (A') (A') (A') (A') (A') (A") (A")
                 (A') (A") (A") (A') (A') (A") (A') (A") (A') (A')
                 (A") (A") (A') (A') (A") (A') (A') (A') (A") (A')
                 (A") (A') (A") (A') (A") (A") (A') (A') (A') (A")
                 (A') (A') (A') (A") (A') (A') (A') (A") (A') (A')
                 (A") (A') (A") (A") (A') (A') (A') (A") (A') (A')
                 (A") (A') (A') (A") (A') (A') (A") (A") (A') (A')
                 (A") (A') (A') (A') (A") (A') (A') (A') (A') (A")
                 (A') (A') (A') (A') (A') (A') (A") (A') (A") (A')
                 (A') (A') (A') (A") (A") (A') (A') (A') (A') (A")
                 (A') (A") (A') (A") (A") (A") (A') (A') (A') (A")
                 (A') (A") (A') (A") (A') (A") (A") (A') (A') (A')
                 (A') (A') (A') (A') (A') (A') (A') (A") (A') (A')
                 (A') (A') (A') (A') (A') (A') (A') (A') (A') (A')
                 (A') (A') (A') (A') (A') (A') (A') (A') (A') (A')
                 (A') (A') (A') (A') (A') (A') (A') (A') (A') (A')
                 (A') (A')
     4 initial guesses have been made.
 Convergence on wavefunction:    0.001000000000000
 Iteration     1 Dimension     4 NMult     0 NNew      4
 CISAX will form     4 AO SS matrices at one time.
 Iteration     2 Dimension     6 NMult     4 NNew      2
 Iteration     3 Dimension     8 NMult     6 NNew      2
 Iteration     4 Dimension    10 NMult     8 NNew      2
 Iteration     5 Dimension    12 NMult    10 NNew      2
 Iteration     6 Dimension    14 NMult    12 NNew      2
 ***********************************************************************
 Excited states from <AA,BB:AA,BB> singles matrix:
 ***********************************************************************
 
 Ground to excited state transition densities written to RWF  633
 Ground to excited state transition electric dipole moments (Au):
       state          X           Y           Z        Dip. S.      Osc.
         1         0.5669      1.8073      0.0000      3.5877      0.0979
 Ground to excited state transition velocity dipole moments (Au):
       state          X           Y           Z        Dip. S.      Osc.
         1        -0.0173     -0.0715     -0.0000      0.0054      0.0881
 Ground to excited state transition magnetic dipole moments (Au):
       state          X           Y           Z
         1        -0.0000     -0.0000      0.4765
 Ground to excited state transition velocity quadrupole moments (Au):
       state          XX          YY          ZZ          XY          XZ          YZ
         1         0.0151      0.0402     -0.0051      0.0619      0.0000     -0.0000
 <0|del|b> * <b|rxdel|0> + <0|del|b> * <b|delr+rdel|0>
 Rotatory Strengths (R) in cgs (10**-40 erg-esu-cm/Gauss)
       state          XX          YY          ZZ    R(velocity)    E-M Angle
         1        -0.0000     -0.0000     -0.0000     -0.0000       90.00
 1/2[<0|r|b>*<b|rxdel|0> + (<0|rxdel|b>*<b|r|0>)*]
 Rotatory Strengths (R) in cgs (10**-40 erg-esu-cm/Gauss)
       state          XX          YY          ZZ     R(length)
         1         0.0000      0.0000     -0.0000      0.0000
  1/2[<0|del|b>*<b|r|0> + (<0|r|b>*<b|del|0>)*] (Au)
       state          X           Y           Z        Dip. S.   Osc.(frdel)
         1        -0.0098     -0.1292     -0.0000      0.1390      0.0927

 Excitation energies and oscillator strengths:
 
 Excited State   1:      Singlet-A'     1.1133 eV 1113.70 nm  f=0.0979  <S**2>=0.000
      47 -> 48         0.71574
      47 <- 48        -0.15062
 This state for optimization and/or second-order correction.
 Total Energy, E(TD-HF/TD-DFT) =  -539.067278121    
 Copying the excited state density for this state as the 1-particle RhoCI density.
 SavETr:  write IOETrn=   770 NScale= 10 NData=  16 NLR=1 NState=    1 LETran=      28.

 **********************************************************************

            Population analysis using the SCF Density.

 **********************************************************************

 Orbital symmetries:
       Occupied  (A') (A') (A') (A') (A') (A') (A') (A') (A') (A')
                 (A') (A') (A') (A') (A') (A') (A') (A') (A') (A')
                 (A') (A') (A') (A') (A') (A') (A') (A') (A') (A')
                 (A') (A") (A') (A') (A") (A') (A') (A') (A") (A')
                 (A") (A') (A") (A') (A") (A') (A")
       Virtual   (A") (A") (A") (A') (A') (A') (A") (A') (A') (A")
                 (A') (A") (A') (A') (A") (A') (A") (A') (A') (A')
                 (A") (A') (A") (A') (A') (A') (A') (A') (A') (A")
                 (A") (A') (A") (A') (A') (A') (A") (A') (A") (A')
                 (A') (A') (A") (A') (A') (A') (A") (A') (A") (A')
                 (A") (A') (A') (A") (A') (A') (A') (A") (A') (A')
                 (A') (A') (A') (A") (A') (A') (A") (A') (A') (A')
                 (A') (A') (A') (A') (A') (A') (A') (A') (A') (A')
                 (A') (A') (A') (A') (A') (A') (A') (A') (A') (A')
                 (A') (A") (A') (A") (A') (A') (A') (A') (A") (A')
                 (A") (A') (A") (A') (A') (A") (A") (A') (A") (A')
                 (A') (A") (A') (A") (A') (A') (A") (A") (A') (A")
                 (A') (A') (A') (A') (A") (A") (A') (A') (A') (A')
                 (A') (A') (A') (A') (A') (A') (A') (A') (A') (A')
                 (A') (A') (A") (A') (A') (A') (A') (A") (A') (A')
                 (A') (A') (A") (A') (A') (A') (A") (A") (A") (A')
                 (A") (A') (A") (A') (A") (A") (A') (A') (A") (A')
                 (A") (A') (A') (A') (A') (A') (A') (A') (A") (A")
                 (A') (A") (A") (A') (A') (A") (A') (A") (A') (A')
                 (A") (A") (A') (A') (A") (A') (A') (A') (A") (A')
                 (A") (A') (A") (A') (A") (A") (A') (A') (A') (A")
                 (A') (A') (A') (A") (A') (A') (A') (A") (A') (A')
                 (A") (A') (A") (A") (A') (A') (A') (A") (A') (A')
                 (A") (A') (A') (A") (A') (A') (A") (A") (A') (A')
                 (A") (A') (A') (A') (A") (A') (A') (A') (A') (A")
                 (A') (A') (A') (A') (A') (A') (A") (A') (A") (A')
                 (A') (A') (A') (A") (A") (A') (A') (A') (A') (A")
                 (A') (A") (A') (A") (A") (A") (A') (A') (A') (A")
                 (A') (A") (A') (A") (A') (A") (A") (A') (A') (A')
                 (A') (A') (A') (A') (A') (A') (A') (A") (A') (A')
                 (A') (A') (A') (A') (A') (A') (A') (A') (A') (A')
                 (A') (A') (A') (A') (A') (A') (A') (A') (A') (A')
                 (A') (A') (A') (A') (A') (A') (A') (A') (A') (A')
                 (A') (A')
 The electronic state is 1-A'.
 Alpha  occ. eigenvalues --  -10.78590 -10.74715 -10.73013 -10.72430 -10.71733
 Alpha  occ. eigenvalues --  -10.71215 -10.70518 -10.70070 -10.69834 -10.69168
 Alpha  occ. eigenvalues --  -10.68583 -10.68490 -10.68046 -10.66678  -1.20637
 Alpha  occ. eigenvalues --   -1.13450  -1.12754  -1.06834  -1.03315  -1.01317
 Alpha  occ. eigenvalues --   -0.95694  -0.88035  -0.85919  -0.85003  -0.83039
 Alpha  occ. eigenvalues --   -0.77219  -0.76501  -0.74408  -0.73454  -0.70058
 Alpha  occ. eigenvalues --   -0.69203  -0.68167  -0.66830  -0.64814  -0.63197
 Alpha  occ. eigenvalues --   -0.63114  -0.62777  -0.59038  -0.59009  -0.56685
 Alpha  occ. eigenvalues --   -0.54873  -0.54181  -0.52629  -0.51905  -0.48389
 Alpha  occ. eigenvalues --   -0.47484  -0.35985
 Alpha virt. eigenvalues --   -0.27148  -0.16528  -0.12066  -0.11490  -0.10389
 Alpha virt. eigenvalues --   -0.09924  -0.09015  -0.07892  -0.07695  -0.07387
 Alpha virt. eigenvalues --   -0.07356  -0.06059  -0.05925  -0.05471  -0.05136
 Alpha virt. eigenvalues --   -0.04692  -0.03989  -0.03752  -0.03231  -0.02124
 Alpha virt. eigenvalues --   -0.02101  -0.02013  -0.01025  -0.00976   0.00211
 Alpha virt. eigenvalues --    0.00315   0.00716   0.01148   0.01441   0.01552
 Alpha virt. eigenvalues --    0.02063   0.02518   0.02757   0.02998   0.03021
 Alpha virt. eigenvalues --    0.03597   0.03852   0.03980   0.05313   0.05342
 Alpha virt. eigenvalues --    0.05494   0.05785   0.05817   0.06244   0.06766
 Alpha virt. eigenvalues --    0.07335   0.07440   0.07942   0.08084   0.08211
 Alpha virt. eigenvalues --    0.08562   0.08691   0.09387   0.09993   0.10013
 Alpha virt. eigenvalues --    0.10071   0.10510   0.11274   0.11362   0.12232
 Alpha virt. eigenvalues --    0.12511   0.12764   0.13200   0.13723   0.14009
 Alpha virt. eigenvalues --    0.14287   0.15709   0.16712   0.17031   0.17523
 Alpha virt. eigenvalues --    0.18328   0.18844   0.20040   0.20605   0.20981
 Alpha virt. eigenvalues --    0.21559   0.22201   0.22889   0.23909   0.24302
 Alpha virt. eigenvalues --    0.24557   0.25466   0.25939   0.27008   0.28393
 Alpha virt. eigenvalues --    0.29153   0.30603   0.31705   0.32124   0.34943
 Alpha virt. eigenvalues --    0.37012   0.37188   0.37969   0.38628   0.39392
 Alpha virt. eigenvalues --    0.40422   0.41774   0.42407   0.43074   0.43998
 Alpha virt. eigenvalues --    0.44261   0.44815   0.46124   0.46344   0.47577
 Alpha virt. eigenvalues --    0.48103   0.49008   0.49699   0.51245   0.51373
 Alpha virt. eigenvalues --    0.51849   0.52041   0.53433   0.53602   0.54612
 Alpha virt. eigenvalues --    0.54788   0.55905   0.58230   0.58381   0.59292
 Alpha virt. eigenvalues --    0.59759   0.62008   0.62660   0.63361   0.63489
 Alpha virt. eigenvalues --    0.64427   0.64764   0.66371   0.67179   0.67462
 Alpha virt. eigenvalues --    0.70090   0.72761   0.73716   0.73942   0.74350
 Alpha virt. eigenvalues --    0.75033   0.75853   0.76743   0.77279   0.78061
 Alpha virt. eigenvalues --    0.79212   0.79511   0.81349   0.81500   0.82149
 Alpha virt. eigenvalues --    0.82662   0.83217   0.84666   0.84915   0.87043
 Alpha virt. eigenvalues --    0.87139   0.88734   0.89541   0.90043   0.92556
 Alpha virt. eigenvalues --    0.93881   0.93937   0.95493   0.99427   1.01838
 Alpha virt. eigenvalues --    1.01974   1.02183   1.03696   1.04366   1.06830
 Alpha virt. eigenvalues --    1.07875   1.07999   1.09714   1.09822   1.11672
 Alpha virt. eigenvalues --    1.14764   1.16970   1.18917   1.19726   1.26167
 Alpha virt. eigenvalues --    1.29271   1.31879   1.32450   1.33886   1.36725
 Alpha virt. eigenvalues --    1.37317   1.37817   1.38257   1.38839   1.40994
 Alpha virt. eigenvalues --    1.43967   1.45684   1.47496   1.48334   1.49695
 Alpha virt. eigenvalues --    1.50272   1.52283   1.52860   1.56259   1.56706
 Alpha virt. eigenvalues --    1.56796   1.56911   1.58070   1.60107   1.60859
 Alpha virt. eigenvalues --    1.62916   1.64257   1.64682   1.66259   1.68908
 Alpha virt. eigenvalues --    1.70242   1.70513   1.72265   1.73030   1.73922
 Alpha virt. eigenvalues --    1.76247   1.77513   1.78316   1.79348   1.80298
 Alpha virt. eigenvalues --    1.82343   1.83820   1.84628   1.85399   1.86782
 Alpha virt. eigenvalues --    1.88070   1.88368   1.90028   1.92449   1.93066
 Alpha virt. eigenvalues --    1.94936   1.97047   1.99128   1.99966   2.02156
 Alpha virt. eigenvalues --    2.02404   2.05393   2.11230   2.11749   2.15614
 Alpha virt. eigenvalues --    2.17054   2.18536   2.18916   2.20809   2.22478
 Alpha virt. eigenvalues --    2.22889   2.28169   2.30192   2.32393   2.32502
 Alpha virt. eigenvalues --    2.35332   2.36237   2.39202   2.41765   2.43152
 Alpha virt. eigenvalues --    2.43284   2.43937   2.49922   2.51334   2.52654
 Alpha virt. eigenvalues --    2.57038   2.57250   2.57847   2.59681   2.60678
 Alpha virt. eigenvalues --    2.61647   2.62605   2.64368   2.64518   2.65187
 Alpha virt. eigenvalues --    2.65251   2.66851   2.67938   2.69833   2.70838
 Alpha virt. eigenvalues --    2.71701   2.73145   2.73146   2.74528   2.76944
 Alpha virt. eigenvalues --    2.78385   2.79004   2.80672   2.84459   2.84758
 Alpha virt. eigenvalues --    2.86980   2.90189   2.92760   2.92821   2.98509
 Alpha virt. eigenvalues --    2.98834   3.01285   3.01372   3.05078   3.08158
 Alpha virt. eigenvalues --    3.09423   3.13495   3.16259   3.24721   3.28130
 Alpha virt. eigenvalues --    3.33127   3.34176   3.35484   3.38429   3.52051
 Alpha virt. eigenvalues --    3.53631   3.62747   3.64314   3.70000   3.71824
 Alpha virt. eigenvalues --    3.75159   3.77157   3.81581   3.84271   3.91176
 Alpha virt. eigenvalues --    3.95697   4.00425   4.04403   4.18636   4.23204
 Alpha virt. eigenvalues --    4.26918   4.37809   4.48832  23.40770  23.47775
 Alpha virt. eigenvalues --   23.51783  23.55553  23.61560  23.79361  23.82470
 Alpha virt. eigenvalues --   23.95558  24.26614  24.40724  24.63443  24.65714
 Alpha virt. eigenvalues --   25.33820  25.56154
          Condensed to atoms (all electrons):
               1          2          3          4          5          6
     1  C    7.167754   1.356325  -0.450956   0.792353  -0.191158  -0.076291
     2  C    1.356325   8.160066   0.614188   0.061188  -0.190295  -0.019931
     3  C   -0.450956   0.614188   7.080863   0.854424  -0.046339   0.008295
     4  C    0.792353   0.061188   0.854424  11.159942  -0.781056  -0.168921
     5  C   -0.191158  -0.190295  -0.046339  -0.781056   8.646216   1.602666
     6  C   -0.076291  -0.019931   0.008295  -0.168921   1.602666   7.102561
     7  C   -0.012932  -0.013078  -0.007279   0.241436  -2.226757  -1.871767
     8  C    0.147954   0.037735  -0.157160  -0.460332   3.125571   1.728407
     9  C   -0.097813  -0.678683   0.069858   0.209260  -0.065689   0.372669
    10  C   -0.512915  -0.805039   0.160170  -2.728474  -0.845479  -0.596311
    11  C    0.378812  -0.032807  -0.498413  -0.588200  -0.885817   0.151699
    12  C   -1.503381  -1.163379  -1.929867  -1.267188  -0.317601  -0.648965
    13  C   -0.068864  -0.434436  -0.463552  -0.178787  -0.873029  -0.345379
    14  C   -1.243786  -0.803048   0.719828  -1.372740  -1.004645  -1.289843
    15  H    0.370672  -0.069165   0.001852  -0.010045   0.005340   0.001883
    16  H   -0.016436   0.388811  -0.031706   0.038205  -0.003827  -0.000498
    17  H    0.002324  -0.039588   0.392744  -0.052343   0.001818   0.000376
    18  H    0.025167   0.033534  -0.032244   0.494416  -0.008319  -0.003842
    19  H   -0.019961  -0.013613   0.048611  -0.068650  -0.017190   0.028622
    20  H    0.000614   0.000632  -0.003159   0.006474   0.410969  -0.031768
    21  H   -0.001509  -0.000455   0.000277  -0.001165  -0.031687   0.352693
    22  H    0.000241  -0.000085  -0.000082   0.001486  -0.012176  -0.029672
    23  H    0.001674   0.001935   0.000769  -0.015489   0.045840   0.065999
    24  H    0.038808   0.012796  -0.001043   0.008957  -0.026218  -0.006168
    25  H    0.038808   0.012796  -0.001043   0.008957  -0.026218  -0.006168
               7          8          9         10         11         12
     1  C   -0.012932   0.147954  -0.097813  -0.512915   0.378812  -1.503381
     2  C   -0.013078   0.037735  -0.678683  -0.805039  -0.032807  -1.163379
     3  C   -0.007279  -0.157160   0.069858   0.160170  -0.498413  -1.929867
     4  C    0.241436  -0.460332   0.209260  -2.728474  -0.588200  -1.267188
     5  C   -2.226757   3.125571  -0.065689  -0.845479  -0.885817  -0.317601
     6  C   -1.871767   1.728407   0.372669  -0.596311   0.151699  -0.648965
     7  C   12.852968  -6.722666  -1.964221   0.495839  -0.779868   0.766445
     8  C   -6.722666  17.272290   0.371208  -0.509520   0.838550  -1.508749
     9  C   -1.964221   0.371208   9.318736  -0.059253   1.119361  -2.020989
    10  C    0.495839  -0.509520  -0.059253   8.662789   0.361003   1.386063
    11  C   -0.779868   0.838550   1.119361   0.361003  13.013542  -2.844950
    12  C    0.766445  -1.508749  -2.020989   1.386063  -2.844950  18.276361
    13  C    2.210076  -4.418081  -0.897150  -0.428421  -1.758242  -0.182978
    14  C    3.363350  -4.450431  -0.076911   1.132127  -1.896198  -1.284195
    15  H   -0.003925   0.002003   0.005634   0.010753  -0.036655   0.092976
    16  H    0.000843   0.003210  -0.000734  -0.033283   0.045499  -0.035562
    17  H   -0.000117  -0.002606   0.001873   0.022165  -0.018754   0.026637
    18  H    0.003797   0.005939  -0.016520  -0.008648  -0.001575  -0.055910
    19  H    0.001333  -0.054041   0.065293   0.437293   0.031201  -0.292261
    20  H   -0.057950   0.115520  -0.005236   0.056522  -0.007682   0.014272
    21  H    0.021226  -0.048037   0.000097   0.000614  -0.000492  -0.006522
    22  H    0.386902  -0.040518  -0.016098   0.001552  -0.009579   0.008964
    23  H   -0.255728   0.474623   0.176831  -0.013239   0.067526  -0.040180
    24  H    0.022436  -0.048826   0.377868   0.007523   0.029903  -0.022018
    25  H    0.022436  -0.048826   0.377868   0.007523   0.029903  -0.022018
              13         14         15         16         17         18
     1  C   -0.068864  -1.243786   0.370672  -0.016436   0.002324   0.025167
     2  C   -0.434436  -0.803048  -0.069165   0.388811  -0.039588   0.033534
     3  C   -0.463552   0.719828   0.001852  -0.031706   0.392744  -0.032244
     4  C   -0.178787  -1.372740  -0.010045   0.038205  -0.052343   0.494416
     5  C   -0.873029  -1.004645   0.005340  -0.003827   0.001818  -0.008319
     6  C   -0.345379  -1.289843   0.001883  -0.000498   0.000376  -0.003842
     7  C    2.210076   3.363350  -0.003925   0.000843  -0.000117   0.003797
     8  C   -4.418081  -4.450431   0.002003   0.003210  -0.002606   0.005939
     9  C   -0.897150  -0.076911   0.005634  -0.000734   0.001873  -0.016520
    10  C   -0.428421   1.132127   0.010753  -0.033283   0.022165  -0.008648
    11  C   -1.758242  -1.896198  -0.036655   0.045499  -0.018754  -0.001575
    12  C   -0.182978  -1.284195   0.092976  -0.035562   0.026637  -0.055910
    13  C   12.233011   1.364936  -0.036929   0.008000  -0.008792   0.010382
    14  C    1.364936  12.384334   0.010339  -0.026986   0.015788  -0.099559
    15  H   -0.036929   0.010339   0.413795  -0.003035   0.001550  -0.000325
    16  H    0.008000  -0.026986  -0.003035   0.389453  -0.002877   0.002772
    17  H   -0.008792   0.015788   0.001550  -0.002877   0.409899  -0.012492
    18  H    0.010382  -0.099559  -0.000325   0.002772  -0.012492   0.436639
    19  H   -0.002966   0.209258   0.000940  -0.000587   0.002719   0.000155
    20  H    0.028574  -0.188310  -0.000190   0.000015  -0.000207   0.001104
    21  H    0.021399   0.035728   0.000040  -0.000007   0.000007  -0.000110
    22  H    0.033775   0.020149  -0.000099   0.000008  -0.000002   0.000017
    23  H   -0.170894  -0.071268   0.000961  -0.000248  -0.000017  -0.000172
    24  H   -0.056722  -0.009652  -0.000370   0.000458  -0.000072   0.000072
    25  H   -0.056722  -0.009652  -0.000370   0.000458  -0.000072   0.000072
              19         20         21         22         23         24
     1  C   -0.019961   0.000614  -0.001509   0.000241   0.001674   0.038808
     2  C   -0.013613   0.000632  -0.000455  -0.000085   0.001935   0.012796
     3  C    0.048611  -0.003159   0.000277  -0.000082   0.000769  -0.001043
     4  C   -0.068650   0.006474  -0.001165   0.001486  -0.015489   0.008957
     5  C   -0.017190   0.410969  -0.031687  -0.012176   0.045840  -0.026218
     6  C    0.028622  -0.031768   0.352693  -0.029672   0.065999  -0.006168
     7  C    0.001333  -0.057950   0.021226   0.386902  -0.255728   0.022436
     8  C   -0.054041   0.115520  -0.048037  -0.040518   0.474623  -0.048826
     9  C    0.065293  -0.005236   0.000097  -0.016098   0.176831   0.377868
    10  C    0.437293   0.056522   0.000614   0.001552  -0.013239   0.007523
    11  C    0.031201  -0.007682  -0.000492  -0.009579   0.067526   0.029903
    12  C   -0.292261   0.014272  -0.006522   0.008964  -0.040180  -0.022018
    13  C   -0.002966   0.028574   0.021399   0.033775  -0.170894  -0.056722
    14  C    0.209258  -0.188310   0.035728   0.020149  -0.071268  -0.009652
    15  H    0.000940  -0.000190   0.000040  -0.000099   0.000961  -0.000370
    16  H   -0.000587   0.000015  -0.000007   0.000008  -0.000248   0.000458
    17  H    0.002719  -0.000207   0.000007  -0.000002  -0.000017  -0.000072
    18  H    0.000155   0.001104  -0.000110   0.000017  -0.000172   0.000072
    19  H    0.492023  -0.010456   0.000564  -0.000208   0.000142   0.000690
    20  H   -0.010456   0.450096  -0.003092   0.001234  -0.001183   0.000282
    21  H    0.000564  -0.003092   0.424387  -0.002064   0.000126   0.000040
    22  H   -0.000208   0.001234  -0.002064   0.422322  -0.006945   0.000472
    23  H    0.000142  -0.001183   0.000126  -0.006945   0.514128  -0.001998
    24  H    0.000690   0.000282   0.000040   0.000472  -0.001998   0.466778
    25  H    0.000690   0.000282   0.000040   0.000472  -0.001998  -0.068165
              25
     1  C    0.038808
     2  C    0.012796
     3  C   -0.001043
     4  C    0.008957
     5  C   -0.026218
     6  C   -0.006168
     7  C    0.022436
     8  C   -0.048826
     9  C    0.377868
    10  C    0.007523
    11  C    0.029903
    12  C   -0.022018
    13  C   -0.056722
    14  C   -0.009652
    15  H   -0.000370
    16  H    0.000458
    17  H   -0.000072
    18  H    0.000072
    19  H    0.000690
    20  H    0.000282
    21  H    0.000040
    22  H    0.000472
    23  H   -0.001998
    24  H   -0.068165
    25  H    0.466778
 Mulliken charges:
               1
     1  C   -0.125503
     2  C   -0.416405
     3  C   -0.329035
     4  C   -0.183707
     5  C   -0.284921
     6  C   -0.320347
     7  C   -0.472798
     8  C    0.346781
     9  C   -0.567260
    10  C   -0.201351
    11  C   -0.707767
    12  C    0.574992
    13  C    0.471790
    14  C    0.571390
    15  H    0.242368
    16  H    0.278057
    17  H    0.260038
    18  H    0.225650
    19  H    0.160400
    20  H    0.222644
    21  H    0.237903
    22  H    0.239935
    23  H    0.228804
    24  H    0.274171
    25  H    0.274171
 Sum of Mulliken charges =   1.00000
 Mulliken charges with hydrogens summed into heavy atoms:
               1
     1  C    0.116865
     2  C   -0.138348
     3  C   -0.068997
     4  C    0.041943
     5  C   -0.062277
     6  C   -0.082444
     7  C   -0.232863
     8  C    0.575585
     9  C   -0.018917
    10  C   -0.040951
    11  C   -0.707767
    12  C    0.574992
    13  C    0.471790
    14  C    0.571390
 Electronic spatial extent (au):  <R**2>=           2869.7900
 Charge=              1.0000 electrons
 Dipole moment (field-independent basis, Debye):
    X=             -2.8381    Y=             -4.1337    Z=             -0.0000  Tot=              5.0142
 Quadrupole moment (field-independent basis, Debye-Ang):
   XX=            -54.3167   YY=            -28.1260   ZZ=            -83.3098
   XY=              9.4971   XZ=             -0.0000   YZ=             -0.0000
 Traceless Quadrupole moment (field-independent basis, Debye-Ang):
   XX=              0.9341   YY=             27.1248   ZZ=            -28.0589
   XY=              9.4971   XZ=             -0.0000   YZ=             -0.0000
 Octapole moment (field-independent basis, Debye-Ang**2):
  XXX=            -15.0561  YYY=            -31.0038  ZZZ=             -0.0000  XYY=            -14.2074
  XXY=            -20.4030  XXZ=              0.0000  XZZ=             -6.2623  YZZ=             -7.8975
  YYZ=              0.0000  XYZ=             -0.0000
 Hexadecapole moment (field-independent basis, Debye-Ang**3):
 XXXX=           -808.4768 YYYY=          -1947.2409 ZZZZ=            -97.9709 XXXY=           -261.8864
 XXXZ=             -0.0000 YYYX=           -182.5420 YYYZ=              0.0000 ZZZX=              0.0000
 ZZZY=              0.0000 XXYY=           -468.5149 XXZZ=           -196.5738 YYZZ=           -532.7915
 XXYZ=             -0.0000 YYXZ=             -0.0000 ZZXY=           -138.4632
 N-N= 7.849447992153D+02 E-N=-2.807432407000D+03  KE= 5.398792656997D+02
 Symmetry A'   KE= 5.246782669233D+02
 Symmetry A"   KE= 1.520099877643D+01
 Unable to Open any file for archive entry.
 1\1\GINC-GADI-CPU-CLX-0240\SP\RM062X TD-FC\6-311++G(d,p)\C14H11(1+)\TS
 1578\02-Aug-2022\0\\#n M062X/6-311++G(d,p) TD(NStates=1) EmpiricalDisp
 ersion=GD3 SP\\SP_12\\1,1\C,0,0.,2.352655,1.404431\C,0,0.,3.505508,0.5
 55989\C,0,0.,3.543861,-0.92983\C,0,0.,2.655156,-1.467538\C,0,0.,-2.271
 156,-1.347538\C,0,0.,-3.823861,-0.49783\C,0,0.,-3.897508,0.787989\C,0,
 0.,-2.632655,1.316431\C,0,0.,-0.112,1.453369\C,0,0.,0.372,-1.429189\C,
 0,0.,1.394055,0.893065\C,0,0.,1.329471,-0.666804\C,0,0.,-1.130055,0.46
 1065\C,0,0.,-1.145471,-0.794804\H,0,0.,2.536071,2.487647\H,0,0.,4.4687
 53,1.059689\H,0,0.,4.541262,-1.356349\H,0,0.,2.47155,-2.550059\H,0,0.,
 0.424,-2.510266\H,0,0.,-2.46355,-2.430059\H,0,0.,-4.677262,-1.188349\H
 ,0,0.,-4.804753,1.363689\H,0,0.,-2.440071,2.399647\H,0,-0.859585,-0.62
 4,2.145787\H,0,0.859585,-0.624,2.145787\\Version=ES64L-G16RevC.01\Stat
 e=1-A'\HF=-539.10819\RMSD=8.800e-09\PG=CS [SG(C14H9),X(H2)]\\@
 The archive entry for this job was punched.


 THERE IS NO SCIENCE WITHOUT FANCY, NOR ART WITHOUT FACTS.
     -- VLADIMIR NABAKOV
 Job cpu time:       0 days  0 hours 54 minutes 22.1 seconds.
 Elapsed time:       0 days  0 hours  1 minutes  8.1 seconds.
 File lengths (MBytes):  RWF=    460 Int=      0 D2E=      0 Chk=     15 Scr=      1
 Normal termination of Gaussian 16 at Tue Aug  2 13:29:07 2022.
