 Entering Gaussian System, Link 0=g16
 Initial command:
 /apps/gaussian/g16c01/g16/l1.exe "/jobfs/53803565.gadi-pbs/Gau-1070144.inp" -scrdir="/jobfs/53803565.gadi-pbs/"
 Entering Link 1 = /apps/gaussian/g16c01/g16/l1.exe PID=   1070145.
  
 Copyright (c) 1988-2019, Gaussian, Inc.  All Rights Reserved.
  
 This is part of the Gaussian(R) 16 program.  It is based on
 the Gaussian(R) 09 system (copyright 2009, Gaussian, Inc.),
 the Gaussian(R) 03 system (copyright 2003, Gaussian, Inc.),
 the Gaussian(R) 98 system (copyright 1998, Gaussian, Inc.),
 the Gaussian(R) 94 system (copyright 1995, Gaussian, Inc.),
 the Gaussian 92(TM) system (copyright 1992, Gaussian, Inc.),
 the Gaussian 90(TM) system (copyright 1990, Gaussian, Inc.),
 the Gaussian 88(TM) system (copyright 1988, Gaussian, Inc.),
 the Gaussian 86(TM) system (copyright 1986, Carnegie Mellon
 University), and the Gaussian 82(TM) system (copyright 1983,
 Carnegie Mellon University). Gaussian is a federally registered
 trademark of Gaussian, Inc.
  
 This software contains proprietary and confidential information,
 including trade secrets, belonging to Gaussian, Inc.
  
 This software is provided under written license and may be
 used, copied, transmitted, or stored only in accord with that
 written license.
  
 The following legend is applicable only to US Government
 contracts under FAR:
  
                    RESTRICTED RIGHTS LEGEND
  
 Use, reproduction and disclosure by the US Government is
 subject to restrictions as set forth in subparagraphs (a)
 and (c) of the Commercial Computer Software - Restricted
 Rights clause in FAR 52.227-19.
  
 Gaussian, Inc.
 340 Quinnipiac St., Bldg. 40, Wallingford CT 06492
  
  
 ---------------------------------------------------------------
 Warning -- This program may not be used in any manner that
 competes with the business of Gaussian, Inc. or will provide
 assistance to any competitor of Gaussian, Inc.  The licensee
 of this program is prohibited from giving any competitor of
 Gaussian, Inc. access to this program.  By using this program,
 the user acknowledges that Gaussian, Inc. is engaged in the
 business of creating and licensing software in the field of
 computational chemistry and represents and warrants to the
 licensee that it is not a competitor of Gaussian, Inc. and that
 it will not use this program in any manner prohibited above.
 ---------------------------------------------------------------
  

 Cite this work as:
 Gaussian 16, Revision C.01,
 M. J. Frisch, G. W. Trucks, H. B. Schlegel, G. E. Scuseria, 
 M. A. Robb, J. R. Cheeseman, G. Scalmani, V. Barone, 
 G. A. Petersson, H. Nakatsuji, X. Li, M. Caricato, A. V. Marenich, 
 J. Bloino, B. G. Janesko, R. Gomperts, B. Mennucci, H. P. Hratchian, 
 J. V. Ortiz, A. F. Izmaylov, J. L. Sonnenberg, D. Williams-Young, 
 F. Ding, F. Lipparini, F. Egidi, J. Goings, B. Peng, A. Petrone, 
 T. Henderson, D. Ranasinghe, V. G. Zakrzewski, J. Gao, N. Rega, 
 G. Zheng, W. Liang, M. Hada, M. Ehara, K. Toyota, R. Fukuda, 
 J. Hasegawa, M. Ishida, T. Nakajima, Y. Honda, O. Kitao, H. Nakai, 
 T. Vreven, K. Throssell, J. A. Montgomery, Jr., J. E. Peralta, 
 F. Ogliaro, M. J. Bearpark, J. J. Heyd, E. N. Brothers, K. N. Kudin, 
 V. N. Staroverov, T. A. Keith, R. Kobayashi, J. Normand, 
 K. Raghavachari, A. P. Rendell, J. C. Burant, S. S. Iyengar, 
 J. Tomasi, M. Cossi, J. M. Millam, M. Klene, C. Adamo, R. Cammi, 
 J. W. Ochterski, R. L. Martin, K. Morokuma, O. Farkas, 
 J. B. Foresman, and D. J. Fox, Gaussian, Inc., Wallingford CT, 2019.
 
 ******************************************
 Gaussian 16:  ES64L-G16RevC.01  3-Jul-2019
                 2-Aug-2022 
 ******************************************
 %NProcShared=48
 Will use up to   48 processors via shared memory.
 %mem = 190GB
 ---------------------------------------------------------------
 #n M062X/6-311++G(d,p) TD(NStates=1) EmpiricalDispersion=GD3 SP
 ---------------------------------------------------------------
 1/38=1,172=1/1;
 2/12=2,17=6,18=5,40=1/2;
 3/5=4,6=6,7=1111,11=9,25=1,30=1,74=-55,124=31/1,2,3,8;
 4//1;
 5/5=2,38=5/2;
 8/6=1,10=2,108=1/1;
 9/41=1,42=1,70=2/14;
 6/7=2,8=2,9=2,10=2/1;
 99/5=1,9=1/99;
 -----
 SP_12
 -----
 Symbolic Z-matrix:
 Charge =  1 Multiplicity = 1
 C                     0.        2.27466   1.33843 
 C                     0.        3.47551   0.58599 
 C                     0.        3.59186  -0.89383 
 C                     0.        2.72716  -1.52154 
 C                     0.       -2.19916  -1.29354 
 C                     0.       -3.77586  -0.53383 
 C                     0.       -3.92751   0.75799 
 C                     0.       -2.71066   1.38243 
 C                     0.       -0.088     1.45337 
 C                     0.        0.336    -1.42919 
 C                     0.        1.35806   0.76707 
 C                     0.        1.35347  -0.7808 
 C                     0.       -1.16606   0.58707 
 C                     0.       -1.12147  -0.6808 
 H                     0.        2.37407   2.42165 
 H                     0.        4.39675   1.16169 
 H                     0.        4.62526  -1.26635 
 H                     0.        2.62755  -2.60406 
 H                     0.        0.238    -2.51027 
 H                     0.       -2.30755  -2.37606 
 H                     0.       -4.59326  -1.27835 
 H                     0.       -4.87675   1.26169 
 H                     0.       -2.60207   2.46565 
 H                    -0.85959  -0.48      2.14579 
 H                     0.85959  -0.48      2.14579 
 
                          Input orientation:                          
 ---------------------------------------------------------------------
 Center     Atomic      Atomic             Coordinates (Angstroms)
 Number     Number       Type             X           Y           Z
 ---------------------------------------------------------------------
      1          6           0        0.000000    2.274655    1.338431
      2          6           0        0.000000    3.475508    0.585989
      3          6           0        0.000000    3.591861   -0.893830
      4          6           0        0.000000    2.727156   -1.521538
      5          6           0        0.000000   -2.199156   -1.293538
      6          6           0        0.000000   -3.775861   -0.533830
      7          6           0        0.000000   -3.927508    0.757989
      8          6           0        0.000000   -2.710655    1.382431
      9          6           0        0.000000   -0.088000    1.453369
     10          6           0        0.000000    0.336000   -1.429189
     11          6           0        0.000000    1.358055    0.767065
     12          6           0        0.000000    1.353471   -0.780804
     13          6           0        0.000000   -1.166055    0.587065
     14          6           0        0.000000   -1.121471   -0.680804
     15          1           0        0.000000    2.374071    2.421647
     16          1           0        0.000000    4.396753    1.161689
     17          1           0        0.000000    4.625262   -1.266349
     18          1           0        0.000000    2.627550   -2.604059
     19          1           0        0.000000    0.238000   -2.510266
     20          1           0        0.000000   -2.307550   -2.376059
     21          1           0        0.000000   -4.593262   -1.278349
     22          1           0        0.000000   -4.876753    1.261689
     23          1           0        0.000000   -2.602071    2.465647
     24          1           0       -0.859585   -0.480000    2.145787
     25          1           0        0.859585   -0.480000    2.145787
 ---------------------------------------------------------------------
                    Distance matrix (angstroms):
                    1          2          3          4          5
     1  C    0.000000
     2  C    1.417116   0.000000
     3  C    2.591915   1.484386   0.000000
     4  C    2.895545   2.236448   1.068519   0.000000
     5  C    5.190592   5.977828   5.804795   4.931585   0.000000
     6  C    6.333570   7.337326   7.376512   6.577598   1.750187
     7  C    6.229265   7.405014   7.698663   7.034259   2.682529
     8  C    4.985504   6.237222   6.700975   6.164643   2.724416
     9  C    2.365449   3.667552   4.364713   4.095751   3.464459
    10  C    3.379068   3.730610   3.299582   2.392939   2.538783
    11  C    1.080099   2.125181   2.783606   2.666860   4.110941
    12  C    2.310787   2.524117   2.241242   1.560672   3.589437
    13  C    3.521794   4.641563   4.983053   4.427561   2.145685
    14  C    3.951073   4.768331   4.718144   3.939386   1.239697
    15  H    1.087769   2.140748   3.532053   3.958962   5.892114
    16  H    2.129445   1.086335   2.207489   3.160263   7.038051
    17  H    3.508594   2.180158   1.098494   1.915183   6.824472
    18  H    3.958252   3.300824   1.963359   1.087094   5.001455
    19  H    4.354358   4.479760   3.723070   2.678335   2.723996
    20  H    5.898647   6.497499   6.082767   5.106708   1.087934
    21  H    7.349546   8.281353   8.194150   7.324456   2.394154
    22  H    7.151820   8.379549   8.738632   8.097270   3.701177
    23  H    5.005304   6.361610   7.046338   6.655697   3.780716
    24  H    2.996470   4.337960   5.153466   4.947121   3.939967
    25  H    2.996470   4.337960   5.153466   4.947121   3.939967
                    6          7          8          9         10
     6  C    0.000000
     7  C    1.300689   0.000000
     8  C    2.192423   1.367720   0.000000
     9  C    4.189186   3.901971   2.623614   0.000000
    10  C    4.208214   4.791790   4.145759   2.913575   0.000000
    11  C    5.296170   5.285571   4.114982   1.600652   2.422422
    12  C    5.135274   5.500602   4.603988   2.658828   1.206503
    13  C    2.840333   2.766738   1.737353   1.382999   2.514249
    14  C    2.658456   3.153406   2.604313   2.371235   1.638384
    15  H    6.823233   6.517488   5.189837   2.645630   4.356911
    16  H    8.346640   8.334044   7.110835   4.494228   4.816883
    17  H    8.432998   8.789074   7.799469   5.441664   4.292352
    18  H    6.729749   7.366964   6.662472   4.882308   2.575174
    19  H    4.474079   5.294615   4.883406   3.977019   1.085510
    20  H    2.355790   3.527963   3.780045   4.426163   2.808010
    21  H    1.105646   2.142405   3.259442   5.268745   4.931569
    22  H    2.106146   1.074607   2.169461   4.792588   5.866312
    23  H    3.220970   2.161684   1.088645   2.710214   4.878730
    24  H    4.333813   3.814470   2.509466   1.171321   3.766324
    25  H    4.333813   3.814470   2.509466   1.171321   3.766324
                   11         12         13         14         15
    11  C    0.000000
    12  C    1.547876   0.000000
    13  C    2.530520   2.866893   0.000000
    14  C    2.871302   2.476961   1.268653   0.000000
    15  H    1.941631   3.361148   3.987253   4.673758   0.000000
    16  H    3.064215   3.610380   5.592408   5.817695   2.383010
    17  H    3.848300   3.307623   6.080666   5.776487   4.320784
    18  H    3.602235   2.224306   4.957289   4.213558   5.032094
    19  H    3.463441   2.057988   3.400710   2.279275   5.374622
    20  H    4.828653   3.993484   3.175392   2.068979   6.703399
    21  H    6.293003   5.967511   3.901989   3.522839   7.888834
    22  H    6.254397   6.556483   3.771525   4.227934   7.343021
    23  H    4.309035   5.117202   2.364574   3.477403   4.976337
    24  H    2.453203   3.558853   1.907661   3.023241   2.993444
    25  H    2.453203   3.558853   1.907661   3.023241   2.993444
                   16         17         18         19         20
    16  H    0.000000
    17  H    2.438767   0.000000
    18  H    4.160641   2.404230   0.000000
    19  H    5.547836   4.560197   2.391390   0.000000
    20  H    7.580458   7.021064   4.940364   2.549085   0.000000
    21  H    9.315265   9.218532   7.341501   4.985851   2.535635
    22  H    9.274045   9.832561   8.441479   6.355182   4.453540
    23  H    7.119259   8.134011   7.283602   5.729373   4.850656
    24  H    5.048768   6.200424   5.740801   4.788866   4.952365
    25  H    5.048768   6.200424   5.740801   4.788866   4.952365
                   21         22         23         24         25
    21  H    0.000000
    22  H    2.555809   0.000000
    23  H    4.240560   2.573654   0.000000
    24  H    5.420564   4.566394   2.311792   0.000000
    25  H    5.420564   4.566394   2.311792   1.719170   0.000000
 Stoichiometry    C14H11(1+)
 Framework group  CS[SG(C14H9),X(H2)]
 Deg. of freedom    46
 Full point group                 CS      NOp   2
 Largest Abelian subgroup         CS      NOp   2
 Largest concise Abelian subgroup CS      NOp   2
                         Standard orientation:                         
 ---------------------------------------------------------------------
 Center     Atomic      Atomic             Coordinates (Angstroms)
 Number     Number       Type             X           Y           Z
 ---------------------------------------------------------------------
      1          6           0       -2.221429   -1.430231    0.000000
      2          6           0       -2.090955   -2.841327    0.000000
      3          6           0       -0.822390   -3.612136    0.000000
      4          6           0        0.127668   -3.123134    0.000000
      5          6           0        2.144386    1.377241    0.000000
      6          6           0        2.176819    3.127128    0.000000
      7          6           0        1.091984    3.844713    0.000000
      8          6           0       -0.013868    3.039884    0.000000
      9          6           0       -1.259203    0.730665    0.000000
     10          6           0        1.122905   -0.946977    0.000000
     11          6           0       -1.298278   -0.869511    0.000000
     12          6           0        0.085539   -1.563031    0.000000
     13          6           0        0.000000    1.302586    0.000000
     14          6           0        1.111707    0.691368    0.000000
     15          1           0       -3.233200   -1.030781    0.000000
     16          1           0       -3.020068   -3.404241    0.000000
     17          1           0       -0.955595   -4.702523    0.000000
     18          1           0        1.138904   -3.522102    0.000000
     19          1           0        2.132128   -1.346727    0.000000
     20          1           0        3.159583    0.986119    0.000000
     21          1           0        3.209832    3.521256    0.000000
     22          1           0        1.070159    4.919098    0.000000
     23          1           0       -1.029771    3.431150    0.000000
     24          1           0       -1.700639    1.392662    0.859585
     25          1           0       -1.700639    1.392662   -0.859585
 ---------------------------------------------------------------------
 Rotational constants (GHZ):           2.1605229           0.4402981           0.3665494
 Standard basis: 6-311++G(d,p) (5D, 7F)
 There are   299 symmetry adapted cartesian basis functions of A'  symmetry.
 There are   100 symmetry adapted cartesian basis functions of A"  symmetry.
 There are   285 symmetry adapted basis functions of A'  symmetry.
 There are   100 symmetry adapted basis functions of A"  symmetry.
   385 basis functions,   603 primitive gaussians,   399 cartesian basis functions
    47 alpha electrons       47 beta electrons
       nuclear repulsion energy       785.9111213894 Hartrees.
 NAtoms=   25 NActive=   25 NUniq=   24 SFac= 1.09D+00 NAtFMM=   60 NAOKFM=F Big=F
 Integral buffers will be    131072 words long.
 Regular integral format.
 Two-electron integral symmetry is turned on.
 Nuclear repulsion after empirical dispersion term =      785.9101657171 Hartrees.
 One-electron integrals computed using PRISM.
 NBasis=   385 RedAO= T EigKep=  1.26D-06  NBF=   285   100
 NBsUse=   379 1.00D-06 EigRej=  6.67D-07 NBFU=   279   100
 ExpMin= 3.60D-02 ExpMax= 4.56D+03 ExpMxC= 6.82D+02 IAcc=3 IRadAn=         5 AccDes= 0.00D+00
 Harris functional with IExCor= 1009 and IRadAn=       5 diagonalized for initial guess.
 HarFok:  IExCor= 1009 AccDes= 0.00D+00 IRadAn=         5 IDoV= 1 UseB2=F ITyADJ=14
 ICtDFT=  3500011 ScaDFX=  1.000000  1.000000  1.000000  1.000000
 FoFCou: FMM=F IPFlag=           0 FMFlag=      100000 FMFlg1=           0
         NFxFlg=           0 DoJE=T BraDBF=F KetDBF=T FulRan=T
         wScrn=  0.000000 ICntrl=       500 IOpCl=  0 I1Cent=   200000004 NGrid=           0
         NMat0=    1 NMatS0=      1 NMatT0=    0 NMatD0=    1 NMtDS0=    0 NMtDT0=    0
 Petite list used in FoFCou.
 Initial guess orbital symmetries:
       Occupied  (A') (A') (A') (A') (A') (A') (A') (A') (A') (A')
                 (A') (A') (A') (A') (A') (A') (A') (A') (A') (A')
                 (A') (A') (A') (A') (A') (A') (A') (A') (A') (A')
                 (A') (A') (A") (A') (A') (A") (A') (A") (A') (A')
                 (A') (A") (A') (A") (A") (A') (A")
       Virtual   (A") (A") (A") (A") (A') (A") (A') (A') (A') (A')
                 (A') (A') (A") (A') (A") (A') (A') (A") (A') (A')
                 (A') (A') (A") (A') (A') (A") (A') (A") (A') (A")
                 (A') (A') (A') (A') (A") (A') (A') (A') (A") (A')
                 (A") (A') (A') (A") (A') (A') (A') (A') (A') (A')
                 (A") (A") (A') (A") (A') (A') (A") (A') (A") (A')
                 (A') (A') (A') (A') (A') (A") (A') (A') (A") (A')
                 (A') (A') (A') (A') (A') (A') (A') (A') (A') (A')
                 (A') (A') (A') (A') (A') (A') (A') (A') (A') (A')
                 (A') (A') (A') (A") (A') (A") (A') (A') (A") (A')
                 (A') (A") (A') (A') (A") (A') (A") (A') (A") (A")
                 (A') (A") (A') (A") (A') (A") (A') (A') (A') (A")
                 (A") (A') (A') (A") (A') (A') (A") (A') (A') (A')
                 (A') (A') (A') (A') (A') (A') (A') (A') (A") (A')
                 (A') (A') (A') (A') (A') (A") (A') (A') (A') (A')
                 (A') (A") (A") (A') (A") (A') (A') (A") (A') (A")
                 (A") (A') (A") (A') (A") (A') (A") (A') (A') (A')
                 (A") (A') (A') (A') (A') (A') (A') (A") (A") (A')
                 (A') (A") (A') (A") (A') (A") (A') (A') (A") (A')
                 (A") (A') (A") (A') (A') (A') (A") (A') (A") (A')
                 (A") (A') (A") (A') (A") (A') (A") (A') (A') (A")
                 (A') (A') (A') (A') (A") (A') (A') (A") (A') (A")
                 (A') (A') (A") (A') (A") (A') (A') (A') (A") (A')
                 (A") (A') (A") (A') (A') (A") (A') (A") (A') (A")
                 (A') (A') (A') (A') (A') (A") (A') (A') (A') (A")
                 (A') (A') (A') (A") (A") (A') (A') (A") (A') (A")
                 (A') (A") (A') (A') (A') (A') (A') (A") (A") (A')
                 (A') (A") (A') (A') (A') (A") (A') (A') (A") (A')
                 (A') (A") (A") (A') (A') (A") (A") (A') (A') (A')
                 (A') (A') (A') (A') (A') (A') (A') (A') (A') (A")
                 (A') (A') (A') (A') (A') (A') (A') (A') (A') (A')
                 (A') (A') (A') (A') (A') (A') (A') (A') (A') (A')
                 (A') (A') (A') (A') (A') (A') (A') (A') (A') (A')
                 (A') (A')
 The electronic state of the initial guess is 1-A'.
 Requested convergence on RMS density matrix=1.00D-08 within 128 cycles.
 Requested convergence on MAX density matrix=1.00D-06.
 Requested convergence on             energy=1.00D-06.
 No special actions if energy rises.
 SCF Done:  E(RM062X) =  -539.170359857     A.U. after   17 cycles
            NFock= 17  Conv=0.70D-08     -V/T= 1.9985
 DoSCS=F DFT=T ScalE2(SS,OS)=  1.000000  1.000000
 ExpMin= 3.60D-02 ExpMax= 4.56D+03 ExpMxC= 6.82D+02 IAcc=3 IRadAn=         5 AccDes= 0.00D+00
 HarFok:  IExCor=  205 AccDes= 0.00D+00 IRadAn=         5 IDoV=-2 UseB2=F ITyADJ=14
 ICtDFT= 12500011 ScaDFX=  1.000000  1.000000  1.000000  1.000000
 Range of M.O.s used for correlation:    15   379
 NBasis=   385 NAE=    47 NBE=    47 NFC=    14 NFV=     0
 NROrb=    365 NOA=    33 NOB=    33 NVA=   332 NVB=   332

 **** Warning!!: The largest alpha MO coefficient is  0.19391349D+03


 **** Warning!!: The smallest alpha delta epsilon is  0.86434052D-01

 Orbital symmetries:
       Occupied  (A') (A') (A') (A') (A') (A') (A') (A') (A') (A')
                 (A') (A') (A') (A') (A') (A') (A') (A') (A') (A')
                 (A') (A') (A') (A') (A') (A') (A') (A') (A') (A')
                 (A') (A") (A') (A') (A") (A') (A') (A') (A") (A')
                 (A") (A') (A") (A') (A") (A') (A")
       Virtual   (A") (A") (A') (A") (A') (A') (A") (A') (A') (A")
                 (A') (A") (A') (A') (A") (A') (A") (A') (A') (A')
                 (A") (A') (A') (A") (A') (A') (A') (A') (A') (A")
                 (A") (A') (A') (A") (A') (A') (A') (A") (A') (A")
                 (A") (A') (A') (A') (A') (A") (A') (A") (A') (A")
                 (A') (A') (A') (A') (A') (A") (A') (A') (A") (A')
                 (A') (A') (A') (A") (A') (A') (A") (A') (A') (A')
                 (A') (A') (A') (A') (A') (A') (A') (A') (A') (A')
                 (A') (A') (A') (A') (A') (A') (A') (A') (A') (A')
                 (A") (A') (A") (A') (A') (A') (A') (A') (A") (A')
                 (A") (A') (A') (A") (A') (A") (A') (A") (A') (A")
                 (A') (A") (A') (A") (A') (A") (A') (A") (A') (A")
                 (A') (A') (A') (A") (A") (A') (A') (A') (A') (A')
                 (A') (A') (A') (A') (A') (A') (A') (A') (A') (A')
                 (A') (A') (A') (A') (A") (A') (A') (A') (A") (A')
                 (A') (A') (A') (A") (A') (A") (A") (A') (A") (A')
                 (A") (A') (A") (A') (A') (A") (A") (A") (A') (A')
                 (A") (A') (A') (A') (A') (A') (A') (A") (A') (A")
                 (A') (A") (A') (A") (A') (A") (A') (A") (A') (A')
                 (A") (A") (A') (A') (A') (A") (A') (A') (A") (A')
                 (A") (A') (A") (A') (A") (A') (A") (A') (A') (A")
                 (A') (A') (A') (A') (A") (A') (A') (A') (A") (A')
                 (A") (A') (A") (A') (A") (A') (A') (A") (A') (A')
                 (A") (A') (A') (A") (A') (A') (A") (A") (A') (A")
                 (A') (A') (A') (A') (A") (A') (A') (A') (A') (A")
                 (A') (A') (A') (A') (A') (A") (A') (A') (A") (A')
                 (A') (A") (A') (A') (A") (A') (A') (A') (A') (A')
                 (A") (A') (A") (A") (A") (A') (A") (A') (A") (A')
                 (A') (A") (A") (A') (A') (A") (A") (A') (A') (A')
                 (A') (A') (A') (A') (A') (A') (A') (A') (A") (A')
                 (A') (A') (A') (A') (A') (A') (A') (A') (A') (A')
                 (A') (A') (A') (A') (A') (A') (A') (A') (A') (A')
                 (A') (A') (A') (A') (A') (A') (A') (A') (A') (A')
                 (A') (A')
     4 initial guesses have been made.
 Convergence on wavefunction:    0.001000000000000
 Iteration     1 Dimension     4 NMult     0 NNew      4
 CISAX will form     4 AO SS matrices at one time.
 Iteration     2 Dimension     6 NMult     4 NNew      2
 Iteration     3 Dimension     8 NMult     6 NNew      2
 Iteration     4 Dimension    10 NMult     8 NNew      2
 Iteration     5 Dimension    12 NMult    10 NNew      2
 Iteration     6 Dimension    14 NMult    12 NNew      2
 ***********************************************************************
 Excited states from <AA,BB:AA,BB> singles matrix:
 ***********************************************************************
 
 Ground to excited state transition densities written to RWF  633
 Ground to excited state transition electric dipole moments (Au):
       state          X           Y           Z        Dip. S.      Osc.
         1         0.5991      1.6147      0.0000      2.9661      0.0723
 Ground to excited state transition velocity dipole moments (Au):
       state          X           Y           Z        Dip. S.      Osc.
         1        -0.0163     -0.0566     -0.0000      0.0035      0.0634
 Ground to excited state transition magnetic dipole moments (Au):
       state          X           Y           Z
         1        -0.0000      0.0000      0.4065
 Ground to excited state transition velocity quadrupole moments (Au):
       state          XX          YY          ZZ          XY          XZ          YZ
         1         0.0192      0.0213     -0.0041      0.0509      0.0000     -0.0000
 <0|del|b> * <b|rxdel|0> + <0|del|b> * <b|delr+rdel|0>
 Rotatory Strengths (R) in cgs (10**-40 erg-esu-cm/Gauss)
       state          XX          YY          ZZ    R(velocity)    E-M Angle
         1        -0.0000     -0.0000     -0.0000     -0.0000       90.00
 1/2[<0|r|b>*<b|rxdel|0> + (<0|rxdel|b>*<b|r|0>)*]
 Rotatory Strengths (R) in cgs (10**-40 erg-esu-cm/Gauss)
       state          XX          YY          ZZ     R(length)
         1         0.0000     -0.0000     -0.0000     -0.0000
  1/2[<0|del|b>*<b|r|0> + (<0|r|b>*<b|del|0>)*] (Au)
       state          X           Y           Z        Dip. S.   Osc.(frdel)
         1        -0.0098     -0.0914     -0.0000      0.1012      0.0675

 Excitation energies and oscillator strengths:
 
 Excited State   1:      Singlet-A'     0.9946 eV 1246.62 nm  f=0.0723  <S**2>=0.000
      47 -> 48         0.71455
      47 <- 48        -0.13702
 This state for optimization and/or second-order correction.
 Total Energy, E(TD-HF/TD-DFT) =  -539.133810453    
 Copying the excited state density for this state as the 1-particle RhoCI density.
 SavETr:  write IOETrn=   770 NScale= 10 NData=  16 NLR=1 NState=    1 LETran=      28.

 **********************************************************************

            Population analysis using the SCF Density.

 **********************************************************************

 Orbital symmetries:
       Occupied  (A') (A') (A') (A') (A') (A') (A') (A') (A') (A')
                 (A') (A') (A') (A') (A') (A') (A') (A') (A') (A')
                 (A') (A') (A') (A') (A') (A') (A') (A') (A') (A')
                 (A') (A") (A') (A') (A") (A') (A') (A') (A") (A')
                 (A") (A') (A") (A') (A") (A') (A")
       Virtual   (A") (A") (A') (A") (A') (A') (A") (A') (A') (A")
                 (A') (A") (A') (A') (A") (A') (A") (A') (A') (A')
                 (A") (A') (A') (A") (A') (A') (A') (A') (A') (A")
                 (A") (A') (A') (A") (A') (A') (A') (A") (A') (A")
                 (A") (A') (A') (A') (A') (A") (A') (A") (A') (A")
                 (A') (A') (A') (A') (A') (A") (A') (A') (A") (A')
                 (A') (A') (A') (A") (A') (A') (A") (A') (A') (A')
                 (A') (A') (A') (A') (A') (A') (A') (A') (A') (A')
                 (A') (A') (A') (A') (A') (A') (A') (A') (A') (A')
                 (A") (A') (A") (A') (A') (A') (A') (A') (A") (A')
                 (A") (A') (A') (A") (A') (A") (A') (A") (A') (A")
                 (A') (A") (A') (A") (A') (A") (A') (A") (A') (A")
                 (A') (A') (A') (A") (A") (A') (A') (A') (A') (A')
                 (A') (A') (A') (A') (A') (A') (A') (A') (A') (A')
                 (A') (A') (A') (A') (A") (A') (A') (A') (A") (A')
                 (A') (A') (A') (A") (A') (A") (A") (A') (A") (A')
                 (A") (A') (A") (A') (A') (A") (A") (A") (A') (A')
                 (A") (A') (A') (A') (A') (A') (A') (A") (A') (A")
                 (A') (A") (A') (A") (A') (A") (A') (A") (A') (A')
                 (A") (A") (A') (A') (A') (A") (A') (A') (A") (A')
                 (A") (A') (A") (A') (A") (A') (A") (A') (A') (A")
                 (A') (A') (A') (A') (A") (A') (A') (A') (A") (A')
                 (A") (A') (A") (A') (A") (A') (A') (A") (A') (A')
                 (A") (A') (A') (A") (A') (A') (A") (A") (A') (A")
                 (A') (A') (A') (A') (A") (A') (A') (A') (A') (A")
                 (A') (A') (A') (A') (A') (A") (A') (A') (A") (A')
                 (A') (A") (A') (A') (A") (A') (A') (A') (A') (A')
                 (A") (A') (A") (A") (A") (A') (A") (A') (A") (A')
                 (A') (A") (A") (A') (A') (A") (A") (A') (A') (A')
                 (A') (A') (A') (A') (A') (A') (A') (A') (A") (A')
                 (A') (A') (A') (A') (A') (A') (A') (A') (A') (A')
                 (A') (A') (A') (A') (A') (A') (A') (A') (A') (A')
                 (A') (A') (A') (A') (A') (A') (A') (A') (A') (A')
                 (A') (A')
 The electronic state is 1-A'.
 Alpha  occ. eigenvalues --  -10.78861 -10.74239 -10.72246 -10.71869 -10.71742
 Alpha  occ. eigenvalues --  -10.70851 -10.70574 -10.70020 -10.69808 -10.69497
 Alpha  occ. eigenvalues --  -10.68712 -10.67852 -10.67556 -10.66465  -1.20907
 Alpha  occ. eigenvalues --   -1.13573  -1.12585  -1.06909  -1.03363  -1.01657
 Alpha  occ. eigenvalues --   -0.96144  -0.87966  -0.86115  -0.84162  -0.83689
 Alpha  occ. eigenvalues --   -0.77641  -0.76461  -0.74637  -0.73627  -0.69933
 Alpha  occ. eigenvalues --   -0.69157  -0.68754  -0.66692  -0.64416  -0.63802
 Alpha  occ. eigenvalues --   -0.63481  -0.62868  -0.59306  -0.58785  -0.56443
 Alpha  occ. eigenvalues --   -0.55523  -0.55146  -0.52599  -0.52056  -0.48103
 Alpha  occ. eigenvalues --   -0.47668  -0.36010
 Alpha virt. eigenvalues --   -0.27366  -0.15843  -0.11605  -0.11515  -0.10377
 Alpha virt. eigenvalues --   -0.09856  -0.09422  -0.07843  -0.07734  -0.07463
 Alpha virt. eigenvalues --   -0.07321  -0.06042  -0.05958  -0.05457  -0.05377
 Alpha virt. eigenvalues --   -0.04645  -0.04015  -0.03672  -0.03255  -0.02228
 Alpha virt. eigenvalues --   -0.01979  -0.01647  -0.00872  -0.00869   0.00210
 Alpha virt. eigenvalues --    0.00582   0.01093   0.01201   0.01557   0.01620
 Alpha virt. eigenvalues --    0.02151   0.02491   0.02834   0.02875   0.03478
 Alpha virt. eigenvalues --    0.03636   0.03819   0.04245   0.05330   0.05476
 Alpha virt. eigenvalues --    0.05757   0.05812   0.05987   0.06206   0.06873
 Alpha virt. eigenvalues --    0.07447   0.07536   0.07859   0.07970   0.08179
 Alpha virt. eigenvalues --    0.08473   0.08985   0.09146   0.09940   0.10196
 Alpha virt. eigenvalues --    0.10240   0.11190   0.11331   0.11346   0.12121
 Alpha virt. eigenvalues --    0.12768   0.13050   0.13373   0.13465   0.14100
 Alpha virt. eigenvalues --    0.14391   0.16155   0.16742   0.16975   0.17454
 Alpha virt. eigenvalues --    0.18155   0.18634   0.19795   0.20417   0.20664
 Alpha virt. eigenvalues --    0.21379   0.22225   0.22799   0.23699   0.24305
 Alpha virt. eigenvalues --    0.25211   0.25858   0.26334   0.26945   0.28426
 Alpha virt. eigenvalues --    0.29902   0.30524   0.31766   0.32503   0.35540
 Alpha virt. eigenvalues --    0.36924   0.38085   0.38758   0.38874   0.39496
 Alpha virt. eigenvalues --    0.40523   0.41963   0.42114   0.43201   0.43937
 Alpha virt. eigenvalues --    0.44012   0.44911   0.46135   0.46422   0.47529
 Alpha virt. eigenvalues --    0.48343   0.48503   0.48969   0.51377   0.51402
 Alpha virt. eigenvalues --    0.51444   0.52325   0.52382   0.53920   0.54353
 Alpha virt. eigenvalues --    0.55376   0.56324   0.58737   0.58741   0.59062
 Alpha virt. eigenvalues --    0.59982   0.61832   0.62062   0.62677   0.63756
 Alpha virt. eigenvalues --    0.64408   0.65266   0.66672   0.67502   0.67593
 Alpha virt. eigenvalues --    0.70146   0.72075   0.73547   0.73590   0.74277
 Alpha virt. eigenvalues --    0.75206   0.75679   0.76897   0.77433   0.78277
 Alpha virt. eigenvalues --    0.78993   0.80481   0.80880   0.81726   0.81846
 Alpha virt. eigenvalues --    0.82761   0.83773   0.84406   0.84647   0.85468
 Alpha virt. eigenvalues --    0.88261   0.89698   0.90632   0.90685   0.93400
 Alpha virt. eigenvalues --    0.94545   0.96058   0.96994   0.99088   0.99742
 Alpha virt. eigenvalues --    1.02077   1.02944   1.04044   1.04517   1.06397
 Alpha virt. eigenvalues --    1.07215   1.08041   1.08521   1.08654   1.13553
 Alpha virt. eigenvalues --    1.15415   1.17631   1.18750   1.18973   1.26194
 Alpha virt. eigenvalues --    1.29035   1.31504   1.34189   1.35135   1.36061
 Alpha virt. eigenvalues --    1.37683   1.38984   1.39557   1.40954   1.41131
 Alpha virt. eigenvalues --    1.45121   1.46849   1.47304   1.47524   1.49364
 Alpha virt. eigenvalues --    1.50916   1.53750   1.54287   1.55948   1.56691
 Alpha virt. eigenvalues --    1.56844   1.57442   1.59566   1.60003   1.60532
 Alpha virt. eigenvalues --    1.63620   1.64067   1.65315   1.67300   1.68893
 Alpha virt. eigenvalues --    1.69314   1.71432   1.71729   1.74946   1.75096
 Alpha virt. eigenvalues --    1.76159   1.76793   1.78297   1.79632   1.79763
 Alpha virt. eigenvalues --    1.83217   1.83618   1.84893   1.85293   1.88021
 Alpha virt. eigenvalues --    1.88533   1.89311   1.89548   1.92987   1.94738
 Alpha virt. eigenvalues --    1.95955   1.97422   2.00268   2.00790   2.02971
 Alpha virt. eigenvalues --    2.03586   2.05827   2.10248   2.11539   2.15106
 Alpha virt. eigenvalues --    2.17936   2.18238   2.20162   2.21145   2.23749
 Alpha virt. eigenvalues --    2.25155   2.28423   2.29376   2.32048   2.32709
 Alpha virt. eigenvalues --    2.36072   2.37677   2.39426   2.42425   2.42915
 Alpha virt. eigenvalues --    2.43142   2.45039   2.49915   2.53013   2.55124
 Alpha virt. eigenvalues --    2.57143   2.57929   2.59847   2.60016   2.61640
 Alpha virt. eigenvalues --    2.62930   2.63241   2.63548   2.64354   2.65579
 Alpha virt. eigenvalues --    2.65674   2.65984   2.67030   2.67759   2.69632
 Alpha virt. eigenvalues --    2.70029   2.72420   2.73908   2.75067   2.76680
 Alpha virt. eigenvalues --    2.77298   2.78708   2.81314   2.84899   2.84913
 Alpha virt. eigenvalues --    2.86283   2.90114   2.93201   2.94114   2.95575
 Alpha virt. eigenvalues --    2.98956   3.01705   3.02093   3.05231   3.07762
 Alpha virt. eigenvalues --    3.10287   3.16039   3.16637   3.26873   3.31207
 Alpha virt. eigenvalues --    3.33696   3.34954   3.42337   3.48704   3.51243
 Alpha virt. eigenvalues --    3.55990   3.62971   3.64051   3.71844   3.72690
 Alpha virt. eigenvalues --    3.74446   3.77126   3.80249   3.86639   3.89492
 Alpha virt. eigenvalues --    3.96471   4.02256   4.05553   4.18257   4.23579
 Alpha virt. eigenvalues --    4.29080   4.45468   4.49407  23.41986  23.48424
 Alpha virt. eigenvalues --   23.51778  23.56406  23.57821  23.81712  23.93523
 Alpha virt. eigenvalues --   23.96889  24.27749  24.36150  24.67502  24.72800
 Alpha virt. eigenvalues --   25.38059  25.43015
          Condensed to atoms (all electrons):
               1          2          3          4          5          6
     1  C    7.081529   0.919636  -0.549949   0.356788  -0.015884  -0.038813
     2  C    0.919636   8.890844   0.552759  -0.736264  -0.149140  -0.017318
     3  C   -0.549949   0.552759   6.850187   0.559834  -0.034713   0.015577
     4  C    0.356788  -0.736264   0.559834  11.839187  -0.209928  -0.232077
     5  C   -0.015884  -0.149140  -0.034713  -0.209928   8.243183   1.262241
     6  C   -0.038813  -0.017318   0.015577  -0.232077   1.262241   7.752911
     7  C   -0.115804  -0.032703  -0.003605   0.218525  -1.662483  -2.077635
     8  C    0.340972   0.039522  -0.119192  -0.230316   2.488039   1.396341
     9  C   -0.611147  -1.611173   0.122822   0.957207  -0.850829   0.315010
    10  C   -0.306651  -0.379312   0.310558  -2.217368  -0.978544  -1.097143
    11  C    0.926038  -0.478656   0.090370  -0.830579  -1.351004   0.342816
    12  C   -1.148810   0.356507  -1.876451  -1.038617   0.461010  -0.859927
    13  C   -0.054000  -0.487285  -0.382699  -0.372842  -0.708428   0.882136
    14  C   -1.254833  -0.737426   0.492099  -2.413095  -0.726332  -1.598093
    15  H    0.394199  -0.079553   0.002951  -0.007150   0.005011   0.002979
    16  H   -0.016986   0.381849  -0.042848   0.041798  -0.002589  -0.000661
    17  H   -0.002190  -0.033511   0.400967  -0.065926   0.000419   0.000571
    18  H    0.017911   0.017300  -0.041521   0.557313   0.004284  -0.005474
    19  H   -0.003989  -0.012463   0.037733  -0.195244  -0.030384   0.059866
    20  H    0.001254   0.001647  -0.005794   0.024189   0.428855  -0.094477
    21  H   -0.001033  -0.000405   0.000264  -0.002073  -0.028092   0.337233
    22  H   -0.000413  -0.000150  -0.000074   0.001036  -0.011692  -0.007247
    23  H    0.013743   0.003224   0.000414  -0.009024   0.026830   0.053905
    24  H    0.045472   0.017007  -0.001348   0.001749  -0.021593  -0.009212
    25  H    0.045472   0.017007  -0.001348   0.001749  -0.021593  -0.009212
               7          8          9         10         11         12
     1  C   -0.115804   0.340972  -0.611147  -0.306651   0.926038  -1.148810
     2  C   -0.032703   0.039522  -1.611173  -0.379312  -0.478656   0.356507
     3  C   -0.003605  -0.119192   0.122822   0.310558   0.090370  -1.876451
     4  C    0.218525  -0.230316   0.957207  -2.217368  -0.830579  -1.038617
     5  C   -1.662483   2.488039  -0.850829  -0.978544  -1.351004   0.461010
     6  C   -2.077635   1.396341   0.315010  -1.097143   0.342816  -0.859927
     7  C   10.728324  -4.017129  -0.849306   0.888460  -0.855910   0.732795
     8  C   -4.017129  12.820107  -1.060825  -0.891403   0.332437  -0.547459
     9  C   -0.849306  -1.060825  10.119722  -0.175646   1.202498  -2.606815
    10  C    0.888460  -0.891403  -0.175646   8.595401   0.002120   1.633950
    11  C   -0.855910   0.332437   1.202498   0.002120  15.179078  -5.230463
    12  C    0.732795  -0.547459  -2.606815   1.633950  -5.230463  18.616843
    13  C    0.138180  -1.698226   0.358289  -1.017608  -1.037249  -1.591044
    14  C    3.160627  -3.354328   0.178254   1.265201  -1.788551  -1.133973
    15  H   -0.004929  -0.000597   0.032003   0.012898  -0.044113   0.052420
    16  H    0.000547   0.003046  -0.005536  -0.028001   0.033249  -0.014385
    17  H   -0.000176  -0.001971   0.000291   0.017341   0.004347   0.015456
    18  H    0.003112   0.004664  -0.002231  -0.024899  -0.008176  -0.064890
    19  H   -0.013096  -0.043805   0.051196   0.399818   0.141527  -0.282130
    20  H   -0.002394   0.074579  -0.028270   0.088672  -0.033139   0.060932
    21  H    0.039736  -0.056726  -0.001690  -0.000674  -0.000191  -0.007100
    22  H    0.350816  -0.012770  -0.004676   0.003472  -0.007954   0.004993
    23  H   -0.177143   0.408208   0.117667  -0.020310   0.059871  -0.025867
    24  H    0.014462  -0.027790   0.378451   0.012641   0.042000  -0.029984
    25  H    0.014462  -0.027790   0.378451   0.012641   0.042000  -0.029984
              13         14         15         16         17         18
     1  C   -0.054000  -1.254833   0.394199  -0.016986  -0.002190   0.017911
     2  C   -0.487285  -0.737426  -0.079553   0.381849  -0.033511   0.017300
     3  C   -0.382699   0.492099   0.002951  -0.042848   0.400967  -0.041521
     4  C   -0.372842  -2.413095  -0.007150   0.041798  -0.065926   0.557313
     5  C   -0.708428  -0.726332   0.005011  -0.002589   0.000419   0.004284
     6  C    0.882136  -1.598093   0.002979  -0.000661   0.000571  -0.005474
     7  C    0.138180   3.160627  -0.004929   0.000547  -0.000176   0.003112
     8  C   -1.698226  -3.354328  -0.000597   0.003046  -0.001971   0.004664
     9  C    0.358289   0.178254   0.032003  -0.005536   0.000291  -0.002231
    10  C   -1.017608   1.265201   0.012898  -0.028001   0.017341  -0.024899
    11  C   -1.037249  -1.788551  -0.044113   0.033249   0.004347  -0.008176
    12  C   -1.591044  -1.133973   0.052420  -0.014385   0.015456  -0.064890
    13  C   11.323153   0.752258  -0.038047   0.008427  -0.007971   0.001726
    14  C    0.752258  12.685986   0.010898  -0.026060   0.012544  -0.109386
    15  H   -0.038047   0.010898   0.421527  -0.003386   0.001664  -0.000380
    16  H    0.008427  -0.026060  -0.003386   0.391134  -0.004936   0.003061
    17  H   -0.007971   0.012544   0.001664  -0.004936   0.412266  -0.013201
    18  H    0.001726  -0.109386  -0.000380   0.003061  -0.013201   0.431773
    19  H    0.065822   0.187874   0.001367  -0.000811   0.003823  -0.008911
    20  H   -0.012852  -0.171063  -0.000337   0.000066  -0.000313   0.001864
    21  H    0.010281   0.052982   0.000059  -0.000009   0.000008  -0.000096
    22  H    0.021360   0.006890  -0.000144   0.000006  -0.000002   0.000012
    23  H   -0.085761  -0.073468   0.000648  -0.000134  -0.000018  -0.000126
    24  H   -0.069230  -0.020062  -0.000868   0.000555  -0.000058   0.000091
    25  H   -0.069230  -0.020062  -0.000868   0.000555  -0.000058   0.000091
              19         20         21         22         23         24
     1  C   -0.003989   0.001254  -0.001033  -0.000413   0.013743   0.045472
     2  C   -0.012463   0.001647  -0.000405  -0.000150   0.003224   0.017007
     3  C    0.037733  -0.005794   0.000264  -0.000074   0.000414  -0.001348
     4  C   -0.195244   0.024189  -0.002073   0.001036  -0.009024   0.001749
     5  C   -0.030384   0.428855  -0.028092  -0.011692   0.026830  -0.021593
     6  C    0.059866  -0.094477   0.337233  -0.007247   0.053905  -0.009212
     7  C   -0.013096  -0.002394   0.039736   0.350816  -0.177143   0.014462
     8  C   -0.043805   0.074579  -0.056726  -0.012770   0.408208  -0.027790
     9  C    0.051196  -0.028270  -0.001690  -0.004676   0.117667   0.378451
    10  C    0.399818   0.088672  -0.000674   0.003472  -0.020310   0.012641
    11  C    0.141527  -0.033139  -0.000191  -0.007954   0.059871   0.042000
    12  C   -0.282130   0.060932  -0.007100   0.004993  -0.025867  -0.029984
    13  C    0.065822  -0.012852   0.010281   0.021360  -0.085761  -0.069230
    14  C    0.187874  -0.171063   0.052982   0.006890  -0.073468  -0.020062
    15  H    0.001367  -0.000337   0.000059  -0.000144   0.000648  -0.000868
    16  H   -0.000811   0.000066  -0.000009   0.000006  -0.000134   0.000555
    17  H    0.003823  -0.000313   0.000008  -0.000002  -0.000018  -0.000058
    18  H   -0.008911   0.001864  -0.000096   0.000012  -0.000126   0.000091
    19  H    0.500742  -0.015501   0.000517  -0.000304   0.000286   0.000471
    20  H   -0.015501   0.478511  -0.004494   0.001568  -0.001497   0.000547
    21  H    0.000517  -0.004494   0.421719  -0.000928   0.000505  -0.000164
    22  H   -0.000304   0.001568  -0.000928   0.423823  -0.005276   0.000774
    23  H    0.000286  -0.001497   0.000505  -0.005276   0.483990  -0.000290
    24  H    0.000471   0.000547  -0.000164   0.000774  -0.000290   0.462172
    25  H    0.000471   0.000547  -0.000164   0.000774  -0.000290  -0.062906
              25
     1  C    0.045472
     2  C    0.017007
     3  C   -0.001348
     4  C    0.001749
     5  C   -0.021593
     6  C   -0.009212
     7  C    0.014462
     8  C   -0.027790
     9  C    0.378451
    10  C    0.012641
    11  C    0.042000
    12  C   -0.029984
    13  C   -0.069230
    14  C   -0.020062
    15  H   -0.000868
    16  H    0.000555
    17  H   -0.000058
    18  H    0.000091
    19  H    0.000471
    20  H    0.000547
    21  H   -0.000164
    22  H    0.000774
    23  H   -0.000290
    24  H   -0.062906
    25  H    0.462172
 Mulliken charges:
               1
     1  C   -0.022510
     2  C   -0.441943
     3  C   -0.376992
     4  C    0.001127
     5  C   -0.116644
     6  C   -0.374298
     7  C   -0.477732
     8  C    0.182411
     9  C   -0.403718
    10  C   -0.105614
    11  C   -0.732370
    12  C    0.552994
    13  C    0.070843
    14  C    0.621122
    15  H    0.241749
    16  H    0.282052
    17  H    0.260633
    18  H    0.236088
    19  H    0.155125
    20  H    0.206899
    21  H    0.240533
    22  H    0.236104
    23  H    0.229913
    24  H    0.267113
    25  H    0.267113
 Sum of Mulliken charges =   1.00000
 Mulliken charges with hydrogens summed into heavy atoms:
               1
     1  C    0.219239
     2  C   -0.159891
     3  C   -0.116359
     4  C    0.237214
     5  C    0.090255
     6  C   -0.133765
     7  C   -0.241628
     8  C    0.412325
     9  C    0.130509
    10  C    0.049511
    11  C   -0.732370
    12  C    0.552994
    13  C    0.070843
    14  C    0.621122
 Electronic spatial extent (au):  <R**2>=           2868.2140
 Charge=              1.0000 electrons
 Dipole moment (field-independent basis, Debye):
    X=             -3.2452    Y=             -4.5112    Z=             -0.0000  Tot=              5.5572
 Quadrupole moment (field-independent basis, Debye-Ang):
   XX=            -52.7093   YY=            -30.0106   ZZ=            -83.1262
   XY=             11.0160   XZ=              0.0000   YZ=              0.0000
 Traceless Quadrupole moment (field-independent basis, Debye-Ang):
   XX=              2.5727   YY=             25.2714   ZZ=            -27.8442
   XY=             11.0160   XZ=              0.0000   YZ=              0.0000
 Octapole moment (field-independent basis, Debye-Ang**2):
  XXX=            -20.2065  YYY=            -35.1044  ZZZ=             -0.0000  XYY=            -14.0855
  XXY=            -22.4049  XXZ=              0.0000  XZZ=             -7.3499  YZZ=             -7.8494
  YYZ=              0.0000  XYZ=             -0.0000
 Hexadecapole moment (field-independent basis, Debye-Ang**3):
 XXXX=           -877.2965 YYYY=          -1905.8965 ZZZZ=            -97.4586 XXXY=           -301.6377
 XXXZ=              0.0000 YYYX=           -221.4642 YYYZ=              0.0000 ZZZX=             -0.0000
 ZZZY=              0.0000 XXYY=           -457.3354 XXZZ=           -213.5961 YYZZ=           -516.4479
 XXYZ=              0.0000 YYXZ=             -0.0000 ZZXY=           -159.8183
 N-N= 7.859101657171D+02 E-N=-2.809537618896D+03  KE= 5.399715928548D+02
 Symmetry A'   KE= 5.247622137623D+02
 Symmetry A"   KE= 1.520937909251D+01
 Unable to Open any file for archive entry.
 1\1\GINC-GADI-CPU-CLX-0240\SP\RM062X TD-FC\6-311++G(d,p)\C14H11(1+)\TS
 1578\02-Aug-2022\0\\#n M062X/6-311++G(d,p) TD(NStates=1) EmpiricalDisp
 ersion=GD3 SP\\SP_12\\1,1\C,0,0.,2.274655,1.338431\C,0,0.,3.475508,0.5
 85989\C,0,0.,3.591861,-0.89383\C,0,0.,2.727156,-1.521538\C,0,0.,-2.199
 156,-1.293538\C,0,0.,-3.775861,-0.53383\C,0,0.,-3.927508,0.757989\C,0,
 0.,-2.710655,1.382431\C,0,0.,-0.088,1.453369\C,0,0.,0.336,-1.429189\C,
 0,0.,1.358055,0.767065\C,0,0.,1.353471,-0.780804\C,0,0.,-1.166055,0.58
 7065\C,0,0.,-1.121471,-0.680804\H,0,0.,2.374071,2.421647\H,0,0.,4.3967
 53,1.161689\H,0,0.,4.625262,-1.266349\H,0,0.,2.62755,-2.604059\H,0,0.,
 0.238,-2.510266\H,0,0.,-2.30755,-2.376059\H,0,0.,-4.593262,-1.278349\H
 ,0,0.,-4.876753,1.261689\H,0,0.,-2.602071,2.465647\H,0,-0.859585,-0.48
 ,2.145787\H,0,0.859585,-0.48,2.145787\\Version=ES64L-G16RevC.01\State=
 1-A'\HF=-539.1703599\RMSD=7.024e-09\PG=CS [SG(C14H9),X(H2)]\\@
 The archive entry for this job was punched.


 ONLY THE DAY DAWNS TO WHICH YOU ARE AWAKE.

                                 -- THOREAU
 Job cpu time:       0 days  0 hours 54 minutes 54.6 seconds.
 Elapsed time:       0 days  0 hours  1 minutes  8.8 seconds.
 File lengths (MBytes):  RWF=    460 Int=      0 D2E=      0 Chk=     15 Scr=      1
 Normal termination of Gaussian 16 at Tue Aug  2 13:25:42 2022.
