 Entering Gaussian System, Link 0=g16
 Initial command:
 /apps/gaussian/g16c01/g16/l1.exe "/jobfs/53803565.gadi-pbs/Gau-1060854.inp" -scrdir="/jobfs/53803565.gadi-pbs/"
 Entering Link 1 = /apps/gaussian/g16c01/g16/l1.exe PID=   1060855.
  
 Copyright (c) 1988-2019, Gaussian, Inc.  All Rights Reserved.
  
 This is part of the Gaussian(R) 16 program.  It is based on
 the Gaussian(R) 09 system (copyright 2009, Gaussian, Inc.),
 the Gaussian(R) 03 system (copyright 2003, Gaussian, Inc.),
 the Gaussian(R) 98 system (copyright 1998, Gaussian, Inc.),
 the Gaussian(R) 94 system (copyright 1995, Gaussian, Inc.),
 the Gaussian 92(TM) system (copyright 1992, Gaussian, Inc.),
 the Gaussian 90(TM) system (copyright 1990, Gaussian, Inc.),
 the Gaussian 88(TM) system (copyright 1988, Gaussian, Inc.),
 the Gaussian 86(TM) system (copyright 1986, Carnegie Mellon
 University), and the Gaussian 82(TM) system (copyright 1983,
 Carnegie Mellon University). Gaussian is a federally registered
 trademark of Gaussian, Inc.
  
 This software contains proprietary and confidential information,
 including trade secrets, belonging to Gaussian, Inc.
  
 This software is provided under written license and may be
 used, copied, transmitted, or stored only in accord with that
 written license.
  
 The following legend is applicable only to US Government
 contracts under FAR:
  
                    RESTRICTED RIGHTS LEGEND
  
 Use, reproduction and disclosure by the US Government is
 subject to restrictions as set forth in subparagraphs (a)
 and (c) of the Commercial Computer Software - Restricted
 Rights clause in FAR 52.227-19.
  
 Gaussian, Inc.
 340 Quinnipiac St., Bldg. 40, Wallingford CT 06492
  
  
 ---------------------------------------------------------------
 Warning -- This program may not be used in any manner that
 competes with the business of Gaussian, Inc. or will provide
 assistance to any competitor of Gaussian, Inc.  The licensee
 of this program is prohibited from giving any competitor of
 Gaussian, Inc. access to this program.  By using this program,
 the user acknowledges that Gaussian, Inc. is engaged in the
 business of creating and licensing software in the field of
 computational chemistry and represents and warrants to the
 licensee that it is not a competitor of Gaussian, Inc. and that
 it will not use this program in any manner prohibited above.
 ---------------------------------------------------------------
  

 Cite this work as:
 Gaussian 16, Revision C.01,
 M. J. Frisch, G. W. Trucks, H. B. Schlegel, G. E. Scuseria, 
 M. A. Robb, J. R. Cheeseman, G. Scalmani, V. Barone, 
 G. A. Petersson, H. Nakatsuji, X. Li, M. Caricato, A. V. Marenich, 
 J. Bloino, B. G. Janesko, R. Gomperts, B. Mennucci, H. P. Hratchian, 
 J. V. Ortiz, A. F. Izmaylov, J. L. Sonnenberg, D. Williams-Young, 
 F. Ding, F. Lipparini, F. Egidi, J. Goings, B. Peng, A. Petrone, 
 T. Henderson, D. Ranasinghe, V. G. Zakrzewski, J. Gao, N. Rega, 
 G. Zheng, W. Liang, M. Hada, M. Ehara, K. Toyota, R. Fukuda, 
 J. Hasegawa, M. Ishida, T. Nakajima, Y. Honda, O. Kitao, H. Nakai, 
 T. Vreven, K. Throssell, J. A. Montgomery, Jr., J. E. Peralta, 
 F. Ogliaro, M. J. Bearpark, J. J. Heyd, E. N. Brothers, K. N. Kudin, 
 V. N. Staroverov, T. A. Keith, R. Kobayashi, J. Normand, 
 K. Raghavachari, A. P. Rendell, J. C. Burant, S. S. Iyengar, 
 J. Tomasi, M. Cossi, J. M. Millam, M. Klene, C. Adamo, R. Cammi, 
 J. W. Ochterski, R. L. Martin, K. Morokuma, O. Farkas, 
 J. B. Foresman, and D. J. Fox, Gaussian, Inc., Wallingford CT, 2019.
 
 ******************************************
 Gaussian 16:  ES64L-G16RevC.01  3-Jul-2019
                 2-Aug-2022 
 ******************************************
 %NProcShared=48
 Will use up to   48 processors via shared memory.
 %mem = 190GB
 ---------------------------------------------------------------
 #n M062X/6-311++G(d,p) TD(NStates=1) EmpiricalDispersion=GD3 SP
 ---------------------------------------------------------------
 1/38=1,172=1/1;
 2/12=2,17=6,18=5,40=1/2;
 3/5=4,6=6,7=1111,11=9,25=1,30=1,74=-55,124=31/1,2,3,8;
 4//1;
 5/5=2,38=5/2;
 8/6=1,10=2,108=1/1;
 9/41=1,42=1,70=2/14;
 6/7=2,8=2,9=2,10=2/1;
 99/5=1,9=1/99;
 ----
 SP_8
 ----
 Symbolic Z-matrix:
 Charge =  1 Multiplicity = 1
 C                     0.        2.31266   1.31643 
 C                     0.        3.53751   0.62799 
 C                     0.        3.64386  -0.81783 
 C                     0.        2.67116  -1.50754 
 C                     0.       -2.25516  -1.30754 
 C                     0.       -3.72386  -0.60983 
 C                     0.       -3.86551   0.71599 
 C                     0.       -2.67266   1.40443 
 C                     0.       -0.048     1.45337 
 C                     0.        0.208    -1.42919 
 C                     0.        1.31006   0.68107 
 C                     0.        1.32547  -0.8148 
 C                     0.       -1.21406   0.67307 
 C                     0.       -1.14947  -0.6468 
 H                     0.        2.34007   2.39965 
 H                     0.        4.44475   1.22369 
 H                     0.        4.65726  -1.22835 
 H                     0.        2.64355  -2.59006 
 H                     0.        0.076    -2.51027 
 H                     0.       -2.29155  -2.39006 
 H                     0.       -4.56126  -1.31635 
 H                     0.       -4.82875   1.19969 
 H                     0.       -2.63607   2.48765 
 H                    -0.85959  -0.256     2.14579 
 H                     0.85959  -0.256     2.14579 
 
                          Input orientation:                          
 ---------------------------------------------------------------------
 Center     Atomic      Atomic             Coordinates (Angstroms)
 Number     Number       Type             X           Y           Z
 ---------------------------------------------------------------------
      1          6           0        0.000000    2.312655    1.316431
      2          6           0        0.000000    3.537508    0.627989
      3          6           0        0.000000    3.643861   -0.817830
      4          6           0        0.000000    2.671156   -1.507538
      5          6           0        0.000000   -2.255156   -1.307538
      6          6           0        0.000000   -3.723861   -0.609830
      7          6           0        0.000000   -3.865508    0.715989
      8          6           0        0.000000   -2.672655    1.404431
      9          6           0        0.000000   -0.048000    1.453369
     10          6           0        0.000000    0.208000   -1.429189
     11          6           0        0.000000    1.310055    0.681065
     12          6           0        0.000000    1.325471   -0.814804
     13          6           0        0.000000   -1.214055    0.673065
     14          6           0        0.000000   -1.149471   -0.646804
     15          1           0        0.000000    2.340071    2.399647
     16          1           0        0.000000    4.444753    1.223689
     17          1           0        0.000000    4.657262   -1.228349
     18          1           0        0.000000    2.643550   -2.590059
     19          1           0        0.000000    0.076000   -2.510266
     20          1           0        0.000000   -2.291550   -2.390059
     21          1           0        0.000000   -4.561262   -1.316349
     22          1           0        0.000000   -4.828753    1.199689
     23          1           0        0.000000   -2.636071    2.487647
     24          1           0       -0.859585   -0.256000    2.145787
     25          1           0        0.859585   -0.256000    2.145787
 ---------------------------------------------------------------------
                    Distance matrix (angstroms):
                    1          2          3          4          5
     1  C    0.000000
     2  C    1.405068   0.000000
     3  C    2.515389   1.449725   0.000000
     4  C    2.846634   2.304570   1.192414   0.000000
     5  C    5.267837   6.107473   5.919309   4.930370   0.000000
     6  C    6.336403   7.366117   7.370657   6.457718   1.626005
     7  C    6.207272   7.403539   7.664413   6.904495   2.586096
     8  C    4.986087   6.258513   6.696030   6.085711   2.743917
     9  C    2.364623   3.679283   4.334534   4.020047   3.534706
    10  C    3.459480   3.913771   3.489828   2.464402   2.466158
    11  C    1.186970   2.228085   2.773686   2.577320   4.082312
    12  C    2.348765   2.640977   2.318392   1.513522   3.614371
    13  C    3.584913   4.751777   5.081547   4.455322   2.237561
    14  C    3.980026   4.857249   4.796382   3.916383   1.288064
    15  H    1.083563   2.138370   3.471603   3.921188   5.904179
    16  H    2.134114   1.085335   2.192995   3.256570   7.162115
    17  H    3.460215   2.167911   1.093393   2.005633   6.912872
    18  H    3.920479   3.339909   2.035047   1.082873   5.063811
    19  H    4.432407   4.672332   3.948920   2.782139   2.623136
    20  H    5.910734   6.564033   6.140115   5.040565   1.083133
    21  H    7.360860   8.328897   8.220253   7.234945   2.306123
    22  H    7.142362   8.385772   8.709510   7.973563   3.592992
    23  H    5.085434   6.447589   7.096740   6.642903   3.814253
    24  H    2.832791   4.175320   4.973010   4.759613   4.081784
    25  H    2.832791   4.175320   4.973010   4.759613   4.081784
                    6          7          8          9         10
     6  C    0.000000
     7  C    1.333364   0.000000
     8  C    2.272065   1.377262   0.000000
     9  C    4.215299   3.888071   2.625111   0.000000
    10  C    4.016327   4.603831   4.040739   2.893903   0.000000
    11  C    5.196799   5.175681   4.047868   1.562295   2.380693
    12  C    5.053491   5.411986   4.572747   2.651609   1.275230
    13  C    2.818678   2.651800   1.631689   1.403053   2.538053
    14  C    2.574656   3.038760   2.554927   2.371490   1.566797
    15  H    6.769655   6.429923   5.110565   2.568721   4.382432
    16  H    8.371860   8.325755   7.119703   4.498620   4.998784
    17  H    8.403915   8.741742   7.788403   5.415820   4.453793
    18  H    6.668225   7.300534   6.649661   4.857340   2.698059
    19  H    4.248600   5.093546   4.783300   3.965574   1.089106
    20  H    2.284892   3.482080   3.813580   4.450332   2.677876
    21  H    1.095632   2.148132   3.312021   5.295363   4.770597
    22  H    2.120176   1.077871   2.165797   4.787479   5.681539
    23  H    3.282933   2.156453   1.083834   2.787085   4.840490
    24  H    4.512025   3.976400   2.669966   1.123207   3.706027
    25  H    4.512025   3.976400   2.669966   1.123207   3.706027
                   11         12         13         14         15
    11  C    0.000000
    12  C    1.495948   0.000000
    13  C    2.524123   2.943288   0.000000
    14  C    2.795086   2.480637   1.321448   0.000000
    15  H    2.003611   3.370773   3.951316   4.632253   0.000000
    16  H    3.181316   3.726308   5.685534   5.898651   2.410926
    17  H    3.853525   3.357358   6.171526   5.835781   4.304849
    18  H    3.532487   2.211077   5.052632   4.261836   4.998926
    19  H    3.421620   2.106127   3.434798   2.230307   5.406779
    20  H    4.733219   3.945158   3.247110   2.084054   6.662822
    21  H    6.201776   5.908060   3.893785   3.476868   7.838177
    22  H    6.160676   6.475543   3.652858   4.116631   7.268558
    23  H    4.340006   5.157519   2.305393   3.469116   4.976920
    24  H    2.310157   3.464828   1.955931   3.055445   2.746437
    25  H    2.310157   3.464828   1.955931   3.055445   2.746437
                   16         17         18         19         20
    16  H    0.000000
    17  H    2.461229   0.000000
    18  H    4.217702   2.430903   0.000000
    19  H    5.747036   4.757234   2.568790   0.000000
    20  H    7.644407   7.045251   4.939151   2.370600   0.000000
    21  H    9.357355   9.218944   7.316533   4.788490   2.510866
    22  H    9.273537   9.791826   8.378395   6.149827   4.395872
    23  H    7.192750   8.185434   7.325128   5.686340   4.889858
    24  H    4.866850   6.021945   5.619120   4.746361   5.045419
    25  H    4.866850   6.021945   5.619120   4.746361   5.045419
                   21         22         23         24         25
    21  H    0.000000
    22  H    2.530217   0.000000
    23  H    4.263420   2.542969   0.000000
    24  H    5.591114   4.748058   2.553526   0.000000
    25  H    5.591114   4.748058   2.553526   1.719170   0.000000
 Stoichiometry    C14H11(1+)
 Framework group  CS[SG(C14H9),X(H2)]
 Deg. of freedom    46
 Full point group                 CS      NOp   2
 Largest Abelian subgroup         CS      NOp   2
 Largest concise Abelian subgroup CS      NOp   2
                         Standard orientation:                         
 ---------------------------------------------------------------------
 Center     Atomic      Atomic             Coordinates (Angstroms)
 Number     Number       Type             X           Y           Z
 ---------------------------------------------------------------------
      1          6           0       -0.010233   -2.662784    0.000000
      2          6           0        1.190941   -3.391755    0.000000
      3          6           0        2.502675   -2.774457    0.000000
      4          6           0        2.625877   -1.588424    0.000000
      5          6           0        0.032664    2.604879    0.000000
      6          6           0       -1.296322    3.541730    0.000000
      7          6           0       -2.520850    3.014102    0.000000
      8          6           0       -2.534849    1.636911    0.000000
      9          6           0       -1.288687   -0.673562    0.000000
     10          6           0        1.348131    0.518859    0.000000
     11          6           0        0.050949   -1.477392    0.000000
     12          6           0        1.361631   -0.756299    0.000000
     13          6           0       -1.181504    0.725391    0.000000
     14          6           0        0.000000    1.317229    0.000000
     15          1           0       -0.940405   -3.218562    0.000000
     16          1           0        1.117490   -4.474601    0.000000
     17          1           0        3.357909   -3.455693    0.000000
     18          1           0        3.555349   -1.032822    0.000000
     19          1           0        2.225085    1.164694    0.000000
     20          1           0        0.957821    3.168138    0.000000
     21          1           0       -1.092036    4.618148    0.000000
     22          1           0       -3.415206    3.615711    0.000000
     23          1           0       -3.460518    1.073146    0.000000
     24          1           0       -1.994015   -0.832366    0.859585
     25          1           0       -1.994015   -0.832366   -0.859585
 ---------------------------------------------------------------------
 Rotational constants (GHZ):           2.1519440           0.4422420           0.3676461
 Standard basis: 6-311++G(d,p) (5D, 7F)
 There are   299 symmetry adapted cartesian basis functions of A'  symmetry.
 There are   100 symmetry adapted cartesian basis functions of A"  symmetry.
 There are   285 symmetry adapted basis functions of A'  symmetry.
 There are   100 symmetry adapted basis functions of A"  symmetry.
   385 basis functions,   603 primitive gaussians,   399 cartesian basis functions
    47 alpha electrons       47 beta electrons
       nuclear repulsion energy       783.1522353366 Hartrees.
 NAtoms=   25 NActive=   25 NUniq=   24 SFac= 1.09D+00 NAtFMM=   60 NAOKFM=F Big=F
 Integral buffers will be    131072 words long.
 Regular integral format.
 Two-electron integral symmetry is turned on.
 Nuclear repulsion after empirical dispersion term =      783.1512657286 Hartrees.
 One-electron integrals computed using PRISM.
 NBasis=   385 RedAO= T EigKep=  1.21D-06  NBF=   285   100
 NBsUse=   379 1.00D-06 EigRej=  7.73D-07 NBFU=   279   100
 ExpMin= 3.60D-02 ExpMax= 4.56D+03 ExpMxC= 6.82D+02 IAcc=3 IRadAn=         5 AccDes= 0.00D+00
 Harris functional with IExCor= 1009 and IRadAn=       5 diagonalized for initial guess.
 HarFok:  IExCor= 1009 AccDes= 0.00D+00 IRadAn=         5 IDoV= 1 UseB2=F ITyADJ=14
 ICtDFT=  3500011 ScaDFX=  1.000000  1.000000  1.000000  1.000000
 FoFCou: FMM=F IPFlag=           0 FMFlag=      100000 FMFlg1=           0
         NFxFlg=           0 DoJE=T BraDBF=F KetDBF=T FulRan=T
         wScrn=  0.000000 ICntrl=       500 IOpCl=  0 I1Cent=   200000004 NGrid=           0
         NMat0=    1 NMatS0=      1 NMatT0=    0 NMatD0=    1 NMtDS0=    0 NMtDT0=    0
 Petite list used in FoFCou.
 Initial guess orbital symmetries:
       Occupied  (A') (A') (A') (A') (A') (A') (A') (A') (A') (A')
                 (A') (A') (A') (A') (A') (A') (A') (A') (A') (A')
                 (A') (A') (A') (A') (A') (A') (A') (A') (A') (A')
                 (A') (A') (A") (A') (A') (A') (A') (A") (A') (A')
                 (A") (A') (A") (A") (A') (A") (A")
       Virtual   (A") (A") (A") (A") (A") (A') (A') (A') (A') (A')
                 (A") (A') (A") (A') (A') (A') (A") (A') (A') (A')
                 (A') (A") (A') (A') (A") (A') (A") (A') (A') (A")
                 (A') (A') (A') (A') (A") (A') (A') (A') (A") (A')
                 (A") (A') (A') (A") (A') (A') (A') (A') (A') (A")
                 (A') (A") (A') (A") (A') (A') (A") (A') (A') (A")
                 (A') (A') (A') (A') (A') (A") (A') (A') (A') (A")
                 (A') (A') (A') (A') (A') (A') (A') (A') (A') (A')
                 (A') (A') (A') (A') (A') (A') (A') (A') (A') (A')
                 (A') (A') (A') (A') (A") (A') (A') (A") (A') (A')
                 (A") (A') (A") (A') (A') (A") (A") (A') (A") (A')
                 (A") (A') (A") (A') (A") (A') (A') (A") (A') (A")
                 (A") (A') (A') (A") (A') (A') (A') (A") (A') (A')
                 (A') (A') (A') (A') (A') (A') (A') (A") (A') (A')
                 (A') (A') (A') (A') (A') (A') (A") (A') (A') (A')
                 (A") (A') (A") (A') (A') (A") (A') (A") (A') (A")
                 (A') (A") (A") (A') (A") (A") (A') (A') (A') (A')
                 (A") (A') (A') (A') (A') (A') (A') (A") (A') (A")
                 (A') (A') (A") (A") (A') (A') (A") (A') (A") (A')
                 (A") (A') (A') (A') (A") (A') (A") (A') (A') (A")
                 (A') (A") (A") (A') (A") (A') (A") (A') (A') (A")
                 (A') (A') (A') (A') (A") (A") (A') (A') (A") (A')
                 (A") (A') (A') (A') (A") (A') (A') (A") (A') (A')
                 (A") (A') (A") (A') (A') (A') (A") (A') (A") (A')
                 (A") (A') (A') (A') (A") (A') (A') (A') (A') (A')
                 (A") (A') (A') (A") (A") (A') (A") (A') (A') (A')
                 (A") (A') (A") (A') (A') (A') (A') (A") (A') (A')
                 (A") (A') (A') (A') (A") (A") (A') (A') (A") (A")
                 (A') (A') (A") (A') (A") (A') (A") (A') (A') (A')
                 (A') (A') (A') (A') (A') (A') (A') (A') (A') (A')
                 (A') (A') (A') (A") (A') (A') (A') (A') (A') (A')
                 (A') (A') (A') (A') (A') (A') (A') (A') (A') (A')
                 (A') (A') (A') (A') (A') (A') (A') (A') (A') (A')
                 (A') (A')
 The electronic state of the initial guess is 1-A'.
 Requested convergence on RMS density matrix=1.00D-08 within 128 cycles.
 Requested convergence on MAX density matrix=1.00D-06.
 Requested convergence on             energy=1.00D-06.
 No special actions if energy rises.
 SCF Done:  E(RM062X) =  -539.529498616     A.U. after   16 cycles
            NFock= 16  Conv=0.63D-08     -V/T= 2.0019
 DoSCS=F DFT=T ScalE2(SS,OS)=  1.000000  1.000000
 ExpMin= 3.60D-02 ExpMax= 4.56D+03 ExpMxC= 6.82D+02 IAcc=3 IRadAn=         5 AccDes= 0.00D+00
 HarFok:  IExCor=  205 AccDes= 0.00D+00 IRadAn=         5 IDoV=-2 UseB2=F ITyADJ=14
 ICtDFT= 12500011 ScaDFX=  1.000000  1.000000  1.000000  1.000000
 Range of M.O.s used for correlation:    15   379
 NBasis=   385 NAE=    47 NBE=    47 NFC=    14 NFV=     0
 NROrb=    365 NOA=    33 NOB=    33 NVA=   332 NVB=   332

 **** Warning!!: The largest alpha MO coefficient is  0.18280297D+03

 Orbital symmetries:
       Occupied  (A') (A') (A') (A') (A') (A') (A') (A') (A') (A')
                 (A') (A') (A') (A') (A') (A') (A') (A') (A') (A')
                 (A') (A') (A') (A') (A') (A') (A') (A') (A') (A')
                 (A') (A") (A') (A') (A') (A") (A') (A') (A") (A')
                 (A') (A') (A") (A") (A') (A") (A")
       Virtual   (A") (A") (A") (A") (A') (A') (A') (A') (A') (A")
                 (A') (A") (A') (A") (A') (A') (A") (A') (A') (A')
                 (A") (A") (A') (A') (A') (A') (A') (A") (A') (A")
                 (A') (A") (A') (A') (A") (A') (A') (A') (A') (A")
                 (A") (A') (A') (A') (A") (A") (A') (A") (A') (A')
                 (A') (A') (A") (A') (A') (A') (A") (A') (A') (A')
                 (A') (A") (A') (A') (A') (A') (A") (A') (A') (A')
                 (A') (A') (A') (A') (A') (A') (A') (A') (A') (A')
                 (A') (A') (A') (A') (A') (A') (A') (A') (A') (A')
                 (A') (A") (A') (A') (A') (A") (A') (A") (A') (A')
                 (A") (A') (A') (A") (A') (A') (A") (A") (A') (A')
                 (A") (A') (A") (A') (A") (A") (A') (A') (A") (A")
                 (A') (A') (A') (A") (A") (A') (A') (A') (A') (A')
                 (A') (A') (A') (A') (A') (A') (A') (A') (A') (A')
                 (A') (A') (A') (A') (A") (A') (A') (A') (A') (A")
                 (A') (A') (A') (A') (A") (A') (A") (A") (A') (A")
                 (A') (A") (A") (A') (A') (A") (A") (A') (A") (A')
                 (A") (A') (A') (A') (A') (A') (A') (A") (A") (A')
                 (A') (A') (A') (A") (A") (A') (A") (A') (A") (A")
                 (A') (A') (A') (A") (A') (A") (A') (A') (A') (A")
                 (A') (A") (A") (A') (A") (A') (A') (A") (A') (A')
                 (A") (A') (A') (A') (A") (A") (A') (A') (A") (A')
                 (A") (A') (A') (A') (A") (A') (A') (A") (A') (A")
                 (A') (A') (A') (A") (A') (A') (A") (A') (A") (A")
                 (A') (A') (A') (A") (A') (A') (A') (A') (A') (A')
                 (A") (A') (A') (A') (A') (A") (A') (A") (A') (A")
                 (A') (A') (A') (A') (A') (A") (A') (A') (A') (A')
                 (A') (A") (A') (A") (A") (A') (A") (A") (A') (A")
                 (A') (A") (A") (A') (A") (A') (A") (A') (A') (A')
                 (A') (A') (A') (A') (A') (A') (A') (A') (A') (A')
                 (A') (A') (A") (A') (A') (A') (A') (A') (A') (A')
                 (A') (A') (A') (A') (A') (A') (A') (A') (A') (A')
                 (A') (A') (A') (A') (A') (A') (A') (A') (A') (A')
                 (A') (A')
     4 initial guesses have been made.
 Convergence on wavefunction:    0.001000000000000
 Iteration     1 Dimension     4 NMult     0 NNew      4
 CISAX will form     4 AO SS matrices at one time.
 Iteration     2 Dimension     6 NMult     4 NNew      2
 Iteration     3 Dimension     8 NMult     6 NNew      2
 Iteration     4 Dimension    10 NMult     8 NNew      2
 Iteration     5 Dimension    12 NMult    10 NNew      2
 Iteration     6 Dimension    14 NMult    12 NNew      2
 ***********************************************************************
 Excited states from <AA,BB:AA,BB> singles matrix:
 ***********************************************************************
 
 Ground to excited state transition densities written to RWF  633
 Ground to excited state transition electric dipole moments (Au):
       state          X           Y           Z        Dip. S.      Osc.
         1        -0.6277      0.5025      0.0000      0.6465      0.0221
 Ground to excited state transition velocity dipole moments (Au):
       state          X           Y           Z        Dip. S.      Osc.
         1         0.0333     -0.0193     -0.0000      0.0015      0.0194
 Ground to excited state transition magnetic dipole moments (Au):
       state          X           Y           Z
         1        -0.0000     -0.0000      0.2049
 Ground to excited state transition velocity quadrupole moments (Au):
       state          XX          YY          ZZ          XY          XZ          YZ
         1        -0.0221      0.0832     -0.0038     -0.0197      0.0000      0.0000
 <0|del|b> * <b|rxdel|0> + <0|del|b> * <b|delr+rdel|0>
 Rotatory Strengths (R) in cgs (10**-40 erg-esu-cm/Gauss)
       state          XX          YY          ZZ    R(velocity)    E-M Angle
         1         0.0000     -0.0000     -0.0000     -0.0000       90.00
 1/2[<0|r|b>*<b|rxdel|0> + (<0|rxdel|b>*<b|r|0>)*]
 Rotatory Strengths (R) in cgs (10**-40 erg-esu-cm/Gauss)
       state          XX          YY          ZZ     R(length)
         1        -0.0000      0.0000     -0.0000      0.0000
  1/2[<0|del|b>*<b|r|0> + (<0|r|b>*<b|del|0>)*] (Au)
       state          X           Y           Z        Dip. S.   Osc.(frdel)
         1        -0.0209     -0.0097     -0.0000      0.0306      0.0204

 Excitation energies and oscillator strengths:
 
 Excited State   1:      Singlet-A'     1.3923 eV  890.51 nm  f=0.0221  <S**2>=0.000
      47 -> 48         0.70365
 This state for optimization and/or second-order correction.
 Total Energy, E(TD-HF/TD-DFT) =  -539.478333197    
 Copying the excited state density for this state as the 1-particle RhoCI density.
 SavETr:  write IOETrn=   770 NScale= 10 NData=  16 NLR=1 NState=    1 LETran=      28.

 **********************************************************************

            Population analysis using the SCF Density.

 **********************************************************************

 Orbital symmetries:
       Occupied  (A') (A') (A') (A') (A') (A') (A') (A') (A') (A')
                 (A') (A') (A') (A') (A') (A') (A') (A') (A') (A')
                 (A') (A') (A') (A') (A') (A') (A') (A') (A') (A')
                 (A') (A") (A') (A') (A') (A") (A') (A') (A") (A')
                 (A') (A') (A") (A") (A') (A") (A")
       Virtual   (A") (A") (A") (A") (A') (A') (A') (A') (A') (A")
                 (A') (A") (A') (A") (A') (A') (A") (A') (A') (A')
                 (A") (A") (A') (A') (A') (A') (A') (A") (A') (A")
                 (A') (A") (A') (A') (A") (A') (A') (A') (A') (A")
                 (A") (A') (A') (A') (A") (A") (A') (A") (A') (A')
                 (A') (A') (A") (A') (A') (A') (A") (A') (A') (A')
                 (A') (A") (A') (A') (A') (A') (A") (A') (A') (A')
                 (A') (A') (A') (A') (A') (A') (A') (A') (A') (A')
                 (A') (A') (A') (A') (A') (A') (A') (A') (A') (A')
                 (A') (A") (A') (A') (A') (A") (A') (A") (A') (A')
                 (A") (A') (A') (A") (A') (A') (A") (A") (A') (A')
                 (A") (A') (A") (A') (A") (A") (A') (A') (A") (A")
                 (A') (A') (A') (A") (A") (A') (A') (A') (A') (A')
                 (A') (A') (A') (A') (A') (A') (A') (A') (A') (A')
                 (A') (A') (A') (A') (A") (A') (A') (A') (A') (A")
                 (A') (A') (A') (A') (A") (A') (A") (A") (A') (A")
                 (A') (A") (A") (A') (A') (A") (A") (A') (A") (A')
                 (A") (A') (A') (A') (A') (A') (A') (A") (A") (A')
                 (A') (A') (A') (A") (A") (A') (A") (A') (A") (A")
                 (A') (A') (A') (A") (A') (A") (A') (A') (A') (A")
                 (A') (A") (A") (A') (A") (A') (A') (A") (A') (A')
                 (A") (A') (A') (A') (A") (A") (A') (A') (A") (A')
                 (A") (A') (A') (A') (A") (A') (A') (A") (A') (A")
                 (A') (A') (A') (A") (A') (A') (A") (A') (A") (A")
                 (A') (A') (A') (A") (A') (A') (A') (A') (A') (A')
                 (A") (A') (A') (A') (A') (A") (A') (A") (A') (A")
                 (A') (A') (A') (A') (A') (A") (A') (A') (A') (A')
                 (A') (A") (A') (A") (A") (A') (A") (A") (A') (A")
                 (A') (A") (A") (A') (A") (A') (A") (A') (A') (A')
                 (A') (A') (A') (A') (A') (A') (A') (A') (A') (A')
                 (A') (A') (A") (A') (A') (A') (A') (A') (A') (A')
                 (A') (A') (A') (A') (A') (A') (A') (A') (A') (A')
                 (A') (A') (A') (A') (A') (A') (A') (A') (A') (A')
                 (A') (A')
 The electronic state is 1-A'.
 Alpha  occ. eigenvalues --  -10.77193 -10.75084 -10.74705 -10.73314 -10.72761
 Alpha  occ. eigenvalues --  -10.70937 -10.70766 -10.70532 -10.70440 -10.69298
 Alpha  occ. eigenvalues --  -10.68956 -10.68261 -10.68164 -10.66909  -1.19137
 Alpha  occ. eigenvalues --   -1.12765  -1.09769  -1.06702  -1.02574  -1.01002
 Alpha  occ. eigenvalues --   -0.95296  -0.89312  -0.86555  -0.85132  -0.83304
 Alpha  occ. eigenvalues --   -0.77743  -0.76878  -0.74493  -0.72085  -0.69440
 Alpha  occ. eigenvalues --   -0.68896  -0.68377  -0.66756  -0.65419  -0.63731
 Alpha  occ. eigenvalues --   -0.62994  -0.62623  -0.60633  -0.57687  -0.57242
 Alpha  occ. eigenvalues --   -0.55579  -0.54818  -0.53466  -0.52362  -0.50367
 Alpha  occ. eigenvalues --   -0.46731  -0.38418
 Alpha virt. eigenvalues --   -0.26846  -0.14934  -0.12942  -0.11544  -0.11530
 Alpha virt. eigenvalues --   -0.10260  -0.09708  -0.07804  -0.07656  -0.07595
 Alpha virt. eigenvalues --   -0.07318  -0.06403  -0.05775  -0.05623  -0.05461
 Alpha virt. eigenvalues --   -0.04241  -0.03975  -0.03280  -0.03153  -0.02043
 Alpha virt. eigenvalues --   -0.01549  -0.00903  -0.00209   0.00135   0.00670
 Alpha virt. eigenvalues --    0.00910   0.01279   0.01290   0.01900   0.02001
 Alpha virt. eigenvalues --    0.02334   0.02604   0.02936   0.03168   0.03737
 Alpha virt. eigenvalues --    0.03799   0.04191   0.04983   0.05207   0.05384
 Alpha virt. eigenvalues --    0.05844   0.06027   0.06247   0.06726   0.07378
 Alpha virt. eigenvalues --    0.07508   0.07594   0.07749   0.08322   0.08483
 Alpha virt. eigenvalues --    0.08734   0.09429   0.09790   0.09956   0.10166
 Alpha virt. eigenvalues --    0.11142   0.11337   0.11510   0.12188   0.12518
 Alpha virt. eigenvalues --    0.13210   0.13258   0.13413   0.13947   0.14117
 Alpha virt. eigenvalues --    0.15020   0.16504   0.16548   0.17066   0.17428
 Alpha virt. eigenvalues --    0.18289   0.18910   0.19470   0.20172   0.20672
 Alpha virt. eigenvalues --    0.21281   0.22240   0.23006   0.23312   0.24211
 Alpha virt. eigenvalues --    0.24916   0.25642   0.26321   0.27083   0.27767
 Alpha virt. eigenvalues --    0.29284   0.30029   0.31367   0.31879   0.35358
 Alpha virt. eigenvalues --    0.38082   0.38645   0.38783   0.39187   0.39999
 Alpha virt. eigenvalues --    0.40058   0.41833   0.43206   0.43653   0.43911
 Alpha virt. eigenvalues --    0.44695   0.45262   0.45432   0.46635   0.47107
 Alpha virt. eigenvalues --    0.47603   0.47836   0.48952   0.50568   0.51109
 Alpha virt. eigenvalues --    0.51698   0.52183   0.52703   0.53672   0.54610
 Alpha virt. eigenvalues --    0.54972   0.55497   0.56885   0.58440   0.58576
 Alpha virt. eigenvalues --    0.58932   0.61251   0.62200   0.62508   0.62942
 Alpha virt. eigenvalues --    0.64058   0.64326   0.65682   0.66684   0.67945
 Alpha virt. eigenvalues --    0.70216   0.71470   0.72742   0.73198   0.74341
 Alpha virt. eigenvalues --    0.74772   0.75538   0.76526   0.77332   0.77899
 Alpha virt. eigenvalues --    0.79016   0.79380   0.79591   0.80471   0.80966
 Alpha virt. eigenvalues --    0.82069   0.82635   0.84431   0.84707   0.84740
 Alpha virt. eigenvalues --    0.85650   0.89467   0.90661   0.90948   0.91382
 Alpha virt. eigenvalues --    0.93186   0.94173   0.95425   0.96671   0.96863
 Alpha virt. eigenvalues --    0.97027   0.99546   1.01733   1.01859   1.03314
 Alpha virt. eigenvalues --    1.04969   1.05688   1.06617   1.06994   1.12034
 Alpha virt. eigenvalues --    1.17073   1.17609   1.19797   1.22102   1.29081
 Alpha virt. eigenvalues --    1.30438   1.33894   1.34859   1.35621   1.36133
 Alpha virt. eigenvalues --    1.37726   1.38012   1.41153   1.41180   1.41831
 Alpha virt. eigenvalues --    1.44906   1.45569   1.46431   1.47139   1.49076
 Alpha virt. eigenvalues --    1.50370   1.52953   1.53582   1.54637   1.56437
 Alpha virt. eigenvalues --    1.56559   1.56933   1.57925   1.58831   1.60017
 Alpha virt. eigenvalues --    1.62934   1.64188   1.65530   1.66773   1.67935
 Alpha virt. eigenvalues --    1.69157   1.69790   1.70960   1.75093   1.75736
 Alpha virt. eigenvalues --    1.76381   1.77332   1.77500   1.80624   1.81100
 Alpha virt. eigenvalues --    1.83011   1.83279   1.83316   1.84890   1.85463
 Alpha virt. eigenvalues --    1.86513   1.87592   1.89063   1.90005   1.93620
 Alpha virt. eigenvalues --    1.94040   1.96195   1.99086   1.99091   2.00994
 Alpha virt. eigenvalues --    2.01643   2.03401   2.08400   2.08950   2.12467
 Alpha virt. eigenvalues --    2.14823   2.16491   2.17852   2.19645   2.22581
 Alpha virt. eigenvalues --    2.22965   2.27510   2.31169   2.31860   2.32693
 Alpha virt. eigenvalues --    2.36376   2.38705   2.39575   2.41532   2.42230
 Alpha virt. eigenvalues --    2.44642   2.46096   2.49139   2.52996   2.55350
 Alpha virt. eigenvalues --    2.55955   2.58025   2.58227   2.59294   2.60426
 Alpha virt. eigenvalues --    2.60527   2.61684   2.62931   2.63011   2.64583
 Alpha virt. eigenvalues --    2.64980   2.65656   2.66380   2.66658   2.67284
 Alpha virt. eigenvalues --    2.69796   2.69918   2.70787   2.74149   2.75126
 Alpha virt. eigenvalues --    2.75337   2.76076   2.78856   2.84213   2.85038
 Alpha virt. eigenvalues --    2.86949   2.87650   2.92804   2.93411   2.98993
 Alpha virt. eigenvalues --    3.00714   3.01294   3.01471   3.05328   3.09542
 Alpha virt. eigenvalues --    3.11230   3.16579   3.24069   3.28916   3.31174
 Alpha virt. eigenvalues --    3.33507   3.39346   3.40766   3.49088   3.54710
 Alpha virt. eigenvalues --    3.57182   3.60313   3.62522   3.63944   3.72250
 Alpha virt. eigenvalues --    3.74576   3.86257   3.87543   3.88878   3.94601
 Alpha virt. eigenvalues --    4.00686   4.02126   4.07990   4.12734   4.28380
 Alpha virt. eigenvalues --    4.45740   4.56432   4.57887  23.42209  23.51513
 Alpha virt. eigenvalues --   23.59324  23.60917  23.62120  23.86778  23.92766
 Alpha virt. eigenvalues --   23.94846  24.11896  24.24232  24.36251  24.42015
 Alpha virt. eigenvalues --   24.78883  24.82408
          Condensed to atoms (all electrons):
               1          2          3          4          5          6
     1  C    7.715306   0.642097  -0.842969   1.151680   0.143673  -0.045730
     2  C    0.642097   8.676196   0.452656  -1.146422  -0.071933  -0.011980
     3  C   -0.842969   0.452656   6.960034   0.123517  -0.093576   0.022901
     4  C    1.151680  -1.146422   0.123517  14.093006  -0.156905  -0.272590
     5  C    0.143673  -0.071933  -0.093576  -0.156905   8.829709   1.047992
     6  C   -0.045730  -0.011980   0.022901  -0.272590   1.047992   7.773725
     7  C   -0.111437  -0.029364  -0.004324   0.182969  -1.409134  -1.336087
     8  C    0.499353   0.064700  -0.117886  -0.203719   2.401807   0.835868
     9  C   -1.088374  -1.848609   0.244701   1.128481  -1.159642   0.392278
    10  C   -0.801406  -0.106067   0.342342  -2.686673  -1.525797  -1.172989
    11  C    0.626819  -0.809351   0.681013  -1.437084  -1.281812   0.347489
    12  C   -1.218667   1.104760  -1.611454  -2.088017   0.378817  -0.866111
    13  C    0.141187  -0.340504  -0.316976  -0.889627  -0.912256   1.541398
    14  C   -1.368329  -0.478980   0.268069  -2.188069  -0.583339  -2.107723
    15  H    0.383399  -0.119796   0.002504   0.011884   0.005788   0.003052
    16  H   -0.020951   0.392804  -0.045816   0.037038  -0.001233  -0.000574
    17  H   -0.012927  -0.032574   0.413133  -0.079529  -0.000788   0.000573
    18  H    0.037226   0.004383  -0.077483   0.580761   0.009652  -0.006255
    19  H   -0.019940  -0.012376   0.051612  -0.216484  -0.026076   0.076616
    20  H    0.006238   0.003387  -0.008472   0.025415   0.442720  -0.122192
    21  H   -0.000752  -0.000318   0.000284  -0.001902  -0.032047   0.336710
    22  H   -0.000528  -0.000003  -0.000129   0.000216  -0.010287  -0.002916
    23  H    0.013820   0.001599   0.000071  -0.003995   0.027218   0.027292
    24  H    0.050133   0.019589   0.000144  -0.005874  -0.014888  -0.006107
    25  H    0.050133   0.019589   0.000144  -0.005874  -0.014888  -0.006107
               7          8          9         10         11         12
     1  C   -0.111437   0.499353  -1.088374  -0.801406   0.626819  -1.218667
     2  C   -0.029364   0.064700  -1.848609  -0.106067  -0.809351   1.104760
     3  C   -0.004324  -0.117886   0.244701   0.342342   0.681013  -1.611454
     4  C    0.182969  -0.203719   1.128481  -2.686673  -1.437084  -2.088017
     5  C   -1.409134   2.401807  -1.159642  -1.525797  -1.281812   0.378817
     6  C   -1.336087   0.835868   0.392278  -1.172989   0.347489  -0.866111
     7  C    8.558897  -1.934697  -0.580305   0.859783  -0.790923   0.580004
     8  C   -1.934697  10.516277  -1.326166  -1.245616   0.440961  -0.752181
     9  C   -0.580305  -1.326166  10.584745   0.152912   1.237893  -2.740765
    10  C    0.859783  -1.245616   0.152912   8.813523   0.011125   1.984927
    11  C   -0.790923   0.440961   1.237893   0.011125  16.417531  -5.385231
    12  C    0.580004  -0.752181  -2.740765   1.984927  -5.385231  18.026722
    13  C   -0.822529  -0.411484   1.067758  -0.923915   0.084268  -3.101350
    14  C    2.987930  -3.139836  -0.526027   1.895948  -3.686848   1.389774
    15  H   -0.004366  -0.002947   0.079889   0.007161  -0.033326   0.016485
    16  H    0.000309   0.002949  -0.009965  -0.019072   0.015602  -0.009334
    17  H   -0.000177  -0.001820   0.001012   0.015463   0.013466   0.026840
    18  H    0.002336   0.005086  -0.006008  -0.030089  -0.010995  -0.072937
    19  H   -0.015380  -0.039878   0.051502   0.384075   0.136661  -0.193547
    20  H    0.018181   0.053583  -0.037430   0.075685  -0.029331   0.056159
    21  H    0.030196  -0.049041  -0.004167   0.007051  -0.001722  -0.003229
    22  H    0.358830  -0.023048   0.002424   0.000220  -0.004289   0.000158
    23  H   -0.112599   0.376452   0.081064  -0.018304   0.035364  -0.012145
    24  H    0.009810   0.000033   0.362810   0.009820   0.039454  -0.047590
    25  H    0.009810   0.000033   0.362810   0.009820   0.039454  -0.047590
              13         14         15         16         17         18
     1  C    0.141187  -1.368329   0.383399  -0.020951  -0.012927   0.037226
     2  C   -0.340504  -0.478980  -0.119796   0.392804  -0.032574   0.004383
     3  C   -0.316976   0.268069   0.002504  -0.045816   0.413133  -0.077483
     4  C   -0.889627  -2.188069   0.011884   0.037038  -0.079529   0.580761
     5  C   -0.912256  -0.583339   0.005788  -0.001233  -0.000788   0.009652
     6  C    1.541398  -2.107723   0.003052  -0.000574   0.000573  -0.006255
     7  C   -0.822529   2.987930  -0.004366   0.000309  -0.000177   0.002336
     8  C   -0.411484  -3.139836  -0.002947   0.002949  -0.001820   0.005086
     9  C    1.067758  -0.526027   0.079889  -0.009965   0.001012  -0.006008
    10  C   -0.923915   1.895948   0.007161  -0.019072   0.015463  -0.030089
    11  C    0.084268  -3.686848  -0.033326   0.015602   0.013466  -0.010995
    12  C   -3.101350   1.389774   0.016485  -0.009334   0.026840  -0.072937
    13  C   11.586367  -0.354559  -0.023141   0.007191  -0.007186  -0.007078
    14  C   -0.354559  13.368244   0.009324  -0.017616   0.006019  -0.085494
    15  H   -0.023141   0.009324   0.424114  -0.007266   0.002025  -0.000069
    16  H    0.007191  -0.017616  -0.007266   0.396802  -0.007136   0.002697
    17  H   -0.007186   0.006019   0.002025  -0.007136   0.409741  -0.011019
    18  H   -0.007078  -0.085494  -0.000069   0.002697  -0.011019   0.431885
    19  H    0.110173   0.083302   0.001298  -0.000858   0.003407  -0.009281
    20  H   -0.043197  -0.116205  -0.000353   0.000085  -0.000336   0.001908
    21  H   -0.009552   0.074528   0.000053  -0.000008   0.000009  -0.000085
    22  H    0.025824  -0.006401  -0.000167   0.000005  -0.000003   0.000005
    23  H   -0.050816  -0.054862   0.000487  -0.000083  -0.000015  -0.000068
    24  H   -0.042369  -0.039287  -0.001548   0.000564  -0.000055   0.000056
    25  H   -0.042369  -0.039287  -0.001548   0.000564  -0.000055   0.000056
              19         20         21         22         23         24
     1  C   -0.019940   0.006238  -0.000752  -0.000528   0.013820   0.050133
     2  C   -0.012376   0.003387  -0.000318  -0.000003   0.001599   0.019589
     3  C    0.051612  -0.008472   0.000284  -0.000129   0.000071   0.000144
     4  C   -0.216484   0.025415  -0.001902   0.000216  -0.003995  -0.005874
     5  C   -0.026076   0.442720  -0.032047  -0.010287   0.027218  -0.014888
     6  C    0.076616  -0.122192   0.336710  -0.002916   0.027292  -0.006107
     7  C   -0.015380   0.018181   0.030196   0.358830  -0.112599   0.009810
     8  C   -0.039878   0.053583  -0.049041  -0.023048   0.376452   0.000033
     9  C    0.051502  -0.037430  -0.004167   0.002424   0.081064   0.362810
    10  C    0.384075   0.075685   0.007051   0.000220  -0.018304   0.009820
    11  C    0.136661  -0.029331  -0.001722  -0.004289   0.035364   0.039454
    12  C   -0.193547   0.056159  -0.003229   0.000158  -0.012145  -0.047590
    13  C    0.110173  -0.043197  -0.009552   0.025824  -0.050816  -0.042369
    14  C    0.083302  -0.116205   0.074528  -0.006401  -0.054862  -0.039287
    15  H    0.001298  -0.000353   0.000053  -0.000167   0.000487  -0.001548
    16  H   -0.000858   0.000085  -0.000008   0.000005  -0.000083   0.000564
    17  H    0.003407  -0.000336   0.000009  -0.000003  -0.000015  -0.000055
    18  H   -0.009281   0.001908  -0.000085   0.000005  -0.000068   0.000056
    19  H    0.472243  -0.012933   0.000579  -0.000354   0.000109   0.000538
    20  H   -0.012933   0.490937  -0.007778   0.001747  -0.000997   0.000521
    21  H    0.000579  -0.007778   0.423893  -0.002524   0.000708  -0.000219
    22  H   -0.000354   0.001747  -0.002524   0.431625  -0.006967   0.000779
    23  H    0.000109  -0.000997   0.000708  -0.006967   0.464147  -0.000186
    24  H    0.000538   0.000521  -0.000219   0.000779  -0.000186   0.479796
    25  H    0.000538   0.000521  -0.000219   0.000779  -0.000186  -0.070126
              25
     1  C    0.050133
     2  C    0.019589
     3  C    0.000144
     4  C   -0.005874
     5  C   -0.014888
     6  C   -0.006107
     7  C    0.009810
     8  C    0.000033
     9  C    0.362810
    10  C    0.009820
    11  C    0.039454
    12  C   -0.047590
    13  C   -0.042369
    14  C   -0.039287
    15  H   -0.001548
    16  H    0.000564
    17  H   -0.000055
    18  H    0.000056
    19  H    0.000538
    20  H    0.000521
    21  H   -0.000219
    22  H    0.000779
    23  H   -0.000186
    24  H   -0.070126
    25  H    0.479796
 Mulliken charges:
               1
     1  C    0.070947
     2  C   -0.373483
     3  C   -0.444041
     4  C    0.047797
     5  C    0.007228
     6  C   -0.448530
     7  C   -0.447733
     8  C    0.051217
     9  C   -0.422821
    10  C   -0.039928
    11  C   -0.656187
    12  C    0.585506
    13  C   -0.265256
    14  C    0.709724
    15  H    0.247064
    16  H    0.283305
    17  H    0.261934
    18  H    0.240811
    19  H    0.174455
    20  H    0.202136
    21  H    0.239553
    22  H    0.235006
    23  H    0.232893
    24  H    0.254201
    25  H    0.254201
 Sum of Mulliken charges =   1.00000
 Mulliken charges with hydrogens summed into heavy atoms:
               1
     1  C    0.318011
     2  C   -0.090178
     3  C   -0.182106
     4  C    0.288608
     5  C    0.209364
     6  C   -0.208977
     7  C   -0.212727
     8  C    0.284110
     9  C    0.085581
    10  C    0.134526
    11  C   -0.656187
    12  C    0.585506
    13  C   -0.265256
    14  C    0.709724
 Electronic spatial extent (au):  <R**2>=           2862.0277
 Charge=              1.0000 electrons
 Dipole moment (field-independent basis, Debye):
    X=              2.3296    Y=             -4.6444    Z=             -0.0000  Tot=              5.1959
 Quadrupole moment (field-independent basis, Debye-Ang):
   XX=            -48.0657   YY=            -36.5520   ZZ=            -83.7209
   XY=            -13.2462   XZ=              0.0000   YZ=             -0.0000
 Traceless Quadrupole moment (field-independent basis, Debye-Ang):
   XX=              8.0471   YY=             19.5609   ZZ=            -27.6080
   XY=            -13.2462   XZ=              0.0000   YZ=             -0.0000
 Octapole moment (field-independent basis, Debye-Ang**2):
  XXX=             18.9765  YYY=            -51.6449  ZZZ=              0.0000  XYY=             12.7731
  XXY=             -7.7649  XXZ=              0.0000  XZZ=              1.4058  YZZ=             -8.8105
  YYZ=             -0.0000  XYZ=             -0.0000
 Hexadecapole moment (field-independent basis, Debye-Ang**3):
 XXXX=          -1099.3470 YYYY=          -1727.2349 ZZZZ=            -98.5770 XXXY=            370.0015
 XXXZ=              0.0000 YYYX=            302.4111 YYYZ=              0.0000 ZZZX=              0.0000
 ZZZY=             -0.0000 XXYY=           -442.7598 XXZZ=           -271.1449 YYZZ=           -463.1584
 XXYZ=              0.0000 YYXZ=              0.0000 ZZXY=            200.0624
 N-N= 7.831512657286D+02 E-N=-2.803272331395D+03  KE= 5.385298682221D+02
 Symmetry A'   KE= 5.236412417190D+02
 Symmetry A"   KE= 1.488862650311D+01
 Unable to Open any file for archive entry.
 1\1\GINC-GADI-CPU-CLX-0240\SP\RM062X TD-FC\6-311++G(d,p)\C14H11(1+)\TS
 1578\02-Aug-2022\0\\#n M062X/6-311++G(d,p) TD(NStates=1) EmpiricalDisp
 ersion=GD3 SP\\SP_8\\1,1\C,0,0.,2.312655,1.316431\C,0,0.,3.537508,0.62
 7989\C,0,0.,3.643861,-0.81783\C,0,0.,2.671156,-1.507538\C,0,0.,-2.2551
 56,-1.307538\C,0,0.,-3.723861,-0.60983\C,0,0.,-3.865508,0.715989\C,0,0
 .,-2.672655,1.404431\C,0,0.,-0.048,1.453369\C,0,0.,0.208,-1.429189\C,0
 ,0.,1.310055,0.681065\C,0,0.,1.325471,-0.814804\C,0,0.,-1.214055,0.673
 065\C,0,0.,-1.149471,-0.646804\H,0,0.,2.340071,2.399647\H,0,0.,4.44475
 3,1.223689\H,0,0.,4.657262,-1.228349\H,0,0.,2.64355,-2.590059\H,0,0.,0
 .076,-2.510266\H,0,0.,-2.29155,-2.390059\H,0,0.,-4.561262,-1.316349\H,
 0,0.,-4.828753,1.199689\H,0,0.,-2.636071,2.487647\H,0,-0.859585,-0.256
 ,2.145787\H,0,0.859585,-0.256,2.145787\\Version=ES64L-G16RevC.01\State
 =1-A'\HF=-539.5294986\RMSD=6.341e-09\PG=CS [SG(C14H9),X(H2)]\\@
 The archive entry for this job was punched.


 Everywhere is walking distance if you have the time.
                                    -- Steven Wright
 Job cpu time:       0 days  0 hours 53 minutes 23.0 seconds.
 Elapsed time:       0 days  0 hours  1 minutes  6.8 seconds.
 File lengths (MBytes):  RWF=    460 Int=      0 D2E=      0 Chk=     15 Scr=      1
 Normal termination of Gaussian 16 at Tue Aug  2 13:08:36 2022.
