 Entering Gaussian System, Link 0=g16
 Initial command:
 /apps/gaussian/g16c01/g16/l1.exe "/jobfs/53803565.gadi-pbs/Gau-1037340.inp" -scrdir="/jobfs/53803565.gadi-pbs/"
 Entering Link 1 = /apps/gaussian/g16c01/g16/l1.exe PID=   1037341.
  
 Copyright (c) 1988-2019, Gaussian, Inc.  All Rights Reserved.
  
 This is part of the Gaussian(R) 16 program.  It is based on
 the Gaussian(R) 09 system (copyright 2009, Gaussian, Inc.),
 the Gaussian(R) 03 system (copyright 2003, Gaussian, Inc.),
 the Gaussian(R) 98 system (copyright 1998, Gaussian, Inc.),
 the Gaussian(R) 94 system (copyright 1995, Gaussian, Inc.),
 the Gaussian 92(TM) system (copyright 1992, Gaussian, Inc.),
 the Gaussian 90(TM) system (copyright 1990, Gaussian, Inc.),
 the Gaussian 88(TM) system (copyright 1988, Gaussian, Inc.),
 the Gaussian 86(TM) system (copyright 1986, Carnegie Mellon
 University), and the Gaussian 82(TM) system (copyright 1983,
 Carnegie Mellon University). Gaussian is a federally registered
 trademark of Gaussian, Inc.
  
 This software contains proprietary and confidential information,
 including trade secrets, belonging to Gaussian, Inc.
  
 This software is provided under written license and may be
 used, copied, transmitted, or stored only in accord with that
 written license.
  
 The following legend is applicable only to US Government
 contracts under FAR:
  
                    RESTRICTED RIGHTS LEGEND
  
 Use, reproduction and disclosure by the US Government is
 subject to restrictions as set forth in subparagraphs (a)
 and (c) of the Commercial Computer Software - Restricted
 Rights clause in FAR 52.227-19.
  
 Gaussian, Inc.
 340 Quinnipiac St., Bldg. 40, Wallingford CT 06492
  
  
 ---------------------------------------------------------------
 Warning -- This program may not be used in any manner that
 competes with the business of Gaussian, Inc. or will provide
 assistance to any competitor of Gaussian, Inc.  The licensee
 of this program is prohibited from giving any competitor of
 Gaussian, Inc. access to this program.  By using this program,
 the user acknowledges that Gaussian, Inc. is engaged in the
 business of creating and licensing software in the field of
 computational chemistry and represents and warrants to the
 licensee that it is not a competitor of Gaussian, Inc. and that
 it will not use this program in any manner prohibited above.
 ---------------------------------------------------------------
  

 Cite this work as:
 Gaussian 16, Revision C.01,
 M. J. Frisch, G. W. Trucks, H. B. Schlegel, G. E. Scuseria, 
 M. A. Robb, J. R. Cheeseman, G. Scalmani, V. Barone, 
 G. A. Petersson, H. Nakatsuji, X. Li, M. Caricato, A. V. Marenich, 
 J. Bloino, B. G. Janesko, R. Gomperts, B. Mennucci, H. P. Hratchian, 
 J. V. Ortiz, A. F. Izmaylov, J. L. Sonnenberg, D. Williams-Young, 
 F. Ding, F. Lipparini, F. Egidi, J. Goings, B. Peng, A. Petrone, 
 T. Henderson, D. Ranasinghe, V. G. Zakrzewski, J. Gao, N. Rega, 
 G. Zheng, W. Liang, M. Hada, M. Ehara, K. Toyota, R. Fukuda, 
 J. Hasegawa, M. Ishida, T. Nakajima, Y. Honda, O. Kitao, H. Nakai, 
 T. Vreven, K. Throssell, J. A. Montgomery, Jr., J. E. Peralta, 
 F. Ogliaro, M. J. Bearpark, J. J. Heyd, E. N. Brothers, K. N. Kudin, 
 V. N. Staroverov, T. A. Keith, R. Kobayashi, J. Normand, 
 K. Raghavachari, A. P. Rendell, J. C. Burant, S. S. Iyengar, 
 J. Tomasi, M. Cossi, J. M. Millam, M. Klene, C. Adamo, R. Cammi, 
 J. W. Ochterski, R. L. Martin, K. Morokuma, O. Farkas, 
 J. B. Foresman, and D. J. Fox, Gaussian, Inc., Wallingford CT, 2019.
 
 ******************************************
 Gaussian 16:  ES64L-G16RevC.01  3-Jul-2019
                 2-Aug-2022 
 ******************************************
 %NProcShared=48
 Will use up to   48 processors via shared memory.
 %mem = 190GB
 ---------------------------------------------------------------
 #n M062X/6-311++G(d,p) TD(NStates=1) EmpiricalDispersion=GD3 SP
 ---------------------------------------------------------------
 1/38=1,172=1/1;
 2/12=2,17=6,18=5,40=1/2;
 3/5=4,6=6,7=1111,11=9,25=1,30=1,74=-55,124=31/1,2,3,8;
 4//1;
 5/5=2,38=5/2;
 8/6=1,10=2,108=1/1;
 9/41=1,42=1,70=2/14;
 6/7=2,8=2,9=2,10=2/1;
 99/5=1,9=1/99;
 -----
 SP_-4
 -----
 Symbolic Z-matrix:
 Charge =  1 Multiplicity = 1
 C                     0.        2.60866   1.40443 
 C                     0.        3.79351   0.68399 
 C                     0.        3.68786  -0.67383 
 C                     0.        2.33516  -1.33954 
 C                     0.       -2.59116  -1.47554 
 C                     0.       -3.67986  -0.75383 
 C                     0.       -3.60951   0.65999 
 C                     0.       -2.37665   1.31643 
 C                     0.        0.016     1.45337 
 C                     0.       -0.092    -1.42919 
 C                     0.        1.25006   0.71707 
 C                     0.        1.18547  -0.6508 
 C                     0.       -1.27406   0.63707 
 C                     0.       -1.28947  -0.8108 
 H                     0.        2.61607   2.48765 
 H                     0.        4.75675   1.17169 
 H                     0.        4.55726  -1.32435 
 H                     0.        2.32755  -2.42206 
 H                     0.        0.024    -2.51027 
 H                     0.       -2.60755  -2.55806 
 H                     0.       -4.66126  -1.22035 
 H                     0.       -4.51675   1.25169 
 H                     0.       -2.36007   2.39965 
 H                    -0.85959   0.08      2.14579 
 H                     0.85959   0.08      2.14579 
 
                          Input orientation:                          
 ---------------------------------------------------------------------
 Center     Atomic      Atomic             Coordinates (Angstroms)
 Number     Number       Type             X           Y           Z
 ---------------------------------------------------------------------
      1          6           0        0.000000    2.608655    1.404431
      2          6           0        0.000000    3.793508    0.683989
      3          6           0        0.000000    3.687861   -0.673830
      4          6           0        0.000000    2.335156   -1.339538
      5          6           0        0.000000   -2.591156   -1.475538
      6          6           0        0.000000   -3.679861   -0.753830
      7          6           0        0.000000   -3.609508    0.659989
      8          6           0        0.000000   -2.376655    1.316431
      9          6           0        0.000000    0.016000    1.453369
     10          6           0        0.000000   -0.092000   -1.429189
     11          6           0        0.000000    1.250055    0.717065
     12          6           0        0.000000    1.185471   -0.650804
     13          6           0        0.000000   -1.274055    0.637065
     14          6           0        0.000000   -1.289471   -0.810804
     15          1           0        0.000000    2.616071    2.487647
     16          1           0        0.000000    4.756753    1.171689
     17          1           0        0.000000    4.557262   -1.324349
     18          1           0        0.000000    2.327550   -2.422059
     19          1           0        0.000000    0.024000   -2.510266
     20          1           0        0.000000   -2.607550   -2.558059
     21          1           0        0.000000   -4.661262   -1.220349
     22          1           0        0.000000   -4.516753    1.251689
     23          1           0        0.000000   -2.360071    2.399647
     24          1           0       -0.859585    0.080000    2.145787
     25          1           0        0.859585    0.080000    2.145787
 ---------------------------------------------------------------------
                    Distance matrix (angstroms):
                    1          2          3          4          5
     1  C    0.000000
     2  C    1.386691   0.000000
     3  C    2.341763   1.361923   0.000000
     4  C    2.757566   2.494284   1.507640   0.000000
     5  C    5.944094   6.739992   6.329991   4.928189   0.000000
     6  C    6.648573   7.610425   7.368156   6.043466   1.306193
     7  C    6.262567   7.403055   7.418266   6.271933   2.365907
     8  C    4.986087   6.202491   6.382750   5.408820   2.800197
     9  C    2.593117   3.855063   4.243529   3.630264   3.921194
    10  C    3.914453   4.422973   3.854597   2.428811   2.499586
    11  C    1.522585   2.543668   2.806686   2.325309   4.422941
    12  C    2.499889   2.929766   2.502496   1.340198   3.865630
    13  C    3.957813   5.067780   5.132159   4.115017   2.489547
    14  C    4.483598   5.298215   4.979216   3.662988   1.461593
    15  H    1.083241   2.153959   3.338214   3.837481   6.543856
    16  H    2.160670   1.079672   2.132714   3.488609   7.810223
    17  H    3.353104   2.148660   1.085833   2.222158   7.150017
    18  H    3.836801   3.434613   2.215119   1.082548   5.008949
    19  H    4.690980   4.940896   4.098338   2.590762   2.812419
    20  H    6.550582   7.175264   6.571341   5.090691   1.082645
    21  H    7.729241   8.666582   8.366991   6.997433   2.085776
    22  H    7.127045   8.329629   8.427533   7.325511   3.338516
    23  H    5.067415   6.388272   6.784080   6.002221   3.882069
    24  H    2.771749   4.082387   4.658947   4.239352   4.581261
    25  H    2.771749   4.082387   4.658947   4.239352   4.581261
                    6          7          8          9         10
     6  C    0.000000
     7  C    1.415568   0.000000
     8  C    2.446288   1.396726   0.000000
     9  C    4.304778   3.711302   2.396570   0.000000
    10  C    3.650871   4.091152   3.571845   2.884580   0.000000
    11  C    5.144668   4.859898   3.675903   1.437023   2.531308
    12  C    4.866423   4.970916   4.069245   2.407324   1.495933
    13  C    2.778937   2.335566   1.295093   1.526628   2.380475
    14  C    2.391069   2.746963   2.388953   2.613567   1.347715
    15  H    7.081379   6.488310   5.128261   2.798232   4.761854
    16  H    8.653559   8.381895   7.134876   4.749114   5.502270
    17  H    8.256857   8.404388   7.419766   5.323418   4.650444
    18  H    6.234739   6.689370   6.008815   4.512450   2.615342
    19  H    4.099226   4.822126   4.517384   3.963643   1.087283
    20  H    2.098831   3.370423   3.881364   4.793179   2.757234
    21  H    1.086641   2.154497   3.413895   5.387536   4.574032
    22  H    2.173130   1.083145   2.141077   4.537238   5.173543
    23  H    3.418518   2.141846   1.083343   2.557568   4.450183
    24  H    4.825269   4.069269   2.731643   1.105633   3.680886
    25  H    4.825269   4.069269   2.731643   1.105633   3.680886
                   11         12         13         14         15
    11  C    0.000000
    12  C    1.369393   0.000000
    13  C    2.525377   2.776306   0.000000
    14  C    2.963710   2.480108   1.447951   0.000000
    15  H    2.236283   3.449129   4.307869   5.112048   0.000000
    16  H    3.536045   4.009431   6.054459   6.362948   2.512820
    17  H    3.886514   3.438406   6.152349   5.869243   4.277796
    18  H    3.318900   2.107531   4.725442   3.959670   4.918176
    19  H    3.452373   2.192399   3.404503   2.147877   5.630095
    20  H    5.060391   4.245542   3.462229   2.188660   7.262600
    21  H    6.220711   5.874408   3.863050   3.396572   8.167546
    22  H    5.791537   6.011226   3.300432   3.830043   7.239114
    23  H    3.982975   4.677191   2.070296   3.384255   4.976920
    24  H    2.036949   3.127599   2.201952   3.369832   2.699520
    25  H    2.036949   3.127599   2.201952   3.369832   2.699520
                   16         17         18         19         20
    16  H    0.000000
    17  H    2.503997   0.000000
    18  H    4.337747   2.485273   0.000000
    19  H    5.996311   4.685815   2.305238   0.000000
    20  H    8.254937   7.270252   4.936974   2.631984   0.000000
    21  H    9.717039   9.219111   7.091375   4.859585   2.450959
    22  H    9.273851   9.432588   7.767941   5.896672   4.261365
    23  H    7.221985   7.856058   6.724778   5.458117   4.963879
    24  H    4.853841   5.729451   5.162905   4.735066   5.485251
    25  H    4.853841   5.729451   5.162905   4.735066   5.485251
                   21         22         23         24         25
    21  H    0.000000
    22  H    2.476258   0.000000
    23  H    4.289505   2.443171   0.000000
    24  H    5.877867   4.761138   2.599476   0.000000
    25  H    5.877867   4.761138   2.599476   1.719170   0.000000
 Stoichiometry    C14H11(1+)
 Framework group  CS[SG(C14H9),X(H2)]
 Deg. of freedom    46
 Full point group                 CS      NOp   2
 Largest Abelian subgroup         CS      NOp   2
 Largest concise Abelian subgroup CS      NOp   2
                         Standard orientation:                         
 ---------------------------------------------------------------------
 Center     Atomic      Atomic             Coordinates (Angstroms)
 Number     Number       Type             X           Y           Z
 ---------------------------------------------------------------------
      1          6           0        2.486565    1.609382    0.000000
      2          6           0        2.425639    2.994734    0.000000
      3          6           0        1.184713    3.555926    0.000000
      4          6           0       -0.050069    2.690888    0.000000
      5          6           0       -2.541272   -1.561283    0.000000
      6          6           0       -2.432941   -2.862976    0.000000
      7          6           0       -1.159928   -3.482066    0.000000
      8          6           0        0.009024   -2.717610    0.000000
      9          6           0        1.281100   -0.686508    0.000000
     10          6           0       -1.297312    0.606779    0.000000
     11          6           0        1.229963    0.749605    0.000000
     12          6           0        0.000000    1.351625    0.000000
     13          6           0       -0.055505   -1.424126    0.000000
     14          6           0       -1.331909   -0.740492    0.000000
     15          1           0        3.439518    1.094316    0.000000
     16          1           0        3.316882    3.604142    0.000000
     17          1           0        1.033181    4.631134    0.000000
     18          1           0       -1.002504    3.205452    0.000000
     19          1           0       -2.188966    1.228983    0.000000
     20          1           0       -3.497938   -1.054421    0.000000
     21          1           0       -3.314362   -3.498495    0.000000
     22          1           0       -1.078170   -4.562120    0.000000
     23          1           0        0.966392   -3.224640    0.000000
     24          1           0        1.918784   -0.963813    0.859585
     25          1           0        1.918784   -0.963813   -0.859585
 ---------------------------------------------------------------------
 Rotational constants (GHZ):           2.1407466           0.4437968           0.3683898
 Standard basis: 6-311++G(d,p) (5D, 7F)
 There are   299 symmetry adapted cartesian basis functions of A'  symmetry.
 There are   100 symmetry adapted cartesian basis functions of A"  symmetry.
 There are   285 symmetry adapted basis functions of A'  symmetry.
 There are   100 symmetry adapted basis functions of A"  symmetry.
   385 basis functions,   603 primitive gaussians,   399 cartesian basis functions
    47 alpha electrons       47 beta electrons
       nuclear repulsion energy       781.5005894202 Hartrees.
 NAtoms=   25 NActive=   25 NUniq=   24 SFac= 1.09D+00 NAtFMM=   60 NAOKFM=F Big=F
 Integral buffers will be    131072 words long.
 Regular integral format.
 Two-electron integral symmetry is turned on.
 Nuclear repulsion after empirical dispersion term =      781.4996123928 Hartrees.
 One-electron integrals computed using PRISM.
 NBasis=   385 RedAO= T EigKep=  1.17D-06  NBF=   285   100
 NBsUse=   379 1.00D-06 EigRej=  8.22D-07 NBFU=   279   100
 ExpMin= 3.60D-02 ExpMax= 4.56D+03 ExpMxC= 6.82D+02 IAcc=3 IRadAn=         5 AccDes= 0.00D+00
 Harris functional with IExCor= 1009 and IRadAn=       5 diagonalized for initial guess.
 HarFok:  IExCor= 1009 AccDes= 0.00D+00 IRadAn=         5 IDoV= 1 UseB2=F ITyADJ=14
 ICtDFT=  3500011 ScaDFX=  1.000000  1.000000  1.000000  1.000000
 FoFCou: FMM=F IPFlag=           0 FMFlag=      100000 FMFlg1=           0
         NFxFlg=           0 DoJE=T BraDBF=F KetDBF=T FulRan=T
         wScrn=  0.000000 ICntrl=       500 IOpCl=  0 I1Cent=   200000004 NGrid=           0
         NMat0=    1 NMatS0=      1 NMatT0=    0 NMatD0=    1 NMtDS0=    0 NMtDT0=    0
 Petite list used in FoFCou.
 Initial guess orbital symmetries:
       Occupied  (A') (A') (A') (A') (A') (A') (A') (A') (A') (A')
                 (A') (A') (A') (A') (A') (A') (A') (A') (A') (A')
                 (A') (A') (A') (A') (A') (A') (A') (A') (A') (A')
                 (A') (A') (A") (A') (A') (A') (A') (A') (A") (A')
                 (A') (A") (A') (A") (A") (A") (A")
       Virtual   (A") (A") (A") (A") (A") (A') (A') (A') (A') (A")
                 (A") (A') (A') (A') (A") (A') (A') (A') (A') (A')
                 (A") (A') (A") (A') (A') (A") (A') (A') (A") (A')
                 (A') (A') (A') (A') (A") (A') (A') (A") (A') (A')
                 (A") (A') (A') (A") (A') (A') (A') (A') (A") (A')
                 (A') (A") (A') (A") (A') (A') (A') (A") (A') (A")
                 (A') (A') (A') (A') (A') (A") (A') (A') (A') (A")
                 (A') (A') (A') (A') (A') (A') (A') (A') (A') (A')
                 (A') (A') (A') (A') (A') (A') (A') (A') (A') (A')
                 (A') (A') (A') (A') (A') (A') (A') (A") (A") (A')
                 (A') (A") (A") (A') (A') (A") (A') (A") (A") (A')
                 (A") (A') (A') (A') (A") (A') (A") (A') (A") (A")
                 (A') (A") (A') (A') (A') (A") (A') (A') (A') (A")
                 (A') (A') (A') (A') (A') (A') (A") (A') (A') (A')
                 (A') (A') (A') (A') (A') (A') (A') (A') (A") (A')
                 (A") (A') (A') (A") (A") (A') (A") (A') (A') (A")
                 (A") (A') (A") (A") (A') (A") (A') (A') (A') (A')
                 (A") (A') (A') (A') (A') (A") (A') (A') (A') (A')
                 (A") (A') (A') (A") (A') (A") (A') (A") (A') (A")
                 (A") (A') (A') (A') (A") (A') (A') (A") (A') (A')
                 (A") (A") (A") (A') (A') (A") (A') (A") (A') (A')
                 (A") (A') (A") (A') (A') (A") (A") (A') (A') (A")
                 (A') (A') (A') (A') (A") (A') (A') (A') (A") (A")
                 (A') (A') (A') (A") (A') (A') (A") (A') (A") (A')
                 (A") (A') (A') (A') (A") (A') (A') (A') (A') (A")
                 (A') (A') (A') (A") (A") (A') (A') (A") (A') (A')
                 (A') (A") (A') (A") (A') (A') (A') (A") (A') (A')
                 (A") (A') (A') (A') (A") (A") (A') (A') (A") (A")
                 (A') (A') (A") (A') (A") (A") (A') (A') (A') (A')
                 (A') (A') (A') (A') (A') (A') (A') (A') (A') (A')
                 (A') (A') (A') (A") (A') (A') (A') (A') (A') (A')
                 (A') (A') (A') (A') (A') (A') (A') (A') (A') (A')
                 (A') (A') (A') (A') (A') (A') (A') (A') (A') (A')
                 (A') (A')
 The electronic state of the initial guess is 1-A'.
 Requested convergence on RMS density matrix=1.00D-08 within 128 cycles.
 Requested convergence on MAX density matrix=1.00D-06.
 Requested convergence on             energy=1.00D-06.
 No special actions if energy rises.
 SCF Done:  E(RM062X) =  -539.704153823     A.U. after   16 cycles
            NFock= 16  Conv=0.43D-08     -V/T= 2.0037
 DoSCS=F DFT=T ScalE2(SS,OS)=  1.000000  1.000000
 ExpMin= 3.60D-02 ExpMax= 4.56D+03 ExpMxC= 6.82D+02 IAcc=3 IRadAn=         5 AccDes= 0.00D+00
 HarFok:  IExCor=  205 AccDes= 0.00D+00 IRadAn=         5 IDoV=-2 UseB2=F ITyADJ=14
 ICtDFT= 12500011 ScaDFX=  1.000000  1.000000  1.000000  1.000000
 Range of M.O.s used for correlation:    15   379
 NBasis=   385 NAE=    47 NBE=    47 NFC=    14 NFV=     0
 NROrb=    365 NOA=    33 NOB=    33 NVA=   332 NVB=   332

 **** Warning!!: The largest alpha MO coefficient is  0.15790594D+03

 Orbital symmetries:
       Occupied  (A') (A') (A') (A') (A') (A') (A') (A') (A') (A')
                 (A') (A') (A') (A') (A') (A') (A') (A') (A') (A')
                 (A') (A') (A') (A') (A') (A') (A') (A') (A') (A')
                 (A") (A') (A') (A') (A') (A') (A") (A') (A') (A")
                 (A') (A') (A') (A") (A") (A") (A")
       Virtual   (A") (A") (A") (A") (A') (A') (A') (A') (A") (A')
                 (A') (A") (A') (A') (A") (A') (A") (A') (A') (A')
                 (A") (A") (A') (A') (A') (A") (A') (A') (A") (A')
                 (A") (A') (A') (A") (A') (A') (A') (A') (A") (A')
                 (A") (A') (A') (A") (A") (A') (A") (A') (A') (A')
                 (A") (A') (A') (A') (A') (A") (A') (A') (A') (A')
                 (A") (A') (A') (A') (A') (A') (A") (A') (A') (A')
                 (A') (A') (A') (A') (A') (A') (A') (A') (A') (A')
                 (A') (A') (A') (A') (A') (A') (A') (A') (A') (A')
                 (A') (A') (A') (A") (A') (A") (A') (A") (A') (A")
                 (A') (A') (A') (A') (A") (A") (A') (A") (A') (A')
                 (A") (A') (A") (A') (A") (A') (A') (A") (A') (A")
                 (A") (A') (A") (A') (A') (A") (A') (A') (A') (A')
                 (A') (A') (A') (A') (A') (A') (A') (A') (A') (A')
                 (A') (A') (A') (A") (A') (A') (A') (A') (A') (A')
                 (A') (A") (A') (A") (A') (A') (A") (A") (A') (A")
                 (A") (A') (A") (A') (A') (A") (A") (A") (A') (A')
                 (A') (A') (A") (A') (A') (A") (A') (A') (A") (A')
                 (A') (A') (A') (A") (A') (A") (A') (A") (A") (A")
                 (A') (A') (A') (A") (A') (A") (A') (A') (A') (A")
                 (A') (A") (A") (A') (A") (A') (A') (A") (A') (A')
                 (A') (A") (A') (A") (A") (A') (A') (A") (A') (A")
                 (A') (A') (A') (A') (A") (A') (A') (A') (A") (A")
                 (A') (A') (A') (A") (A') (A') (A') (A") (A") (A')
                 (A") (A') (A') (A") (A') (A') (A') (A') (A') (A')
                 (A") (A') (A') (A') (A') (A") (A") (A') (A") (A')
                 (A') (A') (A') (A') (A') (A') (A") (A') (A') (A')
                 (A') (A") (A') (A") (A") (A') (A") (A") (A") (A')
                 (A') (A") (A") (A') (A") (A") (A') (A') (A') (A')
                 (A') (A') (A') (A') (A') (A') (A') (A') (A') (A')
                 (A') (A') (A') (A") (A') (A') (A') (A') (A') (A')
                 (A') (A') (A') (A') (A') (A') (A') (A') (A') (A')
                 (A') (A') (A') (A') (A') (A') (A') (A') (A') (A')
                 (A') (A')
     4 initial guesses have been made.
 Convergence on wavefunction:    0.001000000000000
 Iteration     1 Dimension     4 NMult     0 NNew      4
 CISAX will form     4 AO SS matrices at one time.
 Iteration     2 Dimension     6 NMult     4 NNew      2
 Iteration     3 Dimension     8 NMult     6 NNew      2
 Iteration     4 Dimension    10 NMult     8 NNew      2
 Iteration     5 Dimension    12 NMult    10 NNew      2
 Iteration     6 Dimension    14 NMult    12 NNew      2
 ***********************************************************************
 Excited states from <AA,BB:AA,BB> singles matrix:
 ***********************************************************************
 
 Ground to excited state transition densities written to RWF  633
 Ground to excited state transition electric dipole moments (Au):
       state          X           Y           Z        Dip. S.      Osc.
         1         0.4827      0.0210     -0.0000      0.2335      0.0125
 Ground to excited state transition velocity dipole moments (Au):
       state          X           Y           Z        Dip. S.      Osc.
         1        -0.0412      0.0049     -0.0000      0.0017      0.0143
 Ground to excited state transition magnetic dipole moments (Au):
       state          X           Y           Z
         1         0.0000      0.0000      0.0514
 Ground to excited state transition velocity quadrupole moments (Au):
       state          XX          YY          ZZ          XY          XZ          YZ
         1        -0.0178      0.1719     -0.0060      0.0284      0.0000      0.0000
 <0|del|b> * <b|rxdel|0> + <0|del|b> * <b|delr+rdel|0>
 Rotatory Strengths (R) in cgs (10**-40 erg-esu-cm/Gauss)
       state          XX          YY          ZZ    R(velocity)    E-M Angle
         1         0.0000     -0.0000     -0.0000     -0.0000       90.00
 1/2[<0|r|b>*<b|rxdel|0> + (<0|rxdel|b>*<b|r|0>)*]
 Rotatory Strengths (R) in cgs (10**-40 erg-esu-cm/Gauss)
       state          XX          YY          ZZ     R(length)
         1        -0.0000     -0.0000      0.0000     -0.0000
  1/2[<0|del|b>*<b|r|0> + (<0|r|b>*<b|del|0>)*] (Au)
       state          X           Y           Z        Dip. S.   Osc.(frdel)
         1        -0.0199      0.0001      0.0000      0.0198      0.0132

 Excitation energies and oscillator strengths:
 
 Excited State   1:      Singlet-A'     2.1801 eV  568.70 nm  f=0.0125  <S**2>=0.000
      47 -> 48         0.70343
 This state for optimization and/or second-order correction.
 Total Energy, E(TD-HF/TD-DFT) =  -539.624034936    
 Copying the excited state density for this state as the 1-particle RhoCI density.
 SavETr:  write IOETrn=   770 NScale= 10 NData=  16 NLR=1 NState=    1 LETran=      28.

 **********************************************************************

            Population analysis using the SCF Density.

 **********************************************************************

 Orbital symmetries:
       Occupied  (A') (A') (A') (A') (A') (A') (A') (A') (A') (A')
                 (A') (A') (A') (A') (A') (A') (A') (A') (A') (A')
                 (A') (A') (A') (A') (A') (A') (A') (A') (A') (A')
                 (A") (A') (A') (A') (A') (A') (A") (A') (A') (A")
                 (A') (A') (A') (A") (A") (A") (A")
       Virtual   (A") (A") (A") (A") (A') (A') (A') (A') (A") (A')
                 (A') (A") (A') (A') (A") (A') (A") (A') (A') (A')
                 (A") (A") (A') (A') (A') (A") (A') (A') (A") (A')
                 (A") (A') (A') (A") (A') (A') (A') (A') (A") (A')
                 (A") (A') (A') (A") (A") (A') (A") (A') (A') (A')
                 (A") (A') (A') (A') (A') (A") (A') (A') (A') (A')
                 (A") (A') (A') (A') (A') (A') (A") (A') (A') (A')
                 (A') (A') (A') (A') (A') (A') (A') (A') (A') (A')
                 (A') (A') (A') (A') (A') (A') (A') (A') (A') (A')
                 (A') (A') (A') (A") (A') (A") (A') (A") (A') (A")
                 (A') (A') (A') (A') (A") (A") (A') (A") (A') (A')
                 (A") (A') (A") (A') (A") (A') (A') (A") (A') (A")
                 (A") (A') (A") (A') (A') (A") (A') (A') (A') (A')
                 (A') (A') (A') (A') (A') (A') (A') (A') (A') (A')
                 (A') (A') (A') (A") (A') (A') (A') (A') (A') (A')
                 (A') (A") (A') (A") (A') (A') (A") (A") (A') (A")
                 (A") (A') (A") (A') (A') (A") (A") (A") (A') (A')
                 (A') (A') (A") (A') (A') (A") (A') (A') (A") (A')
                 (A') (A') (A') (A") (A') (A") (A') (A") (A") (A")
                 (A') (A') (A') (A") (A') (A") (A') (A') (A') (A")
                 (A') (A") (A") (A') (A") (A') (A') (A") (A') (A')
                 (A') (A") (A') (A") (A") (A') (A') (A") (A') (A")
                 (A') (A') (A') (A') (A") (A') (A') (A') (A") (A")
                 (A') (A') (A') (A") (A') (A') (A') (A") (A") (A')
                 (A") (A') (A') (A") (A') (A') (A') (A') (A') (A')
                 (A") (A') (A') (A') (A') (A") (A") (A') (A") (A')
                 (A') (A') (A') (A') (A') (A') (A") (A') (A') (A')
                 (A') (A") (A') (A") (A") (A') (A") (A") (A") (A')
                 (A') (A") (A") (A') (A") (A") (A') (A') (A') (A')
                 (A') (A') (A') (A') (A') (A') (A') (A') (A') (A')
                 (A') (A') (A') (A") (A') (A') (A') (A') (A') (A')
                 (A') (A') (A') (A') (A') (A') (A') (A') (A') (A')
                 (A') (A') (A') (A') (A') (A') (A') (A') (A') (A')
                 (A') (A')
 The electronic state is 1-A'.
 Alpha  occ. eigenvalues --  -10.77060 -10.74221 -10.74011 -10.73459 -10.72776
 Alpha  occ. eigenvalues --  -10.71829 -10.70887 -10.70776 -10.70561 -10.70192
 Alpha  occ. eigenvalues --  -10.69714 -10.69642 -10.68793 -10.68617  -1.17233
 Alpha  occ. eigenvalues --   -1.12497  -1.06949  -1.06620  -1.01470  -1.01076
 Alpha  occ. eigenvalues --   -0.94876  -0.90781  -0.86749  -0.85516  -0.83457
 Alpha  occ. eigenvalues --   -0.77976  -0.76671  -0.74137  -0.70730  -0.69078
 Alpha  occ. eigenvalues --   -0.68201  -0.67856  -0.67764  -0.66302  -0.63876
 Alpha  occ. eigenvalues --   -0.61984  -0.61454  -0.61079  -0.59198  -0.58451
 Alpha  occ. eigenvalues --   -0.56730  -0.55436  -0.53061  -0.52423  -0.49551
 Alpha  occ. eigenvalues --   -0.46237  -0.41681
 Alpha virt. eigenvalues --   -0.26272  -0.14795  -0.13801  -0.12490  -0.11279
 Alpha virt. eigenvalues --   -0.10128  -0.09417  -0.07876  -0.07741  -0.07559
 Alpha virt. eigenvalues --   -0.07240  -0.07047  -0.05701  -0.05544  -0.05450
 Alpha virt. eigenvalues --   -0.03956  -0.03748  -0.03251  -0.03145  -0.02119
 Alpha virt. eigenvalues --   -0.01207  -0.01101   0.00180   0.00374   0.00698
 Alpha virt. eigenvalues --    0.01110   0.01417   0.01787   0.01854   0.02236
 Alpha virt. eigenvalues --    0.02511   0.02769   0.02982   0.03061   0.03486
 Alpha virt. eigenvalues --    0.04076   0.04369   0.04829   0.05140   0.05579
 Alpha virt. eigenvalues --    0.05962   0.06262   0.06468   0.07161   0.07287
 Alpha virt. eigenvalues --    0.07821   0.07844   0.08278   0.08609   0.08760
 Alpha virt. eigenvalues --    0.09093   0.09279   0.09828   0.10153   0.11137
 Alpha virt. eigenvalues --    0.11185   0.11645   0.12052   0.12465   0.12969
 Alpha virt. eigenvalues --    0.13262   0.13487   0.13967   0.14045   0.14937
 Alpha virt. eigenvalues --    0.16469   0.16630   0.16900   0.17320   0.17449
 Alpha virt. eigenvalues --    0.18308   0.19148   0.19181   0.19671   0.20677
 Alpha virt. eigenvalues --    0.21541   0.21812   0.22404   0.23307   0.23829
 Alpha virt. eigenvalues --    0.24302   0.24784   0.25755   0.27161   0.27587
 Alpha virt. eigenvalues --    0.28836   0.29536   0.30628   0.31204   0.35708
 Alpha virt. eigenvalues --    0.37199   0.38267   0.39112   0.40534   0.40711
 Alpha virt. eigenvalues --    0.41513   0.41528   0.43010   0.43868   0.44801
 Alpha virt. eigenvalues --    0.44861   0.45377   0.45759   0.46462   0.47617
 Alpha virt. eigenvalues --    0.47784   0.48137   0.48931   0.50467   0.50999
 Alpha virt. eigenvalues --    0.51037   0.51853   0.52381   0.53030   0.54253
 Alpha virt. eigenvalues --    0.54310   0.55303   0.55634   0.57141   0.57760
 Alpha virt. eigenvalues --    0.58324   0.60947   0.61735   0.62273   0.62494
 Alpha virt. eigenvalues --    0.63169   0.63264   0.64746   0.65429   0.68554
 Alpha virt. eigenvalues --    0.69942   0.70770   0.71661   0.72874   0.73443
 Alpha virt. eigenvalues --    0.74703   0.75483   0.76344   0.77173   0.77431
 Alpha virt. eigenvalues --    0.77960   0.78532   0.78609   0.80066   0.80112
 Alpha virt. eigenvalues --    0.81496   0.82315   0.83083   0.83582   0.85296
 Alpha virt. eigenvalues --    0.86184   0.86403   0.88312   0.90887   0.91093
 Alpha virt. eigenvalues --    0.91494   0.93329   0.93895   0.94781   0.96194
 Alpha virt. eigenvalues --    0.97784   0.98492   1.01008   1.01389   1.01787
 Alpha virt. eigenvalues --    1.03381   1.03899   1.05528   1.06574   1.07895
 Alpha virt. eigenvalues --    1.19771   1.21051   1.21234   1.23097   1.30552
 Alpha virt. eigenvalues --    1.31798   1.32860   1.34162   1.35583   1.36353
 Alpha virt. eigenvalues --    1.38110   1.39668   1.40550   1.42367   1.42719
 Alpha virt. eigenvalues --    1.42913   1.45816   1.46009   1.46890   1.48035
 Alpha virt. eigenvalues --    1.48648   1.50030   1.52112   1.54319   1.55521
 Alpha virt. eigenvalues --    1.56023   1.56478   1.57265   1.57765   1.61566
 Alpha virt. eigenvalues --    1.62349   1.63382   1.65022   1.66051   1.67908
 Alpha virt. eigenvalues --    1.68669   1.69143   1.70034   1.74899   1.74985
 Alpha virt. eigenvalues --    1.76862   1.77970   1.78736   1.79866   1.81753
 Alpha virt. eigenvalues --    1.82120   1.83128   1.83715   1.83873   1.84267
 Alpha virt. eigenvalues --    1.85113   1.85487   1.87559   1.88912   1.91934
 Alpha virt. eigenvalues --    1.93510   1.94798   1.96617   1.98008   1.98977
 Alpha virt. eigenvalues --    2.00430   2.02474   2.05505   2.07568   2.11370
 Alpha virt. eigenvalues --    2.12692   2.14716   2.15333   2.19188   2.21575
 Alpha virt. eigenvalues --    2.22782   2.28592   2.30482   2.33528   2.33658
 Alpha virt. eigenvalues --    2.36415   2.38117   2.39992   2.42128   2.43856
 Alpha virt. eigenvalues --    2.45983   2.46387   2.49354   2.53258   2.53713
 Alpha virt. eigenvalues --    2.54636   2.56846   2.58277   2.58613   2.58741
 Alpha virt. eigenvalues --    2.59578   2.60620   2.62008   2.63067   2.64110
 Alpha virt. eigenvalues --    2.64638   2.65003   2.65420   2.66344   2.67863
 Alpha virt. eigenvalues --    2.69153   2.70522   2.70718   2.73536   2.75041
 Alpha virt. eigenvalues --    2.75947   2.76179   2.79311   2.84035   2.84492
 Alpha virt. eigenvalues --    2.84915   2.86375   2.92264   2.96674   2.99200
 Alpha virt. eigenvalues --    3.00482   3.02597   3.04496   3.09119   3.14878
 Alpha virt. eigenvalues --    3.16969   3.17870   3.23956   3.29902   3.32407
 Alpha virt. eigenvalues --    3.34196   3.36351   3.45250   3.46262   3.49948
 Alpha virt. eigenvalues --    3.50072   3.51527   3.57760   3.66162   3.68617
 Alpha virt. eigenvalues --    3.70156   3.91683   3.92200   3.93890   3.96801
 Alpha virt. eigenvalues --    4.03053   4.04851   4.07570   4.11398   4.33493
 Alpha virt. eigenvalues --    4.57357   4.64879   4.67590  23.44386  23.57206
 Alpha virt. eigenvalues --   23.70462  23.72530  23.75850  23.89739  23.90908
 Alpha virt. eigenvalues --   23.94540  23.99165  24.08614  24.14264  24.18048
 Alpha virt. eigenvalues --   24.26696  24.32462
          Condensed to atoms (all electrons):
               1          2          3          4          5          6
     1  C    9.125075  -0.447431   0.135722   2.074050  -0.190526  -0.095870
     2  C   -0.447431   7.141024  -0.315332  -1.238151   0.075989  -0.007716
     3  C    0.135722  -0.315332   7.265957   1.068099  -0.211350   0.021900
     4  C    2.074050  -1.238151   1.068099   9.283907  -0.267822  -0.106738
     5  C   -0.190526   0.075989  -0.211350  -0.267822  13.972668   0.037393
     6  C   -0.095870  -0.007716   0.021900  -0.106738   0.037393   6.758451
     7  C    0.045210  -0.010532  -0.015536  -0.032233  -1.204737   0.439201
     8  C    0.485295  -0.068211  -0.081236   0.179098   1.946616  -0.981837
     9  C   -1.145841  -0.516319   0.403373  -0.956683   0.721295   0.231142
    10  C   -1.260802   0.571213  -0.956867  -2.124645  -2.887673   0.190662
    11  C    0.330982  -0.929339   1.445762  -0.607774  -1.547000  -0.182952
    12  C   -2.834304   2.142410  -2.113623  -0.536389  -1.020527  -0.027457
    13  C    0.439042  -0.451778   0.012530  -1.120376  -0.830896   0.891694
    14  C   -1.027765   0.171695  -0.503589  -0.069382  -2.913750  -1.033326
    15  H    0.363279  -0.089033   0.006094   0.027310   0.002112   0.000112
    16  H   -0.028626   0.375490  -0.005753  -0.004793  -0.001097  -0.000181
    17  H   -0.035242   0.007026   0.342692  -0.039939  -0.000260   0.000285
    18  H    0.047811   0.014182  -0.107605   0.434139   0.012126  -0.007398
    19  H   -0.039849  -0.007038   0.066712  -0.017918  -0.160711   0.052348
    20  H    0.005036   0.001461  -0.005336   0.010595   0.542789  -0.088148
    21  H   -0.001529  -0.000237   0.000508  -0.000677  -0.083474   0.405529
    22  H    0.001949   0.000301  -0.000487  -0.000873   0.028249  -0.036428
    23  H   -0.002018  -0.003804   0.002794   0.006092   0.026335   0.001228
    24  H    0.022049   0.010455  -0.004314  -0.010567  -0.011534   0.000419
    25  H    0.022049   0.010455  -0.004314  -0.010567  -0.011534   0.000419
               7          8          9         10         11         12
     1  C    0.045210   0.485295  -1.145841  -1.260802   0.330982  -2.834304
     2  C   -0.010532  -0.068211  -0.516319   0.571213  -0.929339   2.142410
     3  C   -0.015536  -0.081236   0.403373  -0.956867   1.445762  -2.113623
     4  C   -0.032233   0.179098  -0.956683  -2.124645  -0.607774  -0.536389
     5  C   -1.204737   1.946616   0.721295  -2.887673  -1.547000  -1.020527
     6  C    0.439201  -0.981837   0.231142   0.190662  -0.182952  -0.027457
     7  C    8.157313   0.451198  -1.547763   0.083616  -0.236241  -0.365051
     8  C    0.451198   8.427035  -1.244391  -1.221409   0.149471  -1.217897
     9  C   -1.547763  -1.244391  10.223242   0.290784   1.440342  -1.380315
    10  C    0.083616  -1.221409   0.290784   9.154707  -0.588309   2.063602
    11  C   -0.236241   0.149471   1.440342  -0.588309  12.860645  -2.515498
    12  C   -0.365051  -1.217897  -1.380315   2.063602  -2.515498  15.532093
    13  C   -1.061762   0.186671   1.466699  -0.222220   0.899239  -5.276126
    14  C    1.406173  -1.614759  -2.472757   2.442784  -3.987371   2.934016
    15  H   -0.000854   0.011444   0.067858  -0.014407  -0.034799  -0.026038
    16  H    0.000264  -0.000055   0.005862  -0.004304   0.030365  -0.022483
    17  H   -0.000403  -0.000905  -0.007296   0.017666  -0.032938   0.095717
    18  H    0.003849   0.009347  -0.035447   0.047871  -0.035184  -0.064173
    19  H   -0.013126  -0.038764   0.063589   0.400846   0.113136  -0.027938
    20  H   -0.001398   0.053403  -0.013995  -0.023516  -0.016130  -0.045542
    21  H   -0.027430  -0.022517  -0.000788   0.016067  -0.005813   0.002423
    22  H    0.389254  -0.017845  -0.004573  -0.013410   0.004909  -0.011366
    23  H   -0.132210   0.375974   0.106225  -0.001141  -0.007785   0.008891
    24  H    0.019753   0.046322   0.352628   0.006369  -0.010608  -0.058874
    25  H    0.019753   0.046322   0.352628   0.006369  -0.010608  -0.058874
              13         14         15         16         17         18
     1  C    0.439042  -1.027765   0.363279  -0.028626  -0.035242   0.047811
     2  C   -0.451778   0.171695  -0.089033   0.375490   0.007026   0.014182
     3  C    0.012530  -0.503589   0.006094  -0.005753   0.342692  -0.107605
     4  C   -1.120376  -0.069382   0.027310  -0.004793  -0.039939   0.434139
     5  C   -0.830896  -2.913750   0.002112  -0.001097  -0.000260   0.012126
     6  C    0.891694  -1.033326   0.000112  -0.000181   0.000285  -0.007398
     7  C   -1.061762   1.406173  -0.000854   0.000264  -0.000403   0.003849
     8  C    0.186671  -1.614759   0.011444  -0.000055  -0.000905   0.009347
     9  C    1.466699  -2.472757   0.067858   0.005862  -0.007296  -0.035447
    10  C   -0.222220   2.442784  -0.014407  -0.004304   0.017666   0.047871
    11  C    0.899239  -3.987371  -0.034799   0.030365  -0.032938  -0.035184
    12  C   -5.276126   2.934016  -0.026038  -0.022483   0.095717  -0.064173
    13  C   15.737656  -4.173985   0.010104   0.000495  -0.005386  -0.010116
    14  C   -4.173985  16.506072   0.000477  -0.005743   0.003770   0.019186
    15  H    0.010104   0.000477   0.448568  -0.008392   0.001141  -0.000301
    16  H    0.000495  -0.005743  -0.008392   0.428867  -0.005165   0.001814
    17  H   -0.005386   0.003770   0.001141  -0.005165   0.425109  -0.010210
    18  H   -0.010116   0.019186  -0.000301   0.001814  -0.010210   0.479867
    19  H    0.077435  -0.095193  -0.000076  -0.000316   0.000553  -0.007176
    20  H    0.002298  -0.081924  -0.000039  -0.000003  -0.000068   0.001531
    21  H    0.004899   0.055798  -0.000006  -0.000005   0.000009  -0.000278
    22  H    0.015420  -0.021491  -0.000086   0.000007  -0.000008   0.000064
    23  H   -0.030853  -0.016935   0.000526  -0.000173   0.000038  -0.000273
    24  H    0.029220  -0.055403  -0.000410   0.000723  -0.000205   0.000393
    25  H    0.029220  -0.055403  -0.000410   0.000723  -0.000205   0.000393
              19         20         21         22         23         24
     1  C   -0.039849   0.005036  -0.001529   0.001949  -0.002018   0.022049
     2  C   -0.007038   0.001461  -0.000237   0.000301  -0.003804   0.010455
     3  C    0.066712  -0.005336   0.000508  -0.000487   0.002794  -0.004314
     4  C   -0.017918   0.010595  -0.000677  -0.000873   0.006092  -0.010567
     5  C   -0.160711   0.542789  -0.083474   0.028249   0.026335  -0.011534
     6  C    0.052348  -0.088148   0.405529  -0.036428   0.001228   0.000419
     7  C   -0.013126  -0.001398  -0.027430   0.389254  -0.132210   0.019753
     8  C   -0.038764   0.053403  -0.022517  -0.017845   0.375974   0.046322
     9  C    0.063589  -0.013995  -0.000788  -0.004573   0.106225   0.352628
    10  C    0.400846  -0.023516   0.016067  -0.013410  -0.001141   0.006369
    11  C    0.113136  -0.016130  -0.005813   0.004909  -0.007785  -0.010608
    12  C   -0.027938  -0.045542   0.002423  -0.011366   0.008891  -0.058874
    13  C    0.077435   0.002298   0.004899   0.015420  -0.030853   0.029220
    14  C   -0.095193  -0.081924   0.055798  -0.021491  -0.016935  -0.055403
    15  H   -0.000076  -0.000039  -0.000006  -0.000086   0.000526  -0.000410
    16  H   -0.000316  -0.000003  -0.000005   0.000007  -0.000173   0.000723
    17  H    0.000553  -0.000068   0.000009  -0.000008   0.000038  -0.000205
    18  H   -0.007176   0.001531  -0.000278   0.000064  -0.000273   0.000393
    19  H    0.448688  -0.008043   0.002603  -0.000803   0.000998   0.000566
    20  H   -0.008043   0.437974  -0.009889   0.002294   0.000170   0.000069
    21  H    0.002603  -0.009889   0.413667  -0.007430   0.001839  -0.000081
    22  H   -0.000803   0.002294  -0.007430   0.408608  -0.009648   0.000594
    23  H    0.000998   0.000170   0.001839  -0.009648   0.432737  -0.001746
    24  H    0.000566   0.000069  -0.000081   0.000594  -0.001746   0.492319
    25  H    0.000566   0.000069  -0.000081   0.000594  -0.001746  -0.077672
              25
     1  C    0.022049
     2  C    0.010455
     3  C   -0.004314
     4  C   -0.010567
     5  C   -0.011534
     6  C    0.000419
     7  C    0.019753
     8  C    0.046322
     9  C    0.352628
    10  C    0.006369
    11  C   -0.010608
    12  C   -0.058874
    13  C    0.029220
    14  C   -0.055403
    15  H   -0.000410
    16  H    0.000723
    17  H   -0.000205
    18  H    0.000393
    19  H    0.000566
    20  H    0.000069
    21  H   -0.000081
    22  H    0.000594
    23  H   -0.001746
    24  H   -0.077672
    25  H    0.492319
 Mulliken charges:
               1
     1  C    0.012254
     2  C   -0.436781
     3  C   -0.446801
     4  C    0.062238
     5  C   -0.022681
     6  C   -0.462730
     7  C   -0.366307
     8  C    0.141629
     9  C   -0.399497
    10  C    0.026148
    11  C   -0.526501
    12  C    0.823323
    13  C   -0.619124
    14  C    0.588805
    15  H    0.235827
    16  H    0.242480
    17  H    0.244222
    18  H    0.205587
    19  H    0.188910
    20  H    0.236345
    21  H    0.256891
    22  H    0.272206
    23  H    0.244484
    24  H    0.249536
    25  H    0.249536
 Sum of Mulliken charges =   1.00000
 Mulliken charges with hydrogens summed into heavy atoms:
               1
     1  C    0.248082
     2  C   -0.194302
     3  C   -0.202579
     4  C    0.267825
     5  C    0.213664
     6  C   -0.205839
     7  C   -0.094100
     8  C    0.386113
     9  C    0.099575
    10  C    0.215058
    11  C   -0.526501
    12  C    0.823323
    13  C   -0.619124
    14  C    0.588805
 Electronic spatial extent (au):  <R**2>=           2858.3920
 Charge=              1.0000 electrons
 Dipole moment (field-independent basis, Debye):
    X=             -1.4850    Y=             -2.4800    Z=              0.0000  Tot=              2.8906
 Quadrupole moment (field-independent basis, Debye-Ang):
   XX=            -49.3417   YY=            -37.1947   ZZ=            -84.0709
   XY=             11.6205   XZ=              0.0000   YZ=              0.0000
 Traceless Quadrupole moment (field-independent basis, Debye-Ang):
   XX=              7.5274   YY=             19.6744   ZZ=            -27.2018
   XY=             11.6205   XZ=              0.0000   YZ=              0.0000
 Octapole moment (field-independent basis, Debye-Ang**2):
  XXX=            -11.0676  YYY=            -30.7216  ZZZ=             -0.0000  XYY=             -7.2828
  XXY=             -2.6924  XXZ=              0.0000  XZZ=              0.5550  YZZ=             -5.3891
  YYZ=             -0.0000  XYZ=              0.0000
 Hexadecapole moment (field-independent basis, Debye-Ang**3):
 XXXX=          -1055.9924 YYYY=          -1782.3996 ZZZZ=            -99.2066 XXXY=           -364.2655
 XXXZ=             -0.0000 YYYX=           -294.9500 YYYZ=              0.0000 ZZZX=             -0.0000
 ZZZY=              0.0000 XXYY=           -448.8148 XXZZ=           -260.3502 YYZZ=           -476.2805
 XXYZ=              0.0000 YYXZ=             -0.0000 ZZXY=           -194.7644
 N-N= 7.814996123928D+02 E-N=-2.799478138639D+03  KE= 5.377238373718D+02
 Symmetry A'   KE= 5.230183566610D+02
 Symmetry A"   KE= 1.470548071082D+01
 Unable to Open any file for archive entry.
 1\1\GINC-GADI-CPU-CLX-0240\SP\RM062X TD-FC\6-311++G(d,p)\C14H11(1+)\TS
 1578\02-Aug-2022\0\\#n M062X/6-311++G(d,p) TD(NStates=1) EmpiricalDisp
 ersion=GD3 SP\\SP_-4\\1,1\C,0,0.,2.608655,1.404431\C,0,0.,3.793508,0.6
 83989\C,0,0.,3.687861,-0.67383\C,0,0.,2.335156,-1.339538\C,0,0.,-2.591
 156,-1.475538\C,0,0.,-3.679861,-0.75383\C,0,0.,-3.609508,0.659989\C,0,
 0.,-2.376655,1.316431\C,0,0.,0.016,1.453369\C,0,0.,-0.092,-1.429189\C,
 0,0.,1.250055,0.717065\C,0,0.,1.185471,-0.650804\C,0,0.,-1.274055,0.63
 7065\C,0,0.,-1.289471,-0.810804\H,0,0.,2.616071,2.487647\H,0,0.,4.7567
 53,1.171689\H,0,0.,4.557262,-1.324349\H,0,0.,2.32755,-2.422059\H,0,0.,
 0.024,-2.510266\H,0,0.,-2.60755,-2.558059\H,0,0.,-4.661262,-1.220349\H
 ,0,0.,-4.516753,1.251689\H,0,0.,-2.360071,2.399647\H,0,-0.859585,0.08,
 2.145787\H,0,0.859585,0.08,2.145787\\Version=ES64L-G16RevC.01\State=1-
 A'\HF=-539.7041538\RMSD=4.328e-09\PG=CS [SG(C14H9),X(H2)]\\@
 The archive entry for this job was punched.


 WAR ES EIN GOTT DER DIESE ZEICHEN SCHRIEB?
          - LUDWIG BOLTZMANN, QUOTING GOETHE, ABOUT MAXWELL'S EQUATIONS.
 Job cpu time:       0 days  0 hours 53 minutes 25.5 seconds.
 Elapsed time:       0 days  0 hours  1 minutes  7.4 seconds.
 File lengths (MBytes):  RWF=    460 Int=      0 D2E=      0 Chk=     15 Scr=      1
 Normal termination of Gaussian 16 at Tue Aug  2 12:26:35 2022.
