 Entering Gaussian System, Link 0=g16
 Initial command:
 /apps/gaussian/g16c01/g16/l1.exe "/jobfs/53803565.gadi-pbs/Gau-1034867.inp" -scrdir="/jobfs/53803565.gadi-pbs/"
 Entering Link 1 = /apps/gaussian/g16c01/g16/l1.exe PID=   1034868.
  
 Copyright (c) 1988-2019, Gaussian, Inc.  All Rights Reserved.
  
 This is part of the Gaussian(R) 16 program.  It is based on
 the Gaussian(R) 09 system (copyright 2009, Gaussian, Inc.),
 the Gaussian(R) 03 system (copyright 2003, Gaussian, Inc.),
 the Gaussian(R) 98 system (copyright 1998, Gaussian, Inc.),
 the Gaussian(R) 94 system (copyright 1995, Gaussian, Inc.),
 the Gaussian 92(TM) system (copyright 1992, Gaussian, Inc.),
 the Gaussian 90(TM) system (copyright 1990, Gaussian, Inc.),
 the Gaussian 88(TM) system (copyright 1988, Gaussian, Inc.),
 the Gaussian 86(TM) system (copyright 1986, Carnegie Mellon
 University), and the Gaussian 82(TM) system (copyright 1983,
 Carnegie Mellon University). Gaussian is a federally registered
 trademark of Gaussian, Inc.
  
 This software contains proprietary and confidential information,
 including trade secrets, belonging to Gaussian, Inc.
  
 This software is provided under written license and may be
 used, copied, transmitted, or stored only in accord with that
 written license.
  
 The following legend is applicable only to US Government
 contracts under FAR:
  
                    RESTRICTED RIGHTS LEGEND
  
 Use, reproduction and disclosure by the US Government is
 subject to restrictions as set forth in subparagraphs (a)
 and (c) of the Commercial Computer Software - Restricted
 Rights clause in FAR 52.227-19.
  
 Gaussian, Inc.
 340 Quinnipiac St., Bldg. 40, Wallingford CT 06492
  
  
 ---------------------------------------------------------------
 Warning -- This program may not be used in any manner that
 competes with the business of Gaussian, Inc. or will provide
 assistance to any competitor of Gaussian, Inc.  The licensee
 of this program is prohibited from giving any competitor of
 Gaussian, Inc. access to this program.  By using this program,
 the user acknowledges that Gaussian, Inc. is engaged in the
 business of creating and licensing software in the field of
 computational chemistry and represents and warrants to the
 licensee that it is not a competitor of Gaussian, Inc. and that
 it will not use this program in any manner prohibited above.
 ---------------------------------------------------------------
  

 Cite this work as:
 Gaussian 16, Revision C.01,
 M. J. Frisch, G. W. Trucks, H. B. Schlegel, G. E. Scuseria, 
 M. A. Robb, J. R. Cheeseman, G. Scalmani, V. Barone, 
 G. A. Petersson, H. Nakatsuji, X. Li, M. Caricato, A. V. Marenich, 
 J. Bloino, B. G. Janesko, R. Gomperts, B. Mennucci, H. P. Hratchian, 
 J. V. Ortiz, A. F. Izmaylov, J. L. Sonnenberg, D. Williams-Young, 
 F. Ding, F. Lipparini, F. Egidi, J. Goings, B. Peng, A. Petrone, 
 T. Henderson, D. Ranasinghe, V. G. Zakrzewski, J. Gao, N. Rega, 
 G. Zheng, W. Liang, M. Hada, M. Ehara, K. Toyota, R. Fukuda, 
 J. Hasegawa, M. Ishida, T. Nakajima, Y. Honda, O. Kitao, H. Nakai, 
 T. Vreven, K. Throssell, J. A. Montgomery, Jr., J. E. Peralta, 
 F. Ogliaro, M. J. Bearpark, J. J. Heyd, E. N. Brothers, K. N. Kudin, 
 V. N. Staroverov, T. A. Keith, R. Kobayashi, J. Normand, 
 K. Raghavachari, A. P. Rendell, J. C. Burant, S. S. Iyengar, 
 J. Tomasi, M. Cossi, J. M. Millam, M. Klene, C. Adamo, R. Cammi, 
 J. W. Ochterski, R. L. Martin, K. Morokuma, O. Farkas, 
 J. B. Foresman, and D. J. Fox, Gaussian, Inc., Wallingford CT, 2019.
 
 ******************************************
 Gaussian 16:  ES64L-G16RevC.01  3-Jul-2019
                 2-Aug-2022 
 ******************************************
 %NProcShared=48
 Will use up to   48 processors via shared memory.
 %mem = 190GB
 ---------------------------------------------------------------
 #n M062X/6-311++G(d,p) TD(NStates=1) EmpiricalDispersion=GD3 SP
 ---------------------------------------------------------------
 1/38=1,172=1/1;
 2/12=2,17=6,18=5,40=1/2;
 3/5=4,6=6,7=1111,11=9,25=1,30=1,74=-55,124=31/1,2,3,8;
 4//1;
 5/5=2,38=5/2;
 8/6=1,10=2,108=1/1;
 9/41=1,42=1,70=2/14;
 6/7=2,8=2,9=2,10=2/1;
 99/5=1,9=1/99;
 -----
 SP_-4
 -----
 Symbolic Z-matrix:
 Charge =  1 Multiplicity = 1
 C                     0.        2.50466   1.31643 
 C                     0.        3.75351   0.72399 
 C                     0.        3.75186  -0.62583 
 C                     0.        2.43116  -1.41154 
 C                     0.       -2.49516  -1.40354 
 C                     0.       -3.61586  -0.80183 
 C                     0.       -3.64951   0.61999 
 C                     0.       -2.48066   1.40443 
 C                     0.        0.048     1.45337 
 C                     0.       -0.14     -1.42919 
 C                     0.        1.20206   0.54907 
 C                     0.        1.21747  -0.8028 
 C                     0.       -1.32206   0.80507 
 C                     0.       -1.25747  -0.6588 
 H                     0.        2.40007   2.39965 
 H                     0.        4.66075   1.30769 
 H                     0.        4.66926  -1.20435 
 H                     0.        2.53555  -2.49406 
 H                     0.       -0.224    -2.51027 
 H                     0.       -2.39955  -2.48606 
 H                     0.       -4.54926  -1.34035 
 H                     0.       -4.61275   1.11569 
 H                     0.       -2.57607   2.48765 
 H                    -0.85959   0.272     2.14579 
 H                     0.85959   0.272     2.14579 
 
                          Input orientation:                          
 ---------------------------------------------------------------------
 Center     Atomic      Atomic             Coordinates (Angstroms)
 Number     Number       Type             X           Y           Z
 ---------------------------------------------------------------------
      1          6           0        0.000000    2.504655    1.316431
      2          6           0        0.000000    3.753508    0.723989
      3          6           0        0.000000    3.751861   -0.625830
      4          6           0        0.000000    2.431156   -1.411538
      5          6           0        0.000000   -2.495156   -1.403538
      6          6           0        0.000000   -3.615861   -0.801830
      7          6           0        0.000000   -3.649508    0.619989
      8          6           0        0.000000   -2.480655    1.404431
      9          6           0        0.000000    0.048000    1.453369
     10          6           0        0.000000   -0.140000   -1.429189
     11          6           0        0.000000    1.202055    0.549065
     12          6           0        0.000000    1.217471   -0.802804
     13          6           0        0.000000   -1.322055    0.805065
     14          6           0        0.000000   -1.257471   -0.658804
     15          1           0        0.000000    2.400071    2.399647
     16          1           0        0.000000    4.660753    1.307689
     17          1           0        0.000000    4.669262   -1.204349
     18          1           0        0.000000    2.535550   -2.494059
     19          1           0        0.000000   -0.224000   -2.510266
     20          1           0        0.000000   -2.399550   -2.486059
     21          1           0        0.000000   -4.549262   -1.340349
     22          1           0        0.000000   -4.612753    1.115689
     23          1           0        0.000000   -2.576071    2.487647
     24          1           0       -0.859585    0.272000    2.145787
     25          1           0        0.859585    0.272000    2.145787
 ---------------------------------------------------------------------
                    Distance matrix (angstroms):
                    1          2          3          4          5
     1  C    0.000000
     2  C    1.382252   0.000000
     3  C    2.308225   1.349820   0.000000
     4  C    2.728959   2.511790   1.536749   0.000000
     5  C    5.691778   6.600922   6.295240   4.926318   0.000000
     6  C    6.476708   7.525671   7.369824   6.077677   1.272019
     7  C    6.193444   7.403746   7.505487   6.411051   2.329633
     8  C    4.986087   6.271187   6.554862   5.661764   2.808006
     9  C    2.460469   3.776610   4.247547   3.726543   3.824861
    10  C    3.812169   4.449222   3.973911   2.571217   2.355296
    11  C    1.511826   2.557442   2.807470   2.314012   4.181151
    12  C    2.479516   2.960166   2.540561   1.357788   3.760915
    13  C    3.860726   5.076211   5.271820   4.358890   2.500818
    14  C    4.249135   5.198272   5.009441   3.764648   1.444470
    15  H    1.088253   2.153978   3.313736   3.811312   6.198989
    16  H    2.156116   1.078795   2.136488   3.516433   7.652306
    17  H    3.322628   2.134735   1.084578   2.247676   7.167186
    18  H    3.810615   3.440822   2.229281   1.087543   5.147547
    19  H    4.699911   5.126497   4.399837   2.873509   2.526459
    20  H    6.205655   6.940067   6.426532   4.948769   1.086735
    21  H    7.537654   8.555553   8.331817   6.980781   2.055078
    22  H    7.120238   8.375425   8.543984   7.483551   3.291006
    23  H    5.213974   6.570697   7.052408   6.346335   3.892026
    24  H    2.532087   3.857628   4.531024   4.249165   4.581893
    25  H    2.532087   3.857628   4.531024   4.249165   4.581893
                    6          7          8          9         10
     6  C    0.000000
     7  C    1.422217   0.000000
     8  C    2.481185   1.407681   0.000000
     9  C    4.302302   3.790262   2.529129   0.000000
    10  C    3.532023   4.063961   3.675332   2.888682   0.000000
    11  C    5.003722   4.852081   3.780741   1.466154   2.390523
    12  C    4.833332   5.070683   4.306741   2.541255   1.495020
    13  C    2.800653   2.334800   1.304451   1.515701   2.527676
    14  C    2.362723   2.712407   2.398566   2.483048   1.357289
    15  H    6.814756   6.305917   4.981159   2.535287   4.594774
    16  H    8.541218   8.338667   7.142063   4.615053   5.526095
    17  H    8.294895   8.516463   7.610982   5.330997   4.814515
    18  H    6.379929   6.924755   6.352994   4.665843   2.879673
    19  H    3.797825   4.640323   4.518556   3.972957   1.084336
    20  H    2.077508   3.348123   3.891335   4.637844   2.494502
    21  H    1.077609   2.156961   3.436998   5.379561   4.410157
    22  H    2.161174   1.083309   2.151561   4.672970   5.146059
    23  H    3.449902   2.154162   1.087410   2.820546   4.612596
    24  H    4.954069   4.294784   2.977517   1.126279   3.699876
    25  H    4.954069   4.294784   2.977517   1.126279   3.699876
                   11         12         13         14         15
    11  C    0.000000
    12  C    1.351957   0.000000
    13  C    2.537059   3.005734   0.000000
    14  C    2.740112   2.479128   1.465293   0.000000
    15  H    2.204517   3.413830   4.049310   4.767781   0.000000
    16  H    3.540918   4.038610   6.003884   6.236383   2.510589
    17  H    3.885355   3.475068   6.319306   5.951788   4.258875
    18  H    3.322471   2.144219   5.075957   4.213688   4.895581
    19  H    3.375372   2.234562   3.492441   2.120371   5.567135
    20  H    4.709940   3.989510   3.463018   2.154810   6.848831
    21  H    6.053721   5.791732   3.875263   3.361606   7.891818
    22  H    5.842350   6.137762   3.305326   3.795622   7.129393
    23  H    4.246450   5.021756   2.098485   3.411577   4.976920
    24  H    2.037992   3.213564   2.253316   3.308156   2.309116
    25  H    2.037992   3.213564   2.253316   3.308156   2.309116
                   16         17         18         19         20
    16  H    0.000000
    17  H    2.512052   0.000000
    18  H    4.355431   2.493207   0.000000
    19  H    6.199806   5.064527   2.759598   0.000000
    20  H    8.015011   7.184072   4.935106   2.175685   0.000000
    21  H    9.583135   9.219527   7.178134   4.480692   2.435962
    22  H    9.275493   9.567569   8.008028   5.692864   4.227394
    23  H    7.332389   8.131770   7.137651   5.523710   4.976837
    24  H    4.549994   5.594480   5.233614   4.760644   5.415724
    25  H    4.549994   5.594480   5.233614   4.760644   5.415724
                   21         22         23         24         25
    21  H    0.000000
    22  H    2.456859   0.000000
    23  H    4.306627   2.455676   0.000000
    24  H    6.011372   5.065649   2.994539   0.000000
    25  H    6.011372   5.065649   2.994539   1.719170   0.000000
 Stoichiometry    C14H11(1+)
 Framework group  CS[SG(C14H9),X(H2)]
 Deg. of freedom    46
 Full point group                 CS      NOp   2
 Largest Abelian subgroup         CS      NOp   2
 Largest concise Abelian subgroup CS      NOp   2
                         Standard orientation:                         
 ---------------------------------------------------------------------
 Center     Atomic      Atomic             Coordinates (Angstroms)
 Number     Number       Type             X           Y           Z
 ---------------------------------------------------------------------
      1          6           0        0.156115    2.823959    0.000000
      2          6           0       -0.902046    3.713294    0.000000
      3          6           0       -2.128907    3.150419    0.000000
      4          6           0       -2.294173    1.622582    0.000000
      5          6           0       -0.238091   -2.854152    0.000000
      6          6           0        0.775201   -3.623093    0.000000
      7          6           0        2.082218   -3.062371    0.000000
      8          6           0        2.309486   -1.673157    0.000000
      9          6           0        1.302348    0.646792    0.000000
     10          6           0       -1.240905   -0.723006    0.000000
     11          6           0        0.000000    1.320216    0.000000
     12          6           0       -1.235821    0.772006    0.000000
     13          6           0        1.282563   -0.868779    0.000000
     14          6           0       -0.075561   -1.418855    0.000000
     15          1           0        1.184703    3.179348    0.000000
     16          1           0       -0.748536    4.781111    0.000000
     17          1           0       -3.036559    3.744116    0.000000
     18          1           0       -3.322050    1.267309    0.000000
     19          1           0       -2.189118   -1.249006    0.000000
     20          1           0       -1.262313   -3.217416    0.000000
     21          1           0        0.673657   -4.695906    0.000000
     22          1           0        2.933619   -3.732203    0.000000
     23          1           0        3.334261   -1.309430    0.000000
     24          1           0        1.838883    1.138471    0.859585
     25          1           0        1.838883    1.138471   -0.859585
 ---------------------------------------------------------------------
 Rotational constants (GHZ):           2.1294927           0.4442771           0.3683853
 Standard basis: 6-311++G(d,p) (5D, 7F)
 There are   299 symmetry adapted cartesian basis functions of A'  symmetry.
 There are   100 symmetry adapted cartesian basis functions of A"  symmetry.
 There are   285 symmetry adapted basis functions of A'  symmetry.
 There are   100 symmetry adapted basis functions of A"  symmetry.
   385 basis functions,   603 primitive gaussians,   399 cartesian basis functions
    47 alpha electrons       47 beta electrons
       nuclear repulsion energy       781.1492164695 Hartrees.
 NAtoms=   25 NActive=   25 NUniq=   24 SFac= 1.09D+00 NAtFMM=   60 NAOKFM=F Big=F
 Integral buffers will be    131072 words long.
 Regular integral format.
 Two-electron integral symmetry is turned on.
 Nuclear repulsion after empirical dispersion term =      781.1482403496 Hartrees.
 One-electron integrals computed using PRISM.
 NBasis=   385 RedAO= T EigKep=  1.99D-06  NBF=   285   100
 NBsUse=   378 1.00D-06 EigRej=  9.87D-07 NBFU=   278   100
 ExpMin= 3.60D-02 ExpMax= 4.56D+03 ExpMxC= 6.82D+02 IAcc=3 IRadAn=         5 AccDes= 0.00D+00
 Harris functional with IExCor= 1009 and IRadAn=       5 diagonalized for initial guess.
 HarFok:  IExCor= 1009 AccDes= 0.00D+00 IRadAn=         5 IDoV= 1 UseB2=F ITyADJ=14
 ICtDFT=  3500011 ScaDFX=  1.000000  1.000000  1.000000  1.000000
 FoFCou: FMM=F IPFlag=           0 FMFlag=      100000 FMFlg1=           0
         NFxFlg=           0 DoJE=T BraDBF=F KetDBF=T FulRan=T
         wScrn=  0.000000 ICntrl=       500 IOpCl=  0 I1Cent=   200000004 NGrid=           0
         NMat0=    1 NMatS0=      1 NMatT0=    0 NMatD0=    1 NMtDS0=    0 NMtDT0=    0
 Petite list used in FoFCou.
 Initial guess orbital symmetries:
       Occupied  (A') (A') (A') (A') (A') (A') (A') (A') (A') (A')
                 (A') (A') (A') (A') (A') (A') (A') (A') (A') (A')
                 (A') (A') (A') (A') (A') (A') (A') (A') (A') (A')
                 (A') (A') (A') (A") (A') (A') (A') (A') (A") (A')
                 (A') (A") (A') (A") (A") (A") (A")
       Virtual   (A") (A") (A") (A") (A") (A') (A') (A') (A') (A")
                 (A") (A') (A') (A') (A') (A") (A') (A') (A') (A')
                 (A") (A') (A") (A') (A') (A") (A') (A') (A") (A')
                 (A') (A') (A') (A") (A') (A') (A') (A') (A") (A')
                 (A") (A') (A") (A') (A') (A') (A') (A') (A") (A')
                 (A') (A') (A") (A") (A') (A') (A') (A") (A') (A")
                 (A') (A') (A') (A') (A') (A") (A') (A') (A') (A")
                 (A') (A') (A') (A') (A') (A') (A') (A') (A') (A')
                 (A') (A') (A') (A') (A') (A') (A') (A') (A') (A')
                 (A') (A') (A') (A') (A') (A') (A") (A') (A") (A')
                 (A") (A') (A") (A') (A") (A') (A') (A") (A") (A")
                 (A') (A') (A") (A') (A") (A') (A') (A") (A') (A")
                 (A") (A') (A') (A') (A') (A") (A') (A") (A') (A')
                 (A') (A') (A') (A') (A') (A') (A") (A') (A') (A')
                 (A') (A') (A') (A') (A') (A') (A') (A") (A') (A")
                 (A') (A") (A') (A") (A') (A') (A') (A") (A") (A')
                 (A") (A') (A") (A") (A") (A') (A') (A') (A') (A")
                 (A') (A') (A') (A') (A") (A') (A') (A') (A") (A')
                 (A') (A") (A') (A') (A") (A') (A') (A") (A") (A")
                 (A') (A') (A') (A") (A') (A') (A") (A') (A') (A")
                 (A") (A') (A") (A") (A') (A') (A") (A') (A') (A")
                 (A') (A") (A') (A') (A") (A') (A") (A') (A') (A")
                 (A') (A') (A') (A") (A') (A') (A") (A') (A') (A")
                 (A') (A') (A") (A') (A') (A") (A') (A") (A") (A')
                 (A') (A') (A") (A') (A') (A') (A') (A') (A") (A')
                 (A') (A') (A") (A") (A') (A') (A") (A') (A') (A')
                 (A") (A') (A') (A") (A') (A') (A') (A") (A") (A')
                 (A') (A') (A') (A") (A") (A') (A') (A") (A') (A")
                 (A') (A") (A') (A") (A") (A') (A') (A') (A') (A')
                 (A') (A') (A') (A') (A') (A') (A') (A') (A') (A')
                 (A') (A') (A") (A') (A') (A') (A') (A') (A') (A')
                 (A') (A') (A') (A') (A') (A') (A') (A') (A') (A')
                 (A') (A') (A') (A') (A') (A') (A') (A') (A') (A')
                 (A')
 The electronic state of the initial guess is 1-A'.
 Requested convergence on RMS density matrix=1.00D-08 within 128 cycles.
 Requested convergence on MAX density matrix=1.00D-06.
 Requested convergence on             energy=1.00D-06.
 No special actions if energy rises.
 SCF Done:  E(RM062X) =  -539.687326947     A.U. after   16 cycles
            NFock= 16  Conv=0.19D-08     -V/T= 2.0037
 DoSCS=F DFT=T ScalE2(SS,OS)=  1.000000  1.000000
 ExpMin= 3.60D-02 ExpMax= 4.56D+03 ExpMxC= 6.82D+02 IAcc=3 IRadAn=         5 AccDes= 0.00D+00
 HarFok:  IExCor=  205 AccDes= 0.00D+00 IRadAn=         5 IDoV=-2 UseB2=F ITyADJ=14
 ICtDFT= 12500011 ScaDFX=  1.000000  1.000000  1.000000  1.000000
 Range of M.O.s used for correlation:    15   378
 NBasis=   385 NAE=    47 NBE=    47 NFC=    14 NFV=     0
 NROrb=    364 NOA=    33 NOB=    33 NVA=   331 NVB=   331

 **** Warning!!: The largest alpha MO coefficient is  0.12790697D+03

 Orbital symmetries:
       Occupied  (A') (A') (A') (A') (A') (A') (A') (A') (A') (A')
                 (A') (A') (A') (A') (A') (A') (A') (A') (A') (A')
                 (A') (A') (A') (A') (A') (A') (A') (A') (A') (A')
                 (A') (A") (A') (A') (A') (A') (A") (A') (A') (A")
                 (A') (A') (A') (A") (A") (A") (A")
       Virtual   (A") (A") (A") (A") (A') (A') (A') (A') (A") (A')
                 (A') (A") (A') (A') (A") (A') (A") (A') (A') (A')
                 (A") (A") (A') (A') (A') (A") (A') (A') (A") (A')
                 (A") (A') (A") (A') (A') (A') (A') (A") (A') (A')
                 (A") (A') (A') (A") (A") (A") (A') (A') (A') (A')
                 (A") (A') (A') (A') (A') (A") (A') (A') (A') (A')
                 (A') (A") (A') (A') (A') (A") (A') (A') (A') (A')
                 (A') (A') (A') (A') (A') (A') (A') (A') (A') (A')
                 (A') (A') (A') (A') (A') (A') (A') (A') (A') (A')
                 (A') (A') (A') (A") (A") (A') (A") (A') (A') (A')
                 (A") (A') (A') (A") (A") (A') (A") (A') (A') (A")
                 (A') (A") (A') (A") (A') (A') (A") (A') (A") (A")
                 (A') (A") (A') (A') (A') (A') (A") (A') (A') (A')
                 (A') (A') (A') (A') (A') (A') (A') (A') (A') (A')
                 (A') (A') (A') (A") (A') (A') (A') (A') (A') (A")
                 (A') (A') (A') (A') (A") (A") (A") (A') (A") (A')
                 (A") (A") (A') (A') (A") (A") (A') (A") (A') (A')
                 (A") (A') (A') (A') (A') (A") (A') (A") (A') (A')
                 (A') (A') (A") (A") (A') (A') (A") (A") (A') (A")
                 (A') (A') (A") (A') (A') (A") (A') (A') (A") (A')
                 (A") (A') (A") (A") (A') (A") (A') (A') (A') (A')
                 (A") (A") (A') (A') (A') (A") (A") (A') (A") (A')
                 (A') (A') (A') (A") (A') (A') (A") (A') (A") (A')
                 (A') (A') (A") (A') (A') (A') (A") (A") (A') (A")
                 (A') (A') (A") (A') (A') (A') (A') (A') (A') (A")
                 (A') (A') (A') (A') (A") (A') (A") (A') (A") (A')
                 (A') (A') (A') (A') (A") (A') (A') (A') (A') (A')
                 (A") (A') (A") (A") (A") (A') (A") (A') (A") (A')
                 (A") (A") (A') (A") (A") (A') (A') (A') (A') (A')
                 (A') (A') (A') (A') (A') (A') (A') (A') (A') (A')
                 (A') (A') (A") (A') (A') (A') (A') (A') (A') (A')
                 (A') (A') (A') (A') (A') (A') (A') (A') (A') (A')
                 (A') (A') (A') (A') (A') (A') (A') (A') (A') (A')
                 (A')
     4 initial guesses have been made.
 Convergence on wavefunction:    0.001000000000000
 Iteration     1 Dimension     4 NMult     0 NNew      4
 CISAX will form     4 AO SS matrices at one time.
 Iteration     2 Dimension     6 NMult     4 NNew      2
 Iteration     3 Dimension     8 NMult     6 NNew      2
 Iteration     4 Dimension    10 NMult     8 NNew      2
 Iteration     5 Dimension    12 NMult    10 NNew      2
 Iteration     6 Dimension    14 NMult    12 NNew      2
 ***********************************************************************
 Excited states from <AA,BB:AA,BB> singles matrix:
 ***********************************************************************
 
 Ground to excited state transition densities written to RWF  633
 Ground to excited state transition electric dipole moments (Au):
       state          X           Y           Z        Dip. S.      Osc.
         1         0.2509      0.4497     -0.0000      0.2651      0.0137
 Ground to excited state transition velocity dipole moments (Au):
       state          X           Y           Z        Dip. S.      Osc.
         1        -0.0273     -0.0322     -0.0000      0.0018      0.0154
 Ground to excited state transition magnetic dipole moments (Au):
       state          X           Y           Z
         1         0.0000      0.0000     -0.0203
 Ground to excited state transition velocity quadrupole moments (Au):
       state          XX          YY          ZZ          XY          XZ          YZ
         1         0.0893      0.0564     -0.0054     -0.1037      0.0000     -0.0000
 <0|del|b> * <b|rxdel|0> + <0|del|b> * <b|delr+rdel|0>
 Rotatory Strengths (R) in cgs (10**-40 erg-esu-cm/Gauss)
       state          XX          YY          ZZ    R(velocity)    E-M Angle
         1        -0.0000     -0.0000     -0.0000     -0.0000       90.00
 1/2[<0|r|b>*<b|rxdel|0> + (<0|rxdel|b>*<b|r|0>)*]
 Rotatory Strengths (R) in cgs (10**-40 erg-esu-cm/Gauss)
       state          XX          YY          ZZ     R(length)
         1        -0.0000     -0.0000     -0.0000     -0.0000
  1/2[<0|del|b>*<b|r|0> + (<0|r|b>*<b|del|0>)*] (Au)
       state          X           Y           Z        Dip. S.   Osc.(frdel)
         1        -0.0069     -0.0145      0.0000      0.0214      0.0142

 Excitation energies and oscillator strengths:
 
 Excited State   1:      Singlet-A'     2.1013 eV  590.04 nm  f=0.0137  <S**2>=0.000
      47 -> 48         0.70272
 This state for optimization and/or second-order correction.
 Total Energy, E(TD-HF/TD-DFT) =  -539.610105537    
 Copying the excited state density for this state as the 1-particle RhoCI density.
 SavETr:  write IOETrn=   770 NScale= 10 NData=  16 NLR=1 NState=    1 LETran=      28.

 **********************************************************************

            Population analysis using the SCF Density.

 **********************************************************************

 Orbital symmetries:
       Occupied  (A') (A') (A') (A') (A') (A') (A') (A') (A') (A')
                 (A') (A') (A') (A') (A') (A') (A') (A') (A') (A')
                 (A') (A') (A') (A') (A') (A') (A') (A') (A') (A')
                 (A') (A") (A') (A') (A') (A') (A") (A') (A') (A")
                 (A') (A') (A') (A") (A") (A") (A")
       Virtual   (A") (A") (A") (A") (A') (A') (A') (A') (A") (A')
                 (A') (A") (A') (A') (A") (A') (A") (A') (A') (A')
                 (A") (A") (A') (A') (A') (A") (A') (A') (A") (A')
                 (A") (A') (A") (A') (A') (A') (A') (A") (A') (A')
                 (A") (A') (A') (A") (A") (A") (A') (A') (A') (A')
                 (A") (A') (A') (A') (A') (A") (A') (A') (A') (A')
                 (A') (A") (A') (A') (A') (A") (A') (A') (A') (A')
                 (A') (A') (A') (A') (A') (A') (A') (A') (A') (A')
                 (A') (A') (A') (A') (A') (A') (A') (A') (A') (A')
                 (A') (A') (A') (A") (A") (A') (A") (A') (A') (A')
                 (A") (A') (A') (A") (A") (A') (A") (A') (A') (A")
                 (A') (A") (A') (A") (A') (A') (A") (A') (A") (A")
                 (A') (A") (A') (A') (A') (A') (A") (A') (A') (A')
                 (A') (A') (A') (A') (A') (A') (A') (A') (A') (A')
                 (A') (A') (A') (A") (A') (A') (A') (A') (A') (A")
                 (A') (A') (A') (A') (A") (A") (A") (A') (A") (A')
                 (A") (A") (A') (A') (A") (A") (A') (A") (A') (A')
                 (A") (A') (A') (A') (A') (A") (A') (A") (A') (A')
                 (A') (A') (A") (A") (A') (A') (A") (A") (A') (A")
                 (A') (A') (A") (A') (A') (A") (A') (A') (A") (A')
                 (A") (A') (A") (A") (A') (A") (A') (A') (A') (A')
                 (A") (A") (A') (A') (A') (A") (A") (A') (A") (A')
                 (A') (A') (A') (A") (A') (A') (A") (A') (A") (A')
                 (A') (A') (A") (A') (A') (A') (A") (A") (A') (A")
                 (A') (A') (A") (A') (A') (A') (A') (A') (A') (A")
                 (A') (A') (A') (A') (A") (A') (A") (A') (A") (A')
                 (A') (A') (A') (A') (A") (A') (A') (A') (A') (A')
                 (A") (A') (A") (A") (A") (A') (A") (A') (A") (A')
                 (A") (A") (A') (A") (A") (A') (A') (A') (A') (A')
                 (A') (A') (A') (A') (A') (A') (A') (A') (A') (A')
                 (A') (A') (A") (A') (A') (A') (A') (A') (A') (A')
                 (A') (A') (A') (A') (A') (A') (A') (A') (A') (A')
                 (A') (A') (A') (A') (A') (A') (A') (A') (A') (A')
                 (A')
 The electronic state is 1-A'.
 Alpha  occ. eigenvalues --  -10.77089 -10.74889 -10.74416 -10.73222 -10.71886
 Alpha  occ. eigenvalues --  -10.71763 -10.71523 -10.71104 -10.71040 -10.70125
 Alpha  occ. eigenvalues --  -10.69961 -10.69189 -10.69067 -10.68303  -1.17202
 Alpha  occ. eigenvalues --   -1.12562  -1.07103  -1.06570  -1.01370  -1.01133
 Alpha  occ. eigenvalues --   -0.94791  -0.90582  -0.86513  -0.85766  -0.83733
 Alpha  occ. eigenvalues --   -0.77640  -0.76700  -0.74152  -0.70615  -0.69728
 Alpha  occ. eigenvalues --   -0.67853  -0.67649  -0.67345  -0.66410  -0.64245
 Alpha  occ. eigenvalues --   -0.61863  -0.61460  -0.61100  -0.58675  -0.58256
 Alpha  occ. eigenvalues --   -0.56295  -0.55723  -0.52748  -0.52380  -0.49940
 Alpha  occ. eigenvalues --   -0.46311  -0.41328
 Alpha virt. eigenvalues --   -0.26245  -0.14915  -0.13921  -0.12574  -0.11294
 Alpha virt. eigenvalues --   -0.10176  -0.09443  -0.07844  -0.07615  -0.07532
 Alpha virt. eigenvalues --   -0.07309  -0.06968  -0.05680  -0.05512  -0.05438
 Alpha virt. eigenvalues --   -0.04017  -0.03807  -0.03260  -0.03135  -0.02039
 Alpha virt. eigenvalues --   -0.01306  -0.01097   0.00110   0.00449   0.00648
 Alpha virt. eigenvalues --    0.01108   0.01400   0.01946   0.01981   0.02219
 Alpha virt. eigenvalues --    0.02360   0.02743   0.03014   0.03396   0.03867
 Alpha virt. eigenvalues --    0.04340   0.04522   0.04966   0.05180   0.05435
 Alpha virt. eigenvalues --    0.05973   0.06211   0.06429   0.07121   0.07405
 Alpha virt. eigenvalues --    0.07969   0.08016   0.08157   0.08550   0.08817
 Alpha virt. eigenvalues --    0.08945   0.09580   0.09906   0.09947   0.10811
 Alpha virt. eigenvalues --    0.11198   0.11481   0.11909   0.12289   0.13044
 Alpha virt. eigenvalues --    0.13349   0.13533   0.13777   0.14304   0.15108
 Alpha virt. eigenvalues --    0.16074   0.16632   0.17120   0.17257   0.17874
 Alpha virt. eigenvalues --    0.18893   0.19692   0.19980   0.20797   0.21061
 Alpha virt. eigenvalues --    0.21619   0.21922   0.22824   0.23640   0.24031
 Alpha virt. eigenvalues --    0.24202   0.25167   0.26860   0.27047   0.28606
 Alpha virt. eigenvalues --    0.29318   0.30050   0.31268   0.34900   0.36515
 Alpha virt. eigenvalues --    0.38114   0.39392   0.40375   0.40404   0.41323
 Alpha virt. eigenvalues --    0.41708   0.43127   0.43170   0.44461   0.44769
 Alpha virt. eigenvalues --    0.44789   0.45235   0.46081   0.47202   0.48073
 Alpha virt. eigenvalues --    0.48436   0.49198   0.49381   0.51024   0.51131
 Alpha virt. eigenvalues --    0.51937   0.52156   0.52594   0.54083   0.54937
 Alpha virt. eigenvalues --    0.55106   0.55182   0.56933   0.57837   0.58418
 Alpha virt. eigenvalues --    0.59487   0.61676   0.61747   0.62468   0.63243
 Alpha virt. eigenvalues --    0.63749   0.63817   0.65653   0.67880   0.69488
 Alpha virt. eigenvalues --    0.69753   0.72054   0.72823   0.73411   0.74812
 Alpha virt. eigenvalues --    0.75726   0.76267   0.76965   0.77466   0.78293
 Alpha virt. eigenvalues --    0.78719   0.79068   0.80119   0.80403   0.80418
 Alpha virt. eigenvalues --    0.81867   0.82970   0.83610   0.86099   0.86715
 Alpha virt. eigenvalues --    0.87090   0.87731   0.89067   0.89727   0.90693
 Alpha virt. eigenvalues --    0.91298   0.94176   0.94530   0.96362   0.96891
 Alpha virt. eigenvalues --    0.97485   1.01217   1.01600   1.02400   1.03743
 Alpha virt. eigenvalues --    1.03975   1.05342   1.05777   1.09159   1.19774
 Alpha virt. eigenvalues --    1.20223   1.21924   1.23783   1.29455   1.31024
 Alpha virt. eigenvalues --    1.31351   1.33331   1.35661   1.36349   1.37769
 Alpha virt. eigenvalues --    1.39824   1.40205   1.41393   1.42883   1.43885
 Alpha virt. eigenvalues --    1.44588   1.45739   1.46725   1.46900   1.48121
 Alpha virt. eigenvalues --    1.49171   1.52502   1.53224   1.54038   1.55988
 Alpha virt. eigenvalues --    1.56242   1.56784   1.57093   1.61631   1.62598
 Alpha virt. eigenvalues --    1.63618   1.64811   1.64951   1.67863   1.68875
 Alpha virt. eigenvalues --    1.69947   1.70034   1.74266   1.76111   1.76280
 Alpha virt. eigenvalues --    1.77909   1.78438   1.79731   1.80539   1.82026
 Alpha virt. eigenvalues --    1.82145   1.83208   1.83666   1.84868   1.85076
 Alpha virt. eigenvalues --    1.86636   1.87835   1.88275   1.91071   1.92088
 Alpha virt. eigenvalues --    1.93646   1.97726   1.98033   1.98357   1.99469
 Alpha virt. eigenvalues --    2.03317   2.07361   2.07583   2.10836   2.13382
 Alpha virt. eigenvalues --    2.15725   2.15748   2.18640   2.21972   2.22146
 Alpha virt. eigenvalues --    2.26283   2.30686   2.31809   2.33986   2.35678
 Alpha virt. eigenvalues --    2.38510   2.39480   2.41099   2.42338   2.45225
 Alpha virt. eigenvalues --    2.46019   2.47584   2.52306   2.53502   2.55339
 Alpha virt. eigenvalues --    2.56236   2.57200   2.58786   2.59168   2.60312
 Alpha virt. eigenvalues --    2.61320   2.62292   2.62994   2.63749   2.64570
 Alpha virt. eigenvalues --    2.64852   2.66114   2.67122   2.67963   2.70151
 Alpha virt. eigenvalues --    2.70840   2.73313   2.73574   2.74572   2.76292
 Alpha virt. eigenvalues --    2.76645   2.79231   2.81935   2.84141   2.84923
 Alpha virt. eigenvalues --    2.86187   2.91989   2.98947   2.99064   3.00345
 Alpha virt. eigenvalues --    3.03899   3.04710   3.08395   3.13174   3.15924
 Alpha virt. eigenvalues --    3.18158   3.23429   3.29230   3.31762   3.33513
 Alpha virt. eigenvalues --    3.34493   3.44851   3.46889   3.48028   3.49023
 Alpha virt. eigenvalues --    3.55716   3.55969   3.58915   3.68186   3.71511
 Alpha virt. eigenvalues --    3.90535   3.90924   3.93545   3.96716   4.02745
 Alpha virt. eigenvalues --    4.03657   4.07121   4.11556   4.33310   4.54286
 Alpha virt. eigenvalues --    4.63008   4.66686  23.44178  23.56890  23.68928
 Alpha virt. eigenvalues --   23.71263  23.75426  23.86222  23.91034  23.91496
 Alpha virt. eigenvalues --   23.99762  24.05385  24.15872  24.18276  24.26534
 Alpha virt. eigenvalues --   24.42503
          Condensed to atoms (all electrons):
               1          2          3          4          5          6
     1  C    8.860784   0.742783  -0.814584   1.552637   0.215915  -0.129797
     2  C    0.742783   6.775270   0.415110  -0.377156  -0.117193  -0.035106
     3  C   -0.814584   0.415110   6.240717   0.334636  -0.029568   0.023440
     4  C    1.552637  -0.377156   0.334636   8.578067   0.143104   0.000357
     5  C    0.215915  -0.117193  -0.029568   0.143104   8.139827   0.269310
     6  C   -0.129797  -0.035106   0.023440   0.000357   0.269310   6.985641
     7  C   -0.044067   0.020037  -0.015109  -0.137546  -0.449377   0.595616
     8  C    0.241206   0.018502  -0.067151  -0.234243   1.250357  -0.602415
     9  C   -2.085356  -0.372001  -0.004502  -0.771572  -0.908797   0.055375
    10  C   -0.886642  -0.044298  -0.042995  -0.889030  -1.593891   0.033110
    11  C   -0.665686  -0.689735   0.414982  -2.038368  -0.204162  -0.373518
    12  C   -0.713123   0.025807  -0.156534   0.433715  -0.506065   0.407220
    13  C   -0.512565   0.095425  -0.055251  -1.882618  -0.917925  -0.189284
    14  C   -0.288944  -0.401020  -0.212286   1.004798   0.187011  -0.988824
    15  H    0.313423  -0.077895   0.010176   0.015976   0.004607   0.001753
    16  H   -0.021132   0.383579  -0.016896   0.013453  -0.000835  -0.000370
    17  H   -0.020384  -0.024794   0.386386  -0.053116   0.000074   0.000460
    18  H    0.051590   0.003796  -0.081315   0.410365   0.019709  -0.002080
    19  H   -0.059411  -0.008799   0.042963  -0.068020  -0.023434   0.058631
    20  H    0.014305   0.002093  -0.004118   0.009047   0.433573  -0.095926
    21  H   -0.001777  -0.000428   0.000343   0.000572  -0.045778   0.389585
    22  H    0.001999   0.000474  -0.000243  -0.002379   0.020371  -0.029719
    23  H    0.005895  -0.002426   0.000436   0.006171   0.013266  -0.005131
    24  H    0.008169   0.012778  -0.000171  -0.017562  -0.001896  -0.001409
    25  H    0.008169   0.012778  -0.000171  -0.017562  -0.001896  -0.001409
               7          8          9         10         11         12
     1  C   -0.044067   0.241206  -2.085356  -0.886642  -0.665686  -0.713123
     2  C    0.020037   0.018502  -0.372001  -0.044298  -0.689735   0.025807
     3  C   -0.015109  -0.067151  -0.004502  -0.042995   0.414982  -0.156534
     4  C   -0.137546  -0.234243  -0.771572  -0.889030  -2.038368   0.433715
     5  C   -0.449377   1.250357  -0.908797  -1.593891  -0.204162  -0.506065
     6  C    0.595616  -0.602415   0.055375   0.033110  -0.373518   0.407220
     7  C    6.708476   0.972213  -0.134303  -0.198383  -0.124749  -0.359871
     8  C    0.972213   8.022310  -0.771693  -0.918279   0.350522  -1.299356
     9  C   -0.134303  -0.771693   7.836190   1.197695   0.491692   0.780793
    10  C   -0.198383  -0.918279   1.197695   7.077785   0.451013   0.726180
    11  C   -0.124749   0.350522   0.491692   0.451013   9.431009   0.250097
    12  C   -0.359871  -1.299356   0.780793   0.726180   0.250097   7.634426
    13  C   -0.251076   0.530856   1.129937   0.850730   0.989547  -2.031203
    14  C   -0.543131  -1.843278  -0.713186   0.049153  -2.439344   0.579045
    15  H   -0.003003  -0.000237   0.061023  -0.002898  -0.022976   0.017775
    16  H    0.000143  -0.000403  -0.007640  -0.005210  -0.003277  -0.003432
    17  H   -0.000339  -0.001149   0.003283   0.002737   0.030631   0.026797
    18  H    0.000158   0.002387  -0.027295   0.026462  -0.002448  -0.075907
    19  H   -0.000131  -0.030030   0.072915   0.409448   0.028823   0.055322
    20  H    0.013050   0.036585  -0.029599   0.016446   0.014782  -0.043199
    21  H   -0.031737  -0.000454  -0.000614   0.007933  -0.008010   0.006113
    22  H    0.380313  -0.014103   0.003541  -0.009278   0.004019  -0.014041
    23  H   -0.076526   0.361368   0.025628  -0.005627  -0.020614   0.007178
    24  H    0.013820   0.039675   0.360462   0.005159  -0.018377  -0.034464
    25  H    0.013820   0.039675   0.360462   0.005159  -0.018377  -0.034464
              13         14         15         16         17         18
     1  C   -0.512565  -0.288944   0.313423  -0.021132  -0.020384   0.051590
     2  C    0.095425  -0.401020  -0.077895   0.383579  -0.024794   0.003796
     3  C   -0.055251  -0.212286   0.010176  -0.016896   0.386386  -0.081315
     4  C   -1.882618   1.004798   0.015976   0.013453  -0.053116   0.410365
     5  C   -0.917925   0.187011   0.004607  -0.000835   0.000074   0.019709
     6  C   -0.189284  -0.988824   0.001753  -0.000370   0.000460  -0.002080
     7  C   -0.251076  -0.543131  -0.003003   0.000143  -0.000339   0.000158
     8  C    0.530856  -1.843278  -0.000237  -0.000403  -0.001149   0.002387
     9  C    1.129937  -0.713186   0.061023  -0.007640   0.003283  -0.027295
    10  C    0.850730   0.049153  -0.002898  -0.005210   0.002737   0.026462
    11  C    0.989547  -2.439344  -0.022976  -0.003277   0.030631  -0.002448
    12  C   -2.031203   0.579045   0.017775  -0.003432   0.026797  -0.075907
    13  C   11.874816  -3.000214  -0.012934  -0.002205  -0.002678  -0.020910
    14  C   -3.000214  14.273496   0.002770  -0.001756  -0.002886   0.023866
    15  H   -0.012934   0.002770   0.469518  -0.008410   0.000523  -0.000720
    16  H   -0.002205  -0.001756  -0.008410   0.431441  -0.005651   0.001828
    17  H   -0.002678  -0.002886   0.000523  -0.005651   0.426710  -0.007366
    18  H   -0.020910   0.023866  -0.000720   0.001828  -0.007366   0.454740
    19  H    0.073469  -0.186862   0.000246  -0.000620   0.001357  -0.009215
    20  H   -0.022790  -0.010713  -0.000054   0.000034  -0.000178   0.001374
    21  H   -0.016037   0.041026   0.000012  -0.000007   0.000010  -0.000136
    22  H    0.037754  -0.040247  -0.000183   0.000006  -0.000006   0.000006
    23  H   -0.029020   0.060527   0.000424  -0.000081   0.000015  -0.000071
    24  H    0.024909  -0.055527  -0.001694   0.000485  -0.000061   0.000212
    25  H    0.024909  -0.055527  -0.001694   0.000485  -0.000061   0.000212
              19         20         21         22         23         24
     1  C   -0.059411   0.014305  -0.001777   0.001999   0.005895   0.008169
     2  C   -0.008799   0.002093  -0.000428   0.000474  -0.002426   0.012778
     3  C    0.042963  -0.004118   0.000343  -0.000243   0.000436  -0.000171
     4  C   -0.068020   0.009047   0.000572  -0.002379   0.006171  -0.017562
     5  C   -0.023434   0.433573  -0.045778   0.020371   0.013266  -0.001896
     6  C    0.058631  -0.095926   0.389585  -0.029719  -0.005131  -0.001409
     7  C   -0.000131   0.013050  -0.031737   0.380313  -0.076526   0.013820
     8  C   -0.030030   0.036585  -0.000454  -0.014103   0.361368   0.039675
     9  C    0.072915  -0.029599  -0.000614   0.003541   0.025628   0.360462
    10  C    0.409448   0.016446   0.007933  -0.009278  -0.005627   0.005159
    11  C    0.028823   0.014782  -0.008010   0.004019  -0.020614  -0.018377
    12  C    0.055322  -0.043199   0.006113  -0.014041   0.007178  -0.034464
    13  C    0.073469  -0.022790  -0.016037   0.037754  -0.029020   0.024909
    14  C   -0.186862  -0.010713   0.041026  -0.040247   0.060527  -0.055527
    15  H    0.000246  -0.000054   0.000012  -0.000183   0.000424  -0.001694
    16  H   -0.000620   0.000034  -0.000007   0.000006  -0.000081   0.000485
    17  H    0.001357  -0.000178   0.000010  -0.000006   0.000015  -0.000061
    18  H   -0.009215   0.001374  -0.000136   0.000006  -0.000071   0.000212
    19  H    0.449984  -0.003266   0.001362  -0.000336   0.000138   0.000653
    20  H   -0.003266   0.454224  -0.010436   0.002049   0.000286   0.000056
    21  H    0.001362  -0.010436   0.416229  -0.006375   0.001818  -0.000141
    22  H   -0.000336   0.002049  -0.006375   0.402528  -0.006699   0.000565
    23  H    0.000138   0.000286   0.001818  -0.006699   0.420297  -0.000570
    24  H    0.000653   0.000056  -0.000141   0.000565  -0.000570   0.486320
    25  H    0.000653   0.000056  -0.000141   0.000565  -0.000570  -0.077652
              25
     1  C    0.008169
     2  C    0.012778
     3  C   -0.000171
     4  C   -0.017562
     5  C   -0.001896
     6  C   -0.001409
     7  C    0.013820
     8  C    0.039675
     9  C    0.360462
    10  C    0.005159
    11  C   -0.018377
    12  C   -0.034464
    13  C    0.024909
    14  C   -0.055527
    15  H   -0.001694
    16  H    0.000485
    17  H   -0.000061
    18  H    0.000212
    19  H    0.000653
    20  H    0.000056
    21  H   -0.000141
    22  H    0.000565
    23  H   -0.000570
    24  H   -0.077652
    25  H    0.486320
 Mulliken charges:
               1
     1  C    0.226593
     2  C   -0.357583
     3  C   -0.368294
     4  C   -0.013725
     5  C    0.103695
     6  C   -0.365511
     7  C   -0.348294
     8  C   -0.082866
     9  C   -0.552441
    10  C   -0.262481
    11  C    0.172523
    12  C    0.321193
    13  C   -0.685637
    14  C    0.562051
    15  H    0.234471
    16  H    0.246474
    17  H    0.239687
    18  H    0.230761
    19  H    0.194158
    20  H    0.222320
    21  H    0.257068
    22  H    0.269422
    23  H    0.243889
    24  H    0.256263
    25  H    0.256263
 Sum of Mulliken charges =   1.00000
 Mulliken charges with hydrogens summed into heavy atoms:
               1
     1  C    0.461065
     2  C   -0.111109
     3  C   -0.128606
     4  C    0.217035
     5  C    0.326015
     6  C   -0.108443
     7  C   -0.078873
     8  C    0.161024
     9  C   -0.039915
    10  C   -0.068322
    11  C    0.172523
    12  C    0.321193
    13  C   -0.685637
    14  C    0.562051
 Electronic spatial extent (au):  <R**2>=           2858.6621
 Charge=              1.0000 electrons
 Dipole moment (field-independent basis, Debye):
    X=              1.2733    Y=             -2.6671    Z=             -0.0000  Tot=              2.9555
 Quadrupole moment (field-independent basis, Debye-Ang):
   XX=            -52.4905   YY=            -34.0144   ZZ=            -84.1371
   XY=             -9.5086   XZ=             -0.0000   YZ=             -0.0000
 Traceless Quadrupole moment (field-independent basis, Debye-Ang):
   XX=              4.3901   YY=             22.8663   ZZ=            -27.2564
   XY=             -9.5086   XZ=             -0.0000   YZ=             -0.0000
 Octapole moment (field-independent basis, Debye-Ang**2):
  XXX=              8.8993  YYY=            -20.7707  ZZZ=             -0.0000  XYY=              9.0117
  XXY=            -13.8105  XXZ=             -0.0000  XZZ=              4.6568  YZZ=             -2.7979
  YYZ=             -0.0000  XYZ=             -0.0000
 Hexadecapole moment (field-independent basis, Debye-Ang**3):
 XXXX=           -903.8399 YYYY=          -1912.3800 ZZZZ=            -99.4209 XXXY=            314.9953
 XXXZ=             -0.0000 YYYX=            236.5251 YYYZ=              0.0000 ZZZX=             -0.0000
 ZZZY=             -0.0000 XXYY=           -459.5185 XXZZ=           -221.0334 YYZZ=           -515.1694
 XXYZ=             -0.0000 YYXZ=             -0.0000 ZZXY=            165.7664
 N-N= 7.811482403496D+02 E-N=-2.798704891539D+03  KE= 5.376755563009D+02
 Symmetry A'   KE= 5.229789467485D+02
 Symmetry A"   KE= 1.469660955238D+01
 Unable to Open any file for archive entry.
 1\1\GINC-GADI-CPU-CLX-0240\SP\RM062X TD-FC\6-311++G(d,p)\C14H11(1+)\TS
 1578\02-Aug-2022\0\\#n M062X/6-311++G(d,p) TD(NStates=1) EmpiricalDisp
 ersion=GD3 SP\\SP_-4\\1,1\C,0,0.,2.504655,1.316431\C,0,0.,3.753508,0.7
 23989\C,0,0.,3.751861,-0.62583\C,0,0.,2.431156,-1.411538\C,0,0.,-2.495
 156,-1.403538\C,0,0.,-3.615861,-0.80183\C,0,0.,-3.649508,0.619989\C,0,
 0.,-2.480655,1.404431\C,0,0.,0.048,1.453369\C,0,0.,-0.14,-1.429189\C,0
 ,0.,1.202055,0.549065\C,0,0.,1.217471,-0.802804\C,0,0.,-1.322055,0.805
 065\C,0,0.,-1.257471,-0.658804\H,0,0.,2.400071,2.399647\H,0,0.,4.66075
 3,1.307689\H,0,0.,4.669262,-1.204349\H,0,0.,2.53555,-2.494059\H,0,0.,-
 0.224,-2.510266\H,0,0.,-2.39955,-2.486059\H,0,0.,-4.549262,-1.340349\H
 ,0,0.,-4.612753,1.115689\H,0,0.,-2.576071,2.487647\H,0,-0.859585,0.272
 ,2.145787\H,0,0.859585,0.272,2.145787\\Version=ES64L-G16RevC.01\State=
 1-A'\HF=-539.6873269\RMSD=1.895e-09\PG=CS [SG(C14H9),X(H2)]\\@
 The archive entry for this job was punched.


          EVOLUTION
 IN THE BEGINNING GOD MADE MAN.
 HE WORKED THE DIRT WITH HIS HANDS.
 THEN GOD DECIDED TO GIVE MAN SCIENCE,
 MAN SHOULD BE USEFUL (LIKE AN APPLIANCE.)
 BUT SOON MAN'S KNOWLEDGE GREW TOO GREAT,
 TO THE HEADING SCIENCE HE COULDN'T RELATE
 SO GOD SAID "LETS HAVE DIFFERENT FIELDS,
 WE'LL DIVIDE THEM UP, SEE WHAT IT YIELDS."
 ENTER PHYSICS, CHEMISTRY, BIO
 THEY SPRANG UP AROUND THE NILE.
 BUT CHEMISTRY SURPASSED THE REST
 FAR AND AWAY IT WAS THE BEST.
 EXPERIMENT WAS GOD'S DECREE
 EXPERIMENT DID CHEMISTS WITH LOTS OF GLEE
 BUT SOON THEIR TESTS BEGAN TO BOG,
 THEY FOUND THEMSELVES DEEP IN A FOG.
 "GIVE US SOME HELP" THEY CRIED TO GOD.
 GOD LOOKED AROUND, THEN GAVE THE NOD.
 ENTER EINSTEIN, HEISENBERG, BOHR,
 REACTION PATHS WERE CLEAR ONCE MORE.
 WITH THEORISTS GOD SEND DIRECTION
 AND THEN HE STOPPED, HE'D MADE PERFECTION.
          -- THOMAS A. HOLME, 1981
 Job cpu time:       0 days  0 hours 53 minutes 39.6 seconds.
 Elapsed time:       0 days  0 hours  1 minutes  7.2 seconds.
 File lengths (MBytes):  RWF=    459 Int=      0 D2E=      0 Chk=     15 Scr=      1
 Normal termination of Gaussian 16 at Tue Aug  2 12:22:05 2022.
