 Entering Gaussian System, Link 0=g16
 Initial command:
 /apps/gaussian/g16c01/g16/l1.exe "/jobfs/53803565.gadi-pbs/Gau-1075715.inp" -scrdir="/jobfs/53803565.gadi-pbs/"
 Entering Link 1 = /apps/gaussian/g16c01/g16/l1.exe PID=   1075716.
  
 Copyright (c) 1988-2019, Gaussian, Inc.  All Rights Reserved.
  
 This is part of the Gaussian(R) 16 program.  It is based on
 the Gaussian(R) 09 system (copyright 2009, Gaussian, Inc.),
 the Gaussian(R) 03 system (copyright 2003, Gaussian, Inc.),
 the Gaussian(R) 98 system (copyright 1998, Gaussian, Inc.),
 the Gaussian(R) 94 system (copyright 1995, Gaussian, Inc.),
 the Gaussian 92(TM) system (copyright 1992, Gaussian, Inc.),
 the Gaussian 90(TM) system (copyright 1990, Gaussian, Inc.),
 the Gaussian 88(TM) system (copyright 1988, Gaussian, Inc.),
 the Gaussian 86(TM) system (copyright 1986, Carnegie Mellon
 University), and the Gaussian 82(TM) system (copyright 1983,
 Carnegie Mellon University). Gaussian is a federally registered
 trademark of Gaussian, Inc.
  
 This software contains proprietary and confidential information,
 including trade secrets, belonging to Gaussian, Inc.
  
 This software is provided under written license and may be
 used, copied, transmitted, or stored only in accord with that
 written license.
  
 The following legend is applicable only to US Government
 contracts under FAR:
  
                    RESTRICTED RIGHTS LEGEND
  
 Use, reproduction and disclosure by the US Government is
 subject to restrictions as set forth in subparagraphs (a)
 and (c) of the Commercial Computer Software - Restricted
 Rights clause in FAR 52.227-19.
  
 Gaussian, Inc.
 340 Quinnipiac St., Bldg. 40, Wallingford CT 06492
  
  
 ---------------------------------------------------------------
 Warning -- This program may not be used in any manner that
 competes with the business of Gaussian, Inc. or will provide
 assistance to any competitor of Gaussian, Inc.  The licensee
 of this program is prohibited from giving any competitor of
 Gaussian, Inc. access to this program.  By using this program,
 the user acknowledges that Gaussian, Inc. is engaged in the
 business of creating and licensing software in the field of
 computational chemistry and represents and warrants to the
 licensee that it is not a competitor of Gaussian, Inc. and that
 it will not use this program in any manner prohibited above.
 ---------------------------------------------------------------
  

 Cite this work as:
 Gaussian 16, Revision C.01,
 M. J. Frisch, G. W. Trucks, H. B. Schlegel, G. E. Scuseria, 
 M. A. Robb, J. R. Cheeseman, G. Scalmani, V. Barone, 
 G. A. Petersson, H. Nakatsuji, X. Li, M. Caricato, A. V. Marenich, 
 J. Bloino, B. G. Janesko, R. Gomperts, B. Mennucci, H. P. Hratchian, 
 J. V. Ortiz, A. F. Izmaylov, J. L. Sonnenberg, D. Williams-Young, 
 F. Ding, F. Lipparini, F. Egidi, J. Goings, B. Peng, A. Petrone, 
 T. Henderson, D. Ranasinghe, V. G. Zakrzewski, J. Gao, N. Rega, 
 G. Zheng, W. Liang, M. Hada, M. Ehara, K. Toyota, R. Fukuda, 
 J. Hasegawa, M. Ishida, T. Nakajima, Y. Honda, O. Kitao, H. Nakai, 
 T. Vreven, K. Throssell, J. A. Montgomery, Jr., J. E. Peralta, 
 F. Ogliaro, M. J. Bearpark, J. J. Heyd, E. N. Brothers, K. N. Kudin, 
 V. N. Staroverov, T. A. Keith, R. Kobayashi, J. Normand, 
 K. Raghavachari, A. P. Rendell, J. C. Burant, S. S. Iyengar, 
 J. Tomasi, M. Cossi, J. M. Millam, M. Klene, C. Adamo, R. Cammi, 
 J. W. Ochterski, R. L. Martin, K. Morokuma, O. Farkas, 
 J. B. Foresman, and D. J. Fox, Gaussian, Inc., Wallingford CT, 2019.
 
 ******************************************
 Gaussian 16:  ES64L-G16RevC.01  3-Jul-2019
                 2-Aug-2022 
 ******************************************
 %NProcShared=48
 Will use up to   48 processors via shared memory.
 %mem = 190GB
 ---------------------------------------------------------------
 #n M062X/6-311++G(d,p) TD(NStates=1) EmpiricalDispersion=GD3 SP
 ---------------------------------------------------------------
 1/38=1,172=1/1;
 2/12=2,17=6,18=5,40=1/2;
 3/5=4,6=6,7=1111,11=9,25=1,30=1,74=-55,124=31/1,2,3,8;
 4//1;
 5/5=2,38=5/2;
 8/6=1,10=2,108=1/1;
 9/41=1,42=1,70=2/14;
 6/7=2,8=2,9=2,10=2/1;
 99/5=1,9=1/99;
 -----
 SP_14
 -----
 Symbolic Z-matrix:
 Charge =  1 Multiplicity = 1
 C                     0.        2.29466   1.38243 
 C                     0.        3.45951   0.54999 
 C                     0.        3.54186  -0.94983 
 C                     0.        2.71916  -1.50154 
 C                     0.       -2.20716  -1.31354 
 C                     0.       -3.82586  -0.47783 
 C                     0.       -3.94351   0.79399 
 C                     0.       -2.69066   1.33843 
 C                     0.       -0.12      1.45337 
 C                     0.        0.418    -1.42919 
 C                     0.        1.40006   0.87307 
 C                     0.        1.35547  -0.7068 
 C                     0.       -1.12405   0.48107 
 C                     0.       -1.11947  -0.7548 
 H                     0.        2.47207   2.46565 
 H                     0.        4.40875   1.07969 
 H                     0.        4.56726  -1.33035 
 H                     0.        2.54155  -2.58406 
 H                     0.        0.412    -2.51027 
 H                     0.       -2.39355  -2.39606 
 H                     0.       -4.65126  -1.21435 
 H                     0.       -4.86475   1.34369 
 H                     0.       -2.50407   2.42165 
 H                    -0.85959  -0.664     2.14579 
 H                     0.85959  -0.664     2.14579 
 
                          Input orientation:                          
 ---------------------------------------------------------------------
 Center     Atomic      Atomic             Coordinates (Angstroms)
 Number     Number       Type             X           Y           Z
 ---------------------------------------------------------------------
      1          6           0        0.000000    2.294655    1.382431
      2          6           0        0.000000    3.459508    0.549989
      3          6           0        0.000000    3.541861   -0.949830
      4          6           0        0.000000    2.719156   -1.501538
      5          6           0        0.000000   -2.207156   -1.313538
      6          6           0        0.000000   -3.825861   -0.477830
      7          6           0        0.000000   -3.943508    0.793989
      8          6           0        0.000000   -2.690655    1.338431
      9          6           0        0.000000   -0.120000    1.453369
     10          6           0        0.000000    0.418000   -1.429189
     11          6           0        0.000000    1.400055    0.873065
     12          6           0        0.000000    1.355471   -0.706804
     13          6           0        0.000000   -1.124055    0.481065
     14          6           0        0.000000   -1.119471   -0.754804
     15          1           0        0.000000    2.472071    2.465647
     16          1           0        0.000000    4.408753    1.079689
     17          1           0        0.000000    4.567262   -1.330349
     18          1           0        0.000000    2.541550   -2.584059
     19          1           0        0.000000    0.412000   -2.510266
     20          1           0        0.000000   -2.393550   -2.396059
     21          1           0        0.000000   -4.651262   -1.214349
     22          1           0        0.000000   -4.864753    1.343689
     23          1           0        0.000000   -2.504071    2.421647
     24          1           0       -0.859585   -0.664000    2.145787
     25          1           0        0.859585   -0.664000    2.145787
 ---------------------------------------------------------------------
                    Distance matrix (angstroms):
                    1          2          3          4          5
     1  C    0.000000
     2  C    1.431727   0.000000
     3  C    2.644799   1.502078   0.000000
     4  C    2.915043   2.181028   0.990568   0.000000
     5  C    5.247338   5.965217   5.760510   4.929898   0.000000
     6  C    6.396975   7.357514   7.382825   6.624592   1.821706
     7  C    6.265855   7.407036   7.685809   7.047023   2.730675
     8  C    4.985504   6.200496   6.639307   6.109949   2.695684
     9  C    2.415697   3.691744   4.380022   4.097839   3.465832
    10  C    3.380391   3.628762   3.160426   2.302293   2.627702
    11  C    1.029448   2.084640   2.812522   2.716389   4.218199
    12  C    2.290626   2.450816   2.199855   1.578366   3.613923
    13  C    3.535539   4.584081   4.880393   4.324464   2.096117
    14  C    4.027906   4.761253   4.665410   3.910584   1.222801
    15  H    1.097649   2.155175   3.579097   3.974872   6.014766
    16  H    2.135665   1.087036   2.206909   3.085040   7.035466
    17  H    3.538915   2.182382   1.093728   1.856018   6.774439
    18  H    3.974167   3.265716   1.916071   1.096994   4.915733
    19  H    4.324058   4.318850   3.497283   2.518035   2.879607
    20  H    6.021317   6.552670   6.109066   5.190369   1.098451
    21  H    7.415459   8.300451   8.197392   7.376011   2.446118
    22  H    7.159513   8.362014   8.713862   8.100061   3.758148
    23  H    4.909963   6.250390   6.922438   6.532494   3.746968
    24  H    3.174152   4.504306   5.292542   5.048526   3.884218
    25  H    3.174152   4.504306   5.292542   5.048526   3.884218
                    6          7          8          9         10
     6  C    0.000000
     7  C    1.277249   0.000000
     8  C    2.141844   1.366037   0.000000
     9  C    4.178868   3.879948   2.573223   0.000000
    10  C    4.349188   4.895434   4.162146   2.932334   0.000000
    11  C    5.397695   5.344148   4.117095   1.627059   2.502959
    12  C    5.186389   5.507409   4.533665   2.615982   1.183508
    13  C    2.866921   2.836765   1.785865   1.397677   2.454996
    14  C    2.720526   3.220861   2.617299   2.423834   1.678872
    15  H    6.951835   6.629788   5.284350   2.782721   4.403289
    16  H    8.380617   8.357146   7.104121   4.544144   4.713871
    17  H    8.436309   8.771888   7.733030   5.451560   4.150439
    18  H    6.706722   7.312126   6.539258   4.835770   2.417269
    19  H    4.700028   5.467042   4.943575   3.999178   1.081094
    20  H    2.393975   3.546657   3.746290   4.470696   2.973155
    21  H    1.106231   2.129398   3.218799   5.258237   5.073813
    22  H    2.096957   1.072783   2.174104   4.746021   5.966266
    23  H    3.186549   2.172844   1.099168   2.573200   4.833988
    24  H    4.197573   3.649852   2.344790   1.230555   3.832762
    25  H    4.197573   3.649852   2.344790   1.230555   3.832762
                   11         12         13         14         15
    11  C    0.000000
    12  C    1.580498   0.000000
    13  C    2.554368   2.749378   0.000000
    14  C    2.999661   2.475407   1.235878   0.000000
    15  H    1.919775   3.363219   4.107394   4.823948   0.000000
    16  H    3.015785   3.537526   5.565098   5.824657   2.381516
    17  H    3.858268   3.271759   5.972630   5.715784   4.335829
    18  H    3.640703   2.220556   4.778247   4.092585   5.050184
    19  H    3.524653   2.035341   3.362667   2.329603   5.385499
    20  H    5.007855   4.112024   3.144751   2.077738   6.878259
    21  H    6.401229   6.028138   3.913517   3.561563   8.017746
    22  H    6.282460   6.549482   3.838872   4.293112   7.422114
    23  H    4.200036   4.968226   2.381240   3.465106   4.976337
    24  H    2.572748   3.599226   1.929206   3.059374   3.267436
    25  H    2.572748   3.599226   1.929206   3.059374   3.267436
                   16         17         18         19         20
    16  H    0.000000
    17  H    2.415245   0.000000
    18  H    4.112116   2.382288   0.000000
    19  H    5.372319   4.319538   2.130828   0.000000
    20  H    7.638858   7.041920   4.938680   2.807874   0.000000
    21  H    9.345934   9.219254   7.322066   5.226473   2.548274
    22  H    9.277263   9.803743   8.383348   6.534301   4.482472
    23  H    7.041874   8.005075   7.107418   5.729506   4.818974
    24  H    5.254358   6.339441   5.778052   4.855460   4.935443
    25  H    5.254358   6.339441   5.778052   4.855460   4.935443
                   21         22         23         24         25
    21  H    0.000000
    22  H    2.566931   0.000000
    23  H    4.222665   2.595152   0.000000
    24  H    5.284663   4.362175   2.049597   0.000000
    25  H    5.284663   4.362175   2.049597   1.719170   0.000000
 Stoichiometry    C14H11(1+)
 Framework group  CS[SG(C14H9),X(H2)]
 Deg. of freedom    46
 Full point group                 CS      NOp   2
 Largest Abelian subgroup         CS      NOp   2
 Largest concise Abelian subgroup CS      NOp   2
                         Standard orientation:                         
 ---------------------------------------------------------------------
 Center     Atomic      Atomic             Coordinates (Angstroms)
 Number     Number       Type             X           Y           Z
 ---------------------------------------------------------------------
      1          6           0       -2.177484   -1.566549    0.000000
      2          6           0       -1.872363   -2.965385    0.000000
      3          6           0       -0.526803   -3.632999    0.000000
      4          6           0        0.304821   -3.094829    0.000000
      5          6           0        2.076393    1.505761    0.000000
      6          6           0        1.947396    3.322894    0.000000
      7          6           0        0.825257    3.932950    0.000000
      8          6           0       -0.169461    2.996684    0.000000
      9          6           0       -1.289651    0.680081    0.000000
     10          6           0        1.146562   -0.951928    0.000000
     11          6           0       -1.356389   -0.945609    0.000000
     12          6           0        0.112821   -1.528185    0.000000
     13          6           0        0.000000    1.218878    0.000000
     14          6           0        1.133731    0.726895    0.000000
     15          1           0       -3.242786   -1.302040    0.000000
     16          1           0       -2.733708   -3.628509    0.000000
     17          1           0       -0.581878   -4.725340    0.000000
     18          1           0        1.369559   -3.358889    0.000000
     19          1           0        2.142245   -1.373093    0.000000
     20          1           0        3.144599    1.249776    0.000000
     21          1           0        2.949892    3.790600    0.000000
     22          1           0        0.683778    4.996363    0.000000
     23          1           0       -1.238381    3.252769    0.000000
     24          1           0       -1.711152    1.453201    0.859585
     25          1           0       -1.711152    1.453201   -0.859585
 ---------------------------------------------------------------------
 Rotational constants (GHZ):           2.1480044           0.4396551           0.3657424
 Standard basis: 6-311++G(d,p) (5D, 7F)
 There are   299 symmetry adapted cartesian basis functions of A'  symmetry.
 There are   100 symmetry adapted cartesian basis functions of A"  symmetry.
 There are   285 symmetry adapted basis functions of A'  symmetry.
 There are   100 symmetry adapted basis functions of A"  symmetry.
   385 basis functions,   603 primitive gaussians,   399 cartesian basis functions
    47 alpha electrons       47 beta electrons
       nuclear repulsion energy       787.1824217030 Hartrees.
 NAtoms=   25 NActive=   25 NUniq=   24 SFac= 1.09D+00 NAtFMM=   60 NAOKFM=F Big=F
 Integral buffers will be    131072 words long.
 Regular integral format.
 Two-electron integral symmetry is turned on.
 Nuclear repulsion after empirical dispersion term =      787.1814757915 Hartrees.
 One-electron integrals computed using PRISM.
 NBasis=   385 RedAO= T EigKep=  1.25D-06  NBF=   285   100
 NBsUse=   379 1.00D-06 EigRej=  6.44D-07 NBFU=   279   100
 ExpMin= 3.60D-02 ExpMax= 4.56D+03 ExpMxC= 6.82D+02 IAcc=3 IRadAn=         5 AccDes= 0.00D+00
 Harris functional with IExCor= 1009 and IRadAn=       5 diagonalized for initial guess.
 HarFok:  IExCor= 1009 AccDes= 0.00D+00 IRadAn=         5 IDoV= 1 UseB2=F ITyADJ=14
 ICtDFT=  3500011 ScaDFX=  1.000000  1.000000  1.000000  1.000000
 FoFCou: FMM=F IPFlag=           0 FMFlag=      100000 FMFlg1=           0
         NFxFlg=           0 DoJE=T BraDBF=F KetDBF=T FulRan=T
         wScrn=  0.000000 ICntrl=       500 IOpCl=  0 I1Cent=   200000004 NGrid=           0
         NMat0=    1 NMatS0=      1 NMatT0=    0 NMatD0=    1 NMtDS0=    0 NMtDT0=    0
 Petite list used in FoFCou.
 Initial guess orbital symmetries:
       Occupied  (A') (A') (A') (A') (A') (A') (A') (A') (A') (A')
                 (A') (A') (A') (A') (A') (A') (A') (A') (A') (A')
                 (A') (A') (A') (A') (A') (A') (A') (A') (A') (A')
                 (A') (A") (A') (A") (A') (A') (A") (A') (A') (A')
                 (A') (A") (A") (A') (A") (A') (A")
       Virtual   (A") (A") (A") (A') (A") (A") (A') (A') (A') (A')
                 (A') (A') (A") (A') (A') (A") (A') (A') (A") (A')
                 (A') (A') (A") (A') (A') (A") (A') (A") (A') (A")
                 (A') (A') (A') (A') (A") (A') (A') (A') (A') (A")
                 (A") (A') (A") (A') (A') (A') (A') (A') (A') (A')
                 (A") (A') (A") (A") (A') (A') (A') (A") (A") (A')
                 (A') (A') (A') (A') (A") (A') (A') (A') (A") (A')
                 (A') (A') (A') (A') (A') (A') (A') (A') (A') (A')
                 (A') (A') (A') (A') (A') (A') (A') (A') (A') (A')
                 (A') (A') (A") (A') (A") (A') (A') (A") (A') (A')
                 (A') (A") (A') (A") (A") (A') (A') (A') (A") (A")
                 (A') (A") (A") (A') (A') (A") (A') (A') (A') (A")
                 (A") (A') (A') (A') (A") (A') (A') (A") (A') (A')
                 (A') (A') (A') (A') (A') (A') (A') (A') (A") (A')
                 (A') (A') (A') (A') (A") (A') (A') (A') (A") (A')
                 (A') (A') (A') (A") (A") (A') (A') (A') (A") (A")
                 (A") (A") (A') (A') (A") (A') (A") (A') (A') (A')
                 (A") (A') (A') (A') (A') (A') (A') (A") (A') (A")
                 (A") (A') (A") (A') (A') (A") (A') (A") (A') (A')
                 (A") (A") (A') (A') (A') (A') (A") (A') (A') (A")
                 (A") (A") (A') (A") (A') (A") (A') (A') (A') (A")
                 (A') (A') (A') (A") (A') (A') (A') (A') (A") (A')
                 (A") (A') (A") (A') (A") (A') (A') (A") (A') (A')
                 (A") (A') (A") (A') (A') (A') (A") (A") (A') (A')
                 (A") (A') (A') (A') (A') (A") (A') (A') (A') (A')
                 (A") (A') (A") (A') (A") (A') (A') (A") (A") (A')
                 (A') (A") (A') (A') (A') (A') (A') (A") (A') (A")
                 (A") (A') (A') (A') (A') (A") (A') (A") (A') (A')
                 (A') (A") (A') (A") (A") (A') (A") (A') (A') (A')
                 (A') (A') (A') (A') (A') (A') (A') (A") (A') (A')
                 (A') (A') (A') (A') (A') (A') (A') (A') (A') (A')
                 (A') (A') (A') (A') (A') (A') (A') (A') (A') (A')
                 (A') (A') (A') (A') (A') (A') (A') (A') (A') (A')
                 (A') (A')
 The electronic state of the initial guess is 1-A'.
 Requested convergence on RMS density matrix=1.00D-08 within 128 cycles.
 Requested convergence on MAX density matrix=1.00D-06.
 Requested convergence on             energy=1.00D-06.
 No special actions if energy rises.
 SCF Done:  E(RM062X) =  -538.851172675     A.U. after   20 cycles
            NFock= 20  Conv=0.24D-08     -V/T= 1.9961
 DoSCS=F DFT=T ScalE2(SS,OS)=  1.000000  1.000000
 ExpMin= 3.60D-02 ExpMax= 4.56D+03 ExpMxC= 6.82D+02 IAcc=3 IRadAn=         5 AccDes= 0.00D+00
 HarFok:  IExCor=  205 AccDes= 0.00D+00 IRadAn=         5 IDoV=-2 UseB2=F ITyADJ=14
 ICtDFT= 12500011 ScaDFX=  1.000000  1.000000  1.000000  1.000000
 Range of M.O.s used for correlation:    15   379
 NBasis=   385 NAE=    47 NBE=    47 NFC=    14 NFV=     0
 NROrb=    365 NOA=    33 NOB=    33 NVA=   332 NVB=   332

 **** Warning!!: The largest alpha MO coefficient is  0.22243639D+03


 **** Warning!!: The smallest alpha delta epsilon is  0.79727205D-01

 Orbital symmetries:
       Occupied  (A') (A') (A') (A') (A') (A') (A') (A') (A') (A')
                 (A') (A') (A') (A') (A') (A') (A') (A') (A') (A')
                 (A') (A') (A') (A') (A') (A') (A') (A') (A') (A')
                 (A') (A") (A') (A') (A") (A') (A') (A") (A') (A')
                 (A") (A') (A") (A') (A") (A') (A")
       Virtual   (A") (A") (A') (A") (A') (A') (A") (A') (A') (A')
                 (A") (A') (A") (A') (A') (A") (A') (A') (A") (A')
                 (A") (A') (A') (A") (A') (A') (A') (A') (A') (A")
                 (A') (A") (A') (A') (A") (A') (A') (A") (A') (A')
                 (A") (A') (A") (A') (A') (A') (A") (A') (A") (A')
                 (A') (A") (A') (A') (A') (A") (A') (A') (A") (A')
                 (A') (A') (A') (A") (A') (A') (A") (A') (A') (A')
                 (A') (A') (A') (A') (A') (A') (A') (A') (A') (A')
                 (A') (A') (A') (A') (A') (A') (A') (A') (A') (A')
                 (A") (A') (A") (A') (A') (A') (A') (A') (A") (A')
                 (A") (A') (A") (A') (A') (A") (A") (A') (A") (A')
                 (A") (A') (A') (A") (A') (A') (A") (A") (A') (A")
                 (A') (A') (A') (A') (A") (A") (A') (A') (A') (A')
                 (A') (A') (A') (A') (A') (A') (A') (A') (A') (A')
                 (A') (A') (A") (A') (A') (A') (A') (A') (A") (A')
                 (A') (A') (A") (A') (A') (A") (A") (A') (A") (A')
                 (A") (A') (A") (A') (A") (A") (A') (A") (A') (A')
                 (A") (A') (A') (A') (A') (A') (A') (A") (A') (A")
                 (A') (A") (A") (A') (A') (A") (A') (A") (A') (A')
                 (A") (A") (A') (A') (A") (A') (A') (A') (A") (A')
                 (A") (A") (A') (A') (A") (A") (A') (A') (A') (A")
                 (A') (A') (A') (A") (A') (A') (A') (A') (A") (A')
                 (A') (A") (A") (A') (A") (A') (A') (A') (A") (A')
                 (A") (A') (A') (A") (A') (A') (A") (A") (A') (A')
                 (A") (A') (A') (A') (A") (A') (A') (A') (A') (A")
                 (A') (A') (A') (A') (A') (A") (A') (A') (A") (A')
                 (A') (A') (A') (A") (A') (A") (A') (A') (A') (A")
                 (A') (A") (A') (A") (A") (A") (A') (A') (A') (A")
                 (A') (A") (A') (A") (A') (A") (A") (A') (A') (A')
                 (A') (A') (A') (A') (A') (A') (A") (A') (A') (A')
                 (A') (A') (A') (A') (A') (A') (A') (A') (A') (A')
                 (A') (A') (A') (A') (A') (A') (A') (A') (A') (A')
                 (A') (A') (A') (A') (A') (A') (A') (A') (A') (A')
                 (A') (A')
     4 initial guesses have been made.
 Convergence on wavefunction:    0.001000000000000
 Iteration     1 Dimension     4 NMult     0 NNew      4
 CISAX will form     4 AO SS matrices at one time.
 Iteration     2 Dimension     6 NMult     4 NNew      2
 Iteration     3 Dimension     8 NMult     6 NNew      2
 Iteration     4 Dimension    10 NMult     8 NNew      2
 Iteration     5 Dimension    12 NMult    10 NNew      2
 Iteration     6 Dimension    14 NMult    12 NNew      2
 ***********************************************************************
 Excited states from <AA,BB:AA,BB> singles matrix:
 ***********************************************************************
 
 Ground to excited state transition densities written to RWF  633
 Ground to excited state transition electric dipole moments (Au):
       state          X           Y           Z        Dip. S.      Osc.
         1         0.7423      1.9941     -0.0000      4.5276      0.1182
 Ground to excited state transition velocity dipole moments (Au):
       state          X           Y           Z        Dip. S.      Osc.
         1        -0.0238     -0.0760      0.0000      0.0063      0.1080
 Ground to excited state transition magnetic dipole moments (Au):
       state          X           Y           Z
         1        -0.0000     -0.0000      0.5591
 Ground to excited state transition velocity quadrupole moments (Au):
       state          XX          YY          ZZ          XY          XZ          YZ
         1         0.0156      0.0451     -0.0046      0.0673     -0.0000     -0.0000
 <0|del|b> * <b|rxdel|0> + <0|del|b> * <b|delr+rdel|0>
 Rotatory Strengths (R) in cgs (10**-40 erg-esu-cm/Gauss)
       state          XX          YY          ZZ    R(velocity)    E-M Angle
         1         0.0000      0.0000      0.0000      0.0000       90.00
 1/2[<0|r|b>*<b|rxdel|0> + (<0|rxdel|b>*<b|r|0>)*]
 Rotatory Strengths (R) in cgs (10**-40 erg-esu-cm/Gauss)
       state          XX          YY          ZZ     R(length)
         1         0.0000      0.0000      0.0000      0.0000
  1/2[<0|del|b>*<b|r|0> + (<0|r|b>*<b|del|0>)*] (Au)
       state          X           Y           Z        Dip. S.   Osc.(frdel)
         1        -0.0177     -0.1516     -0.0000      0.1692      0.1128

 Excitation energies and oscillator strengths:
 
 Excited State   1:      Singlet-A'     1.0652 eV 1163.94 nm  f=0.1182  <S**2>=0.000
      47 -> 48         0.73415
      47 <- 48        -0.22493
 This state for optimization and/or second-order correction.
 Total Energy, E(TD-HF/TD-DFT) =  -538.812026853    
 Copying the excited state density for this state as the 1-particle RhoCI density.
 SavETr:  write IOETrn=   770 NScale= 10 NData=  16 NLR=1 NState=    1 LETran=      28.

 **********************************************************************

            Population analysis using the SCF Density.

 **********************************************************************

 Orbital symmetries:
       Occupied  (A') (A') (A') (A') (A') (A') (A') (A') (A') (A')
                 (A') (A') (A') (A') (A') (A') (A') (A') (A') (A')
                 (A') (A') (A') (A') (A') (A') (A') (A') (A') (A')
                 (A') (A") (A') (A') (A") (A') (A') (A") (A') (A')
                 (A") (A') (A") (A') (A") (A') (A")
       Virtual   (A") (A") (A') (A") (A') (A') (A") (A') (A') (A')
                 (A") (A') (A") (A') (A') (A") (A') (A') (A") (A')
                 (A") (A') (A') (A") (A') (A') (A') (A') (A') (A")
                 (A') (A") (A') (A') (A") (A') (A') (A") (A') (A')
                 (A") (A') (A") (A') (A') (A') (A") (A') (A") (A')
                 (A') (A") (A') (A') (A') (A") (A') (A') (A") (A')
                 (A') (A') (A') (A") (A') (A') (A") (A') (A') (A')
                 (A') (A') (A') (A') (A') (A') (A') (A') (A') (A')
                 (A') (A') (A') (A') (A') (A') (A') (A') (A') (A')
                 (A") (A') (A") (A') (A') (A') (A') (A') (A") (A')
                 (A") (A') (A") (A') (A') (A") (A") (A') (A") (A')
                 (A") (A') (A') (A") (A') (A') (A") (A") (A') (A")
                 (A') (A') (A') (A') (A") (A") (A') (A') (A') (A')
                 (A') (A') (A') (A') (A') (A') (A') (A') (A') (A')
                 (A') (A') (A") (A') (A') (A') (A') (A') (A") (A')
                 (A') (A') (A") (A') (A') (A") (A") (A') (A") (A')
                 (A") (A') (A") (A') (A") (A") (A') (A") (A') (A')
                 (A") (A') (A') (A') (A') (A') (A') (A") (A') (A")
                 (A') (A") (A") (A') (A') (A") (A') (A") (A') (A')
                 (A") (A") (A') (A') (A") (A') (A') (A') (A") (A')
                 (A") (A") (A') (A') (A") (A") (A') (A') (A') (A")
                 (A') (A') (A') (A") (A') (A') (A') (A') (A") (A')
                 (A') (A") (A") (A') (A") (A') (A') (A') (A") (A')
                 (A") (A') (A') (A") (A') (A') (A") (A") (A') (A')
                 (A") (A') (A') (A') (A") (A') (A') (A') (A') (A")
                 (A') (A') (A') (A') (A') (A") (A') (A') (A") (A')
                 (A') (A') (A') (A") (A') (A") (A') (A') (A') (A")
                 (A') (A") (A') (A") (A") (A") (A') (A') (A') (A")
                 (A') (A") (A') (A") (A') (A") (A") (A') (A') (A')
                 (A') (A') (A') (A') (A') (A') (A") (A') (A') (A')
                 (A') (A') (A') (A') (A') (A') (A') (A') (A') (A')
                 (A') (A') (A') (A') (A') (A') (A') (A') (A') (A')
                 (A') (A') (A') (A') (A') (A') (A') (A') (A') (A')
                 (A') (A')
 The electronic state is 1-A'.
 Alpha  occ. eigenvalues --  -10.78323 -10.73823 -10.73014 -10.71585 -10.71037
 Alpha  occ. eigenvalues --  -10.70794 -10.70688 -10.69709 -10.69545 -10.69137
 Alpha  occ. eigenvalues --  -10.68868 -10.67568 -10.67480 -10.66972  -1.21121
 Alpha  occ. eigenvalues --   -1.14163  -1.13510  -1.07097  -1.04293  -1.01789
 Alpha  occ. eigenvalues --   -0.95687  -0.87809  -0.85908  -0.84944  -0.82475
 Alpha  occ. eigenvalues --   -0.76864  -0.76368  -0.74651  -0.73853  -0.70235
 Alpha  occ. eigenvalues --   -0.69590  -0.68753  -0.67197  -0.64552  -0.63731
 Alpha  occ. eigenvalues --   -0.62808  -0.62263  -0.60255  -0.58312  -0.57052
 Alpha  occ. eigenvalues --   -0.55230  -0.53809  -0.53020  -0.50792  -0.49305
 Alpha  occ. eigenvalues --   -0.46195  -0.35224
 Alpha virt. eigenvalues --   -0.27251  -0.17214  -0.11403  -0.10904  -0.10405
 Alpha virt. eigenvalues --   -0.09952  -0.08296  -0.07947  -0.07735  -0.07329
 Alpha virt. eigenvalues --   -0.07076  -0.06087  -0.05987  -0.05639  -0.05278
 Alpha virt. eigenvalues --   -0.04992  -0.04203  -0.03862  -0.03798  -0.03122
 Alpha virt. eigenvalues --   -0.02249  -0.02188  -0.01195  -0.01139  -0.00202
 Alpha virt. eigenvalues --    0.00064   0.00662   0.01078   0.01191   0.01683
 Alpha virt. eigenvalues --    0.01830   0.02120   0.02716   0.02840   0.02911
 Alpha virt. eigenvalues --    0.03683   0.03834   0.04051   0.05128   0.05461
 Alpha virt. eigenvalues --    0.05512   0.05574   0.05802   0.06028   0.06388
 Alpha virt. eigenvalues --    0.07007   0.07459   0.07646   0.08058   0.08120
 Alpha virt. eigenvalues --    0.08696   0.08917   0.09240   0.09601   0.10045
 Alpha virt. eigenvalues --    0.10269   0.10474   0.11121   0.11268   0.12145
 Alpha virt. eigenvalues --    0.12493   0.12613   0.13274   0.13709   0.14057
 Alpha virt. eigenvalues --    0.14370   0.16079   0.16786   0.17082   0.17333
 Alpha virt. eigenvalues --    0.18131   0.18585   0.19785   0.20591   0.21000
 Alpha virt. eigenvalues --    0.21615   0.22403   0.22828   0.23731   0.24339
 Alpha virt. eigenvalues --    0.24693   0.25451   0.25974   0.26903   0.28624
 Alpha virt. eigenvalues --    0.29602   0.31155   0.31685   0.32352   0.35554
 Alpha virt. eigenvalues --    0.36520   0.37274   0.38198   0.38547   0.39866
 Alpha virt. eigenvalues --    0.40246   0.41576   0.42089   0.42536   0.43982
 Alpha virt. eigenvalues --    0.44605   0.45254   0.45709   0.46305   0.47912
 Alpha virt. eigenvalues --    0.47922   0.49301   0.50224   0.51006   0.51558
 Alpha virt. eigenvalues --    0.51777   0.51797   0.52985   0.53563   0.54927
 Alpha virt. eigenvalues --    0.55347   0.56056   0.58626   0.58939   0.59412
 Alpha virt. eigenvalues --    0.59802   0.62287   0.63276   0.63366   0.63715
 Alpha virt. eigenvalues --    0.64260   0.64965   0.67039   0.67121   0.68166
 Alpha virt. eigenvalues --    0.70635   0.72916   0.73708   0.74090   0.74364
 Alpha virt. eigenvalues --    0.75202   0.75916   0.77055   0.77220   0.77991
 Alpha virt. eigenvalues --    0.78873   0.79911   0.81717   0.81735   0.82056
 Alpha virt. eigenvalues --    0.83036   0.83977   0.84833   0.85273   0.87285
 Alpha virt. eigenvalues --    0.87648   0.89338   0.89479   0.90129   0.94151
 Alpha virt. eigenvalues --    0.94303   0.95836   0.96447   1.00504   1.02583
 Alpha virt. eigenvalues --    1.03864   1.04247   1.04855   1.05917   1.07779
 Alpha virt. eigenvalues --    1.08066   1.09374   1.11235   1.12294   1.15238
 Alpha virt. eigenvalues --    1.15709   1.17205   1.18218   1.18982   1.24753
 Alpha virt. eigenvalues --    1.27448   1.31242   1.33416   1.33698   1.35200
 Alpha virt. eigenvalues --    1.36999   1.37438   1.38864   1.39744   1.41542
 Alpha virt. eigenvalues --    1.44366   1.46790   1.47699   1.48987   1.49957
 Alpha virt. eigenvalues --    1.51190   1.52779   1.53977   1.56350   1.56406
 Alpha virt. eigenvalues --    1.57020   1.57614   1.59721   1.60786   1.62027
 Alpha virt. eigenvalues --    1.62808   1.64041   1.65146   1.67238   1.69246
 Alpha virt. eigenvalues --    1.70280   1.70353   1.71978   1.73069   1.74503
 Alpha virt. eigenvalues --    1.76161   1.77268   1.78492   1.79066   1.80620
 Alpha virt. eigenvalues --    1.82465   1.84201   1.84895   1.86430   1.87224
 Alpha virt. eigenvalues --    1.88994   1.89220   1.90688   1.93533   1.94783
 Alpha virt. eigenvalues --    1.96395   1.98479   2.00024   2.01155   2.03792
 Alpha virt. eigenvalues --    2.04362   2.07016   2.11200   2.12755   2.15700
 Alpha virt. eigenvalues --    2.17561   2.18762   2.19450   2.21353   2.22899
 Alpha virt. eigenvalues --    2.25322   2.27346   2.31178   2.33525   2.35060
 Alpha virt. eigenvalues --    2.35855   2.36679   2.40479   2.42975   2.43397
 Alpha virt. eigenvalues --    2.43699   2.45372   2.50321   2.53051   2.54012
 Alpha virt. eigenvalues --    2.57805   2.58216   2.59080   2.60158   2.60953
 Alpha virt. eigenvalues --    2.61760   2.63392   2.64524   2.64594   2.65682
 Alpha virt. eigenvalues --    2.66018   2.66967   2.67721   2.69544   2.70718
 Alpha virt. eigenvalues --    2.70985   2.73058   2.73089   2.74266   2.77026
 Alpha virt. eigenvalues --    2.78880   2.80581   2.81399   2.82151   2.84984
 Alpha virt. eigenvalues --    2.90958   2.91110   2.91739   2.93039   2.97938
 Alpha virt. eigenvalues --    2.98872   3.01382   3.02476   3.06767   3.08927
 Alpha virt. eigenvalues --    3.12308   3.14957   3.18123   3.25003   3.30439
 Alpha virt. eigenvalues --    3.30970   3.32664   3.36680   3.39984   3.51310
 Alpha virt. eigenvalues --    3.52725   3.62486   3.65584   3.66271   3.70543
 Alpha virt. eigenvalues --    3.74486   3.76725   3.79477   3.83334   3.90790
 Alpha virt. eigenvalues --    3.94313   4.00384   4.02998   4.18852   4.20228
 Alpha virt. eigenvalues --    4.22062   4.35048   4.47424  23.39073  23.49182
 Alpha virt. eigenvalues --   23.53879  23.54779  23.71519  23.79316  23.86093
 Alpha virt. eigenvalues --   23.96121  24.35109  24.44826  24.79937  24.85937
 Alpha virt. eigenvalues --   25.59169  25.70762
          Condensed to atoms (all electrons):
               1          2          3          4          5          6
     1  C    6.914045   1.266424  -0.451472   0.274048  -0.130609  -0.061038
     2  C    1.266424   8.760158   0.596002  -0.025945  -0.212479  -0.025019
     3  C   -0.451472   0.596002   6.997564   0.711766  -0.013598   0.009293
     4  C    0.274048  -0.025945   0.711766  10.610402  -0.483067  -0.178162
     5  C   -0.130609  -0.212479  -0.013598  -0.483067   8.017283   1.503056
     6  C   -0.061038  -0.025019   0.009293  -0.178162   1.503056   7.409343
     7  C   -0.062397  -0.015224  -0.005187   0.221832  -1.881946  -2.209425
     8  C    0.174777   0.012739  -0.132205  -0.317679   2.399547   1.683941
     9  C   -0.218227  -0.960781   0.051784   0.472714  -0.380424   0.327118
    10  C   -0.199785  -0.806720   0.241231  -2.220623  -0.889498  -0.813286
    11  C    0.551473  -0.169669  -0.319319  -0.315241  -1.081128   0.183235
    12  C   -1.155778  -0.798654  -1.923195  -0.799164   0.020316  -0.672174
    13  C   -0.176652  -0.523123  -0.420301  -0.319435  -0.438167   0.042857
    14  C   -1.118679  -0.945456   0.620499  -1.863102  -0.497489  -1.266453
    15  H    0.383835  -0.062311   0.003986  -0.016308   0.005059   0.002680
    16  H   -0.012972   0.386313  -0.039076   0.042116  -0.003761  -0.000637
    17  H    0.002903  -0.040412   0.391019  -0.053361   0.002050   0.000495
    18  H    0.014619   0.037059  -0.021533   0.506885  -0.003464  -0.004128
    19  H   -0.008981  -0.018421   0.037125  -0.130823  -0.012770   0.035527
    20  H   -0.000431   0.000504  -0.003523   0.012580   0.401752  -0.047404
    21  H   -0.001397  -0.000521   0.000234  -0.001507  -0.028095   0.344076
    22  H    0.000132  -0.000068  -0.000055   0.001357  -0.011172  -0.027569
    23  H    0.007738   0.002374   0.000894  -0.013306   0.032822   0.072083
    24  H    0.039918   0.014811  -0.001964   0.006873  -0.026080  -0.008639
    25  H    0.039918   0.014811  -0.001964   0.006873  -0.026080  -0.008639
               7          8          9         10         11         12
     1  C   -0.062397   0.174777  -0.218227  -0.199785   0.551473  -1.155778
     2  C   -0.015224   0.012739  -0.960781  -0.806720  -0.169669  -0.798654
     3  C   -0.005187  -0.132205   0.051784   0.241231  -0.319319  -1.923195
     4  C    0.221832  -0.317679   0.472714  -2.220623  -0.315241  -0.799164
     5  C   -1.881946   2.399547  -0.380424  -0.889498  -1.081128   0.020316
     6  C   -2.209425   1.683941   0.327118  -0.813286   0.183235  -0.672174
     7  C   12.743591  -6.112593  -1.520340   0.693109  -0.756592   0.723128
     8  C   -6.112593  15.438114  -0.207821  -0.531357   0.474743  -0.931101
     9  C   -1.520340  -0.207821   9.415752  -0.272926   1.153768  -2.044550
    10  C    0.693109  -0.531357  -0.272926   8.804724   0.092825   1.403529
    11  C   -0.756592   0.474743   1.153768   0.092825  13.302261  -3.455443
    12  C    0.723128  -0.931101  -2.044550   1.403529  -3.455443  17.963352
    13  C    1.438825  -3.072368  -0.488763  -0.734405  -1.552025  -0.455209
    14  C    3.100575  -3.552066   0.207997   0.902344  -1.525652  -2.072784
    15  H   -0.004837   0.001673   0.000716   0.015594  -0.046186   0.086796
    16  H    0.000838   0.003150  -0.000493  -0.037765   0.046200  -0.026929
    17  H   -0.000145  -0.002324   0.002089   0.022032  -0.008316   0.014186
    18  H    0.003472   0.005344  -0.010157  -0.014680   0.002922  -0.062332
    19  H   -0.003226  -0.048872   0.060666   0.442318   0.067673  -0.313135
    20  H   -0.042102   0.103065  -0.012465   0.068066  -0.016960   0.029703
    21  H    0.031873  -0.051107  -0.000244  -0.000808  -0.000269  -0.007174
    22  H    0.376816  -0.024559  -0.013574   0.003848  -0.009339   0.007994
    23  H   -0.248683   0.441723   0.167482  -0.020140   0.069146  -0.035671
    24  H    0.020457  -0.045477   0.380453   0.011004   0.040238  -0.019480
    25  H    0.020457  -0.045477   0.380453   0.011004   0.040238  -0.019480
              13         14         15         16         17         18
     1  C   -0.176652  -1.118679   0.383835  -0.012972   0.002903   0.014619
     2  C   -0.523123  -0.945456  -0.062311   0.386313  -0.040412   0.037059
     3  C   -0.420301   0.620499   0.003986  -0.039076   0.391019  -0.021533
     4  C   -0.319435  -1.863102  -0.016308   0.042116  -0.053361   0.506885
     5  C   -0.438167  -0.497489   0.005059  -0.003761   0.002050  -0.003464
     6  C    0.042857  -1.266453   0.002680  -0.000637   0.000495  -0.004128
     7  C    1.438825   3.100575  -0.004837   0.000838  -0.000145   0.003472
     8  C   -3.072368  -3.552066   0.001673   0.003150  -0.002324   0.005344
     9  C   -0.488763   0.207997   0.000716  -0.000493   0.002089  -0.010157
    10  C   -0.734405   0.902344   0.015594  -0.037765   0.022032  -0.014680
    11  C   -1.552025  -1.525652  -0.046186   0.046200  -0.008316   0.002922
    12  C   -0.455209  -2.072784   0.086796  -0.026929   0.014186  -0.062332
    13  C   11.618996   0.913647  -0.043309   0.008820  -0.008285   0.007029
    14  C    0.913647  12.597817   0.013150  -0.030678   0.017267  -0.110964
    15  H   -0.043309   0.013150   0.421823  -0.002222   0.001396  -0.000589
    16  H    0.008820  -0.030678  -0.002222   0.394909  -0.002966   0.003258
    17  H   -0.008285   0.017267   0.001396  -0.002966   0.414790  -0.014044
    18  H    0.007029  -0.110964  -0.000589   0.003258  -0.014044   0.436975
    19  H    0.016028   0.229416   0.001289  -0.000826   0.003443  -0.003804
    20  H    0.022948  -0.175001  -0.000255   0.000034  -0.000254   0.001435
    21  H    0.019181   0.035914   0.000053  -0.000009   0.000008  -0.000098
    22  H    0.025218   0.018052  -0.000119   0.000008  -0.000002   0.000016
    23  H   -0.133786  -0.073137   0.001072  -0.000242  -0.000015  -0.000186
    24  H   -0.074613  -0.012496  -0.000412   0.000517  -0.000071   0.000112
    25  H   -0.074613  -0.012496  -0.000412   0.000517  -0.000071   0.000112
              19         20         21         22         23         24
     1  C   -0.008981  -0.000431  -0.001397   0.000132   0.007738   0.039918
     2  C   -0.018421   0.000504  -0.000521  -0.000068   0.002374   0.014811
     3  C    0.037125  -0.003523   0.000234  -0.000055   0.000894  -0.001964
     4  C   -0.130823   0.012580  -0.001507   0.001357  -0.013306   0.006873
     5  C   -0.012770   0.401752  -0.028095  -0.011172   0.032822  -0.026080
     6  C    0.035527  -0.047404   0.344076  -0.027569   0.072083  -0.008639
     7  C   -0.003226  -0.042102   0.031873   0.376816  -0.248683   0.020457
     8  C   -0.048872   0.103065  -0.051107  -0.024559   0.441723  -0.045477
     9  C    0.060666  -0.012465  -0.000244  -0.013574   0.167482   0.380453
    10  C    0.442318   0.068066  -0.000808   0.003848  -0.020140   0.011004
    11  C    0.067673  -0.016960  -0.000269  -0.009339   0.069146   0.040238
    12  C   -0.313135   0.029703  -0.007174   0.007994  -0.035671  -0.019480
    13  C    0.016028   0.022948   0.019181   0.025218  -0.133786  -0.074613
    14  C    0.229416  -0.175001   0.035914   0.018052  -0.073137  -0.012496
    15  H    0.001289  -0.000255   0.000053  -0.000119   0.001072  -0.000412
    16  H   -0.000826   0.000034  -0.000009   0.000008  -0.000242   0.000517
    17  H    0.003443  -0.000254   0.000008  -0.000002  -0.000015  -0.000071
    18  H   -0.003804   0.001435  -0.000098   0.000016  -0.000186   0.000112
    19  H    0.512069  -0.012697   0.000520  -0.000223   0.000315   0.000581
    20  H   -0.012697   0.452096  -0.002444   0.001464  -0.001542   0.000389
    21  H    0.000520  -0.002444   0.420009  -0.001576   0.000402   0.000001
    22  H   -0.000223   0.001464  -0.001576   0.417363  -0.006024   0.000544
    23  H    0.000315  -0.001542   0.000402  -0.006024   0.509449  -0.000982
    24  H    0.000581   0.000389   0.000001   0.000544  -0.000982   0.463954
    25  H    0.000581   0.000389   0.000001   0.000544  -0.000982  -0.066468
              25
     1  C    0.039918
     2  C    0.014811
     3  C   -0.001964
     4  C    0.006873
     5  C   -0.026080
     6  C   -0.008639
     7  C    0.020457
     8  C   -0.045477
     9  C    0.380453
    10  C    0.011004
    11  C    0.040238
    12  C   -0.019480
    13  C   -0.074613
    14  C   -0.012496
    15  H   -0.000412
    16  H    0.000517
    17  H   -0.000071
    18  H    0.000112
    19  H    0.000581
    20  H    0.000389
    21  H    0.000001
    22  H    0.000544
    23  H   -0.000982
    24  H   -0.066468
    25  H    0.463954
 Mulliken charges:
               1
     1  C   -0.071411
     2  C   -0.486390
     3  C   -0.328003
     4  C   -0.129721
     5  C   -0.262055
     6  C   -0.291129
     7  C   -0.512279
     8  C    0.336189
     9  C   -0.490225
    10  C   -0.169635
    11  C   -0.768582
    12  C    0.543248
    13  C    0.401503
    14  C    0.599775
    15  H    0.237839
    16  H    0.271895
    17  H    0.258589
    18  H    0.226741
    19  H    0.146227
    20  H    0.220654
    21  H    0.242979
    22  H    0.240925
    23  H    0.229196
    24  H    0.276835
    25  H    0.276835
 Sum of Mulliken charges =   1.00000
 Mulliken charges with hydrogens summed into heavy atoms:
               1
     1  C    0.166428
     2  C   -0.214495
     3  C   -0.069413
     4  C    0.097020
     5  C   -0.041401
     6  C   -0.048150
     7  C   -0.271354
     8  C    0.565385
     9  C    0.063445
    10  C   -0.023408
    11  C   -0.768582
    12  C    0.543248
    13  C    0.401503
    14  C    0.599775
 Electronic spatial extent (au):  <R**2>=           2873.7830
 Charge=              1.0000 electrons
 Dipole moment (field-independent basis, Debye):
    X=             -2.7481    Y=             -3.3779    Z=              0.0000  Tot=              4.3545
 Quadrupole moment (field-independent basis, Debye-Ang):
   XX=            -54.2043   YY=            -27.8108   ZZ=            -82.8542
   XY=              9.7439   XZ=              0.0000   YZ=             -0.0000
 Traceless Quadrupole moment (field-independent basis, Debye-Ang):
   XX=              0.7521   YY=             27.1457   ZZ=            -27.8977
   XY=              9.7439   XZ=              0.0000   YZ=             -0.0000
 Octapole moment (field-independent basis, Debye-Ang**2):
  XXX=            -13.7578  YYY=            -20.3998  ZZZ=              0.0000  XYY=            -10.8032
  XXY=            -18.3208  XXZ=              0.0000  XZZ=             -6.2912  YZZ=             -7.9424
  YYZ=             -0.0000  XYZ=             -0.0000
 Hexadecapole moment (field-independent basis, Debye-Ang**3):
 XXXX=           -806.7969 YYYY=          -1948.5227 ZZZZ=            -97.0304 XXXY=           -264.6621
 XXXZ=             -0.0000 YYYX=           -187.9523 YYYZ=              0.0000 ZZZX=              0.0000
 ZZZY=              0.0000 XXYY=           -471.5120 XXZZ=           -195.9741 YYZZ=           -531.4253
 XXYZ=             -0.0000 YYXZ=              0.0000 ZZXY=           -139.2705
 N-N= 7.871814757915D+02 E-N=-2.812424819289D+03  KE= 5.409377705585D+02
 Symmetry A'   KE= 5.255064009595D+02
 Symmetry A"   KE= 1.543136959899D+01
 Unable to Open any file for archive entry.
 1\1\GINC-GADI-CPU-CLX-0240\SP\RM062X TD-FC\6-311++G(d,p)\C14H11(1+)\TS
 1578\02-Aug-2022\0\\#n M062X/6-311++G(d,p) TD(NStates=1) EmpiricalDisp
 ersion=GD3 SP\\SP_14\\1,1\C,0,0.,2.294655,1.382431\C,0,0.,3.459508,0.5
 49989\C,0,0.,3.541861,-0.94983\C,0,0.,2.719156,-1.501538\C,0,0.,-2.207
 156,-1.313538\C,0,0.,-3.825861,-0.47783\C,0,0.,-3.943508,0.793989\C,0,
 0.,-2.690655,1.338431\C,0,0.,-0.12,1.453369\C,0,0.,0.418,-1.429189\C,0
 ,0.,1.400055,0.873065\C,0,0.,1.355471,-0.706804\C,0,0.,-1.124055,0.481
 065\C,0,0.,-1.119471,-0.754804\H,0,0.,2.472071,2.465647\H,0,0.,4.40875
 3,1.079689\H,0,0.,4.567262,-1.330349\H,0,0.,2.54155,-2.584059\H,0,0.,0
 .412,-2.510266\H,0,0.,-2.39355,-2.396059\H,0,0.,-4.651262,-1.214349\H,
 0,0.,-4.864753,1.343689\H,0,0.,-2.504071,2.421647\H,0,-0.859585,-0.664
 ,2.145787\H,0,0.859585,-0.664,2.145787\\Version=ES64L-G16RevC.01\State
 =1-A'\HF=-538.8511727\RMSD=2.366e-09\PG=CS [SG(C14H9),X(H2)]\\@
 The archive entry for this job was punched.


 A COMPUTER IS LIKE A HORSE, IT WILL SENSE WEAKNESS.
     -- GREG WETTSTEIN
 Job cpu time:       0 days  0 hours 58 minutes 38.3 seconds.
 Elapsed time:       0 days  0 hours  1 minutes 13.7 seconds.
 File lengths (MBytes):  RWF=    460 Int=      0 D2E=      0 Chk=     15 Scr=      1
 Normal termination of Gaussian 16 at Tue Aug  2 13:36:13 2022.
