 Entering Gaussian System, Link 0=g16
 Initial command:
 /apps/gaussian/g16c01/g16/l1.exe "/jobfs/53803565.gadi-pbs/Gau-1021080.inp" -scrdir="/jobfs/53803565.gadi-pbs/"
 Entering Link 1 = /apps/gaussian/g16c01/g16/l1.exe PID=   1021081.
  
 Copyright (c) 1988-2019, Gaussian, Inc.  All Rights Reserved.
  
 This is part of the Gaussian(R) 16 program.  It is based on
 the Gaussian(R) 09 system (copyright 2009, Gaussian, Inc.),
 the Gaussian(R) 03 system (copyright 2003, Gaussian, Inc.),
 the Gaussian(R) 98 system (copyright 1998, Gaussian, Inc.),
 the Gaussian(R) 94 system (copyright 1995, Gaussian, Inc.),
 the Gaussian 92(TM) system (copyright 1992, Gaussian, Inc.),
 the Gaussian 90(TM) system (copyright 1990, Gaussian, Inc.),
 the Gaussian 88(TM) system (copyright 1988, Gaussian, Inc.),
 the Gaussian 86(TM) system (copyright 1986, Carnegie Mellon
 University), and the Gaussian 82(TM) system (copyright 1983,
 Carnegie Mellon University). Gaussian is a federally registered
 trademark of Gaussian, Inc.
  
 This software contains proprietary and confidential information,
 including trade secrets, belonging to Gaussian, Inc.
  
 This software is provided under written license and may be
 used, copied, transmitted, or stored only in accord with that
 written license.
  
 The following legend is applicable only to US Government
 contracts under FAR:
  
                    RESTRICTED RIGHTS LEGEND
  
 Use, reproduction and disclosure by the US Government is
 subject to restrictions as set forth in subparagraphs (a)
 and (c) of the Commercial Computer Software - Restricted
 Rights clause in FAR 52.227-19.
  
 Gaussian, Inc.
 340 Quinnipiac St., Bldg. 40, Wallingford CT 06492
  
  
 ---------------------------------------------------------------
 Warning -- This program may not be used in any manner that
 competes with the business of Gaussian, Inc. or will provide
 assistance to any competitor of Gaussian, Inc.  The licensee
 of this program is prohibited from giving any competitor of
 Gaussian, Inc. access to this program.  By using this program,
 the user acknowledges that Gaussian, Inc. is engaged in the
 business of creating and licensing software in the field of
 computational chemistry and represents and warrants to the
 licensee that it is not a competitor of Gaussian, Inc. and that
 it will not use this program in any manner prohibited above.
 ---------------------------------------------------------------
  

 Cite this work as:
 Gaussian 16, Revision C.01,
 M. J. Frisch, G. W. Trucks, H. B. Schlegel, G. E. Scuseria, 
 M. A. Robb, J. R. Cheeseman, G. Scalmani, V. Barone, 
 G. A. Petersson, H. Nakatsuji, X. Li, M. Caricato, A. V. Marenich, 
 J. Bloino, B. G. Janesko, R. Gomperts, B. Mennucci, H. P. Hratchian, 
 J. V. Ortiz, A. F. Izmaylov, J. L. Sonnenberg, D. Williams-Young, 
 F. Ding, F. Lipparini, F. Egidi, J. Goings, B. Peng, A. Petrone, 
 T. Henderson, D. Ranasinghe, V. G. Zakrzewski, J. Gao, N. Rega, 
 G. Zheng, W. Liang, M. Hada, M. Ehara, K. Toyota, R. Fukuda, 
 J. Hasegawa, M. Ishida, T. Nakajima, Y. Honda, O. Kitao, H. Nakai, 
 T. Vreven, K. Throssell, J. A. Montgomery, Jr., J. E. Peralta, 
 F. Ogliaro, M. J. Bearpark, J. J. Heyd, E. N. Brothers, K. N. Kudin, 
 V. N. Staroverov, T. A. Keith, R. Kobayashi, J. Normand, 
 K. Raghavachari, A. P. Rendell, J. C. Burant, S. S. Iyengar, 
 J. Tomasi, M. Cossi, J. M. Millam, M. Klene, C. Adamo, R. Cammi, 
 J. W. Ochterski, R. L. Martin, K. Morokuma, O. Farkas, 
 J. B. Foresman, and D. J. Fox, Gaussian, Inc., Wallingford CT, 2019.
 
 ******************************************
 Gaussian 16:  ES64L-G16RevC.01  3-Jul-2019
                 2-Aug-2022 
 ******************************************
 %NProcShared=48
 Will use up to   48 processors via shared memory.
 %mem = 190GB
 ---------------------------------------------------------------
 #n M062X/6-311++G(d,p) TD(NStates=1) EmpiricalDispersion=GD3 SP
 ---------------------------------------------------------------
 1/38=1,172=1/1;
 2/12=2,17=6,18=5,40=1/2;
 3/5=4,6=6,7=1111,11=9,25=1,30=1,74=-55,124=31/1,2,3,8;
 4//1;
 5/5=2,38=5/2;
 8/6=1,10=2,108=1/1;
 9/41=1,42=1,70=2/14;
 6/7=2,8=2,9=2,10=2/1;
 99/5=1,9=1/99;
 ------
 SP_-10
 ------
 Symbolic Z-matrix:
 Charge =  1 Multiplicity = 1
 C                     0.        2.57466   1.29443 
 C                     0.        3.85151   0.78199 
 C                     0.        3.82186  -0.51783 
 C                     0.        2.33516  -1.38154 
 C                     0.       -2.59116  -1.43354 
 C                     0.       -3.54586  -0.90983 
 C                     0.       -3.55151   0.56199 
 C                     0.       -2.41066   1.42643 
 C                     0.        0.104     1.45337 
 C                     0.       -0.326    -1.42919 
 C                     0.        1.13605   0.44107 
 C                     0.        1.17147  -0.8348 
 C                     0.       -1.38806   0.91307 
 C                     0.       -1.30347  -0.6268 
 H                     0.        2.37607   2.37765 
 H                     0.        4.74475   1.38369 
 H                     0.        4.70326  -1.16235 
 H                     0.        2.53355  -2.46406 
 H                     0.       -0.436    -2.51027 
 H                     0.       -2.40155  -2.51606 
 H                     0.       -4.51526  -1.38235 
 H                     0.       -4.52875   1.03969 
 H                     0.       -2.60007   2.50965 
 H                    -0.85959   0.584     2.14579 
 H                     0.85959   0.584     2.14579 
 
                          Input orientation:                          
 ---------------------------------------------------------------------
 Center     Atomic      Atomic             Coordinates (Angstroms)
 Number     Number       Type             X           Y           Z
 ---------------------------------------------------------------------
      1          6           0        0.000000    2.574655    1.294431
      2          6           0        0.000000    3.851508    0.781989
      3          6           0        0.000000    3.821861   -0.517830
      4          6           0        0.000000    2.335156   -1.381538
      5          6           0        0.000000   -2.591156   -1.433538
      6          6           0        0.000000   -3.545861   -0.909830
      7          6           0        0.000000   -3.551508    0.561989
      8          6           0        0.000000   -2.410655    1.426431
      9          6           0        0.000000    0.104000    1.453369
     10          6           0        0.000000   -0.326000   -1.429189
     11          6           0        0.000000    1.136055    0.441065
     12          6           0        0.000000    1.171471   -0.834804
     13          6           0        0.000000   -1.388055    0.913065
     14          6           0        0.000000   -1.303471   -0.626804
     15          1           0        0.000000    2.376071    2.377647
     16          1           0        0.000000    4.744753    1.383689
     17          1           0        0.000000    4.703262   -1.162349
     18          1           0        0.000000    2.533550   -2.464059
     19          1           0        0.000000   -0.436000   -2.510266
     20          1           0        0.000000   -2.401550   -2.516059
     21          1           0        0.000000   -4.515262   -1.382349
     22          1           0        0.000000   -4.528753    1.039689
     23          1           0        0.000000   -2.600071    2.509647
     24          1           0       -0.859585    0.584000    2.145787
     25          1           0        0.859585    0.584000    2.145787
 ---------------------------------------------------------------------
                    Distance matrix (angstroms):
                    1          2          3          4          5
     1  C    0.000000
     2  C    1.375845   0.000000
     3  C    2.199957   1.300157   0.000000
     4  C    2.686665   2.642002   1.719385   0.000000
     5  C    5.841868   6.812964   6.478064   4.926586   0.000000
     6  C    6.505343   7.588367   7.378143   5.899904   1.088913
     7  C    6.169793   7.406284   7.452018   6.199202   2.214589
     8  C    4.987057   6.295236   6.528737   5.514292   2.865659
     9  C    2.475762   3.807173   4.208101   3.607597   3.949443
    10  C    3.978933   4.726614   4.246802   2.661583   2.265160
    11  C    1.672664   2.736771   2.851847   2.181679   4.172078
    12  C    2.550013   3.129955   2.669277   1.285722   3.809966
    13  C    3.981019   5.241202   5.402840   4.373500   2.637043
    14  C    4.327933   5.344016   5.126490   3.716077   1.519524
    15  H    1.101269   2.173255   3.236371   3.759408   6.260869
    16  H    2.171933   1.077000   2.113647   3.667784   7.858265
    17  H    3.250652   2.122719   1.091912   2.378228   7.299457
    18  H    3.758715   3.503404   2.333999   1.100551   5.227292
    19  H    4.851779   5.405707   4.700977   2.992212   2.409158
    20  H    6.267571   7.069502   6.536342   4.870680   1.099001
    21  H    7.578395   8.642176   8.381826   6.850418   1.924787
    22  H    7.107974   8.384222   8.494623   7.278433   3.141836
    23  H    5.315500   6.678898   7.099777   6.284726   3.943195
    24  H    2.329464   3.643548   4.279893   4.030813   4.861283
    25  H    2.329464   3.643548   4.279893   4.030813   4.861283
                    6          7          8          9         10
     6  C    0.000000
     7  C    1.471830   0.000000
     8  C    2.597462   1.431365   0.000000
     9  C    4.348125   3.762618   2.514799   0.000000
    10  C    3.261478   3.790606   3.535584   2.914454   0.000000
    11  C    4.872910   4.689122   3.681046   1.445648   2.373911
    12  C    4.717929   4.925197   4.236132   2.524922   1.611122
    13  C    2.824725   2.191753   1.144227   1.586870   2.571792
    14  C    2.260181   2.543010   2.332730   2.511592   1.264623
    15  H    6.773240   6.199420   4.880324   2.452875   4.668317
    16  H    8.602006   8.336854   7.155536   4.641276   5.798691
    17  H    8.252987   8.432945   7.570310   5.291048   5.036336
    18  H    6.274940   6.795947   6.291349   4.609659   3.041050
    19  H    3.497518   4.375516   4.404185   4.000250   1.086659
    20  H    1.972161   3.285846   3.942501   4.694054   2.342903
    21  H    1.078431   2.170086   3.509789   5.420229   4.189524
    22  H    2.183278   1.087752   2.153116   4.651186   4.874268
    23  H    3.547864   2.167626   1.099652   2.903054   4.548168
    24  H    5.208784   4.511067   3.197549   1.203632   3.787801
    25  H    5.208784   4.511067   3.197549   1.203632   3.787801
                   11         12         13         14         15
    11  C    0.000000
    12  C    1.276360   0.000000
    13  C    2.567862   3.099390   0.000000
    14  C    2.663012   2.483667   1.542190   0.000000
    15  H    2.299563   3.430875   4.039015   4.750343   0.000000
    16  H    3.729778   4.205955   6.150839   6.373625   2.568775
    17  H    3.910998   3.546947   6.435176   6.030560   4.236436
    18  H    3.223777   2.123613   5.175321   4.254202   4.844266
    19  H    3.343907   2.321882   3.553253   2.073628   5.639099
    20  H    4.610773   3.948810   3.575761   2.185192   6.839154
    21  H    5.938200   5.713032   3.879220   3.299462   7.850353
    22  H    5.696350   6.000523   3.143250   3.630378   7.033259
    23  H    4.270558   5.040822   2.004509   3.393891   4.977892
    24  H    1.987392   3.157203   2.479413   3.462469   2.001041
    25  H    1.987392   3.157203   2.479413   3.462469   2.001041
                   16         17         18         19         20
    16  H    0.000000
    17  H    2.546376   0.000000
    18  H    4.437858   2.530237   0.000000
    19  H    6.480979   5.313087   2.969909   0.000000
    20  H    8.141111   7.232626   4.935374   1.965559   0.000000
    21  H    9.664308   9.221149   7.131329   4.232325   2.398557
    22  H    9.279884   9.491000   7.883678   5.417823   4.143469
    23  H    7.430627   8.174486   7.147854   5.466510   5.029625
    24  H    4.316427   5.352660   5.078416   4.843358   5.602250
    25  H    4.316427   5.352660   5.078416   4.843358   5.602250
                   21         22         23         24         25
    21  H    0.000000
    22  H    2.422076   0.000000
    23  H    4.337694   2.424993   0.000000
    24  H    6.260120   5.301187   3.318070   0.000000
    25  H    6.260120   5.301187   3.318070   1.719170   0.000000
 Stoichiometry    C14H11(1+)
 Framework group  CS[SG(C14H9),X(H2)]
 Deg. of freedom    46
 Full point group                 CS      NOp   2
 Largest Abelian subgroup         CS      NOp   2
 Largest concise Abelian subgroup CS      NOp   2
                         Standard orientation:                         
 ---------------------------------------------------------------------
 Center     Atomic      Atomic             Coordinates (Angstroms)
 Number     Number       Type             X           Y           Z
 ---------------------------------------------------------------------
      1          6           0        0.273239    2.865805    0.000000
      2          6           0       -0.667568    3.869714    0.000000
      3          6           0       -1.868052    3.370468    0.000000
      4          6           0       -2.133474    1.671694    0.000000
      5          6           0       -0.394496   -2.937775    0.000000
      6          6           0        0.439923   -3.637402    0.000000
      7          6           0        1.813492   -3.108637    0.000000
      8          6           0        2.205085   -1.731880    0.000000
      9          6           0        1.317784    0.621184    0.000000
     10          6           0       -1.212319   -0.825403    0.000000
     11          6           0        0.000000    1.215610    0.000000
     12          6           0       -1.201773    0.785684    0.000000
     13          6           0        1.355669   -0.965233    0.000000
     14          6           0       -0.109954   -1.445131    0.000000
     15          1           0        1.354691    3.073782    0.000000
     16          1           0       -0.430972    4.920405    0.000000
     17          1           0       -2.788452    3.957952    0.000000
     18          1           0       -3.214210    1.463792    0.000000
     19          1           0       -2.179813   -1.320159    0.000000
     20          1           0       -1.472043   -3.153866    0.000000
     21          1           0        0.351336   -4.712188    0.000000
     22          1           0        2.613216   -3.845961    0.000000
     23          1           0        3.283210   -1.515360    0.000000
     24          1           0        1.788856    1.319707    0.859585
     25          1           0        1.788856    1.319707   -0.859585
 ---------------------------------------------------------------------
 Rotational constants (GHZ):           2.1200848           0.4424399           0.3668406
 Standard basis: 6-311++G(d,p) (5D, 7F)
 There are   299 symmetry adapted cartesian basis functions of A'  symmetry.
 There are   100 symmetry adapted cartesian basis functions of A"  symmetry.
 There are   285 symmetry adapted basis functions of A'  symmetry.
 There are   100 symmetry adapted basis functions of A"  symmetry.
   385 basis functions,   603 primitive gaussians,   399 cartesian basis functions
    47 alpha electrons       47 beta electrons
       nuclear repulsion energy       782.9200637908 Hartrees.
 NAtoms=   25 NActive=   25 NUniq=   24 SFac= 1.09D+00 NAtFMM=   60 NAOKFM=F Big=F
 Integral buffers will be    131072 words long.
 Regular integral format.
 Two-electron integral symmetry is turned on.
 Nuclear repulsion after empirical dispersion term =      782.9191037928 Hartrees.
 One-electron integrals computed using PRISM.
 NBasis=   385 RedAO= T EigKep=  1.08D-06  NBF=   285   100
 NBsUse=   379 1.00D-06 EigRej=  6.99D-07 NBFU=   279   100
 ExpMin= 3.60D-02 ExpMax= 4.56D+03 ExpMxC= 6.82D+02 IAcc=3 IRadAn=         5 AccDes= 0.00D+00
 Harris functional with IExCor= 1009 and IRadAn=       5 diagonalized for initial guess.
 HarFok:  IExCor= 1009 AccDes= 0.00D+00 IRadAn=         5 IDoV= 1 UseB2=F ITyADJ=14
 ICtDFT=  3500011 ScaDFX=  1.000000  1.000000  1.000000  1.000000
 FoFCou: FMM=F IPFlag=           0 FMFlag=      100000 FMFlg1=           0
         NFxFlg=           0 DoJE=T BraDBF=F KetDBF=T FulRan=T
         wScrn=  0.000000 ICntrl=       500 IOpCl=  0 I1Cent=   200000004 NGrid=           0
         NMat0=    1 NMatS0=      1 NMatT0=    0 NMatD0=    1 NMtDS0=    0 NMtDT0=    0
 Petite list used in FoFCou.
 Initial guess orbital symmetries:
       Occupied  (A') (A') (A') (A') (A') (A') (A') (A') (A') (A')
                 (A') (A') (A') (A') (A') (A') (A') (A') (A') (A')
                 (A') (A') (A') (A') (A') (A') (A') (A') (A') (A')
                 (A') (A') (A") (A') (A') (A') (A") (A') (A') (A")
                 (A') (A') (A") (A") (A') (A") (A")
       Virtual   (A") (A") (A") (A") (A") (A') (A') (A') (A') (A')
                 (A') (A") (A') (A') (A") (A') (A') (A") (A') (A')
                 (A') (A") (A') (A') (A') (A") (A') (A") (A') (A")
                 (A') (A') (A') (A') (A") (A') (A') (A') (A') (A")
                 (A") (A') (A") (A') (A') (A') (A') (A') (A') (A')
                 (A") (A') (A") (A") (A') (A') (A") (A') (A') (A")
                 (A') (A') (A') (A') (A") (A') (A') (A') (A') (A")
                 (A') (A') (A') (A') (A') (A') (A') (A') (A') (A')
                 (A') (A') (A') (A') (A') (A') (A') (A') (A') (A')
                 (A') (A') (A") (A') (A') (A') (A") (A') (A') (A")
                 (A') (A") (A') (A') (A") (A') (A") (A') (A") (A')
                 (A") (A") (A") (A') (A') (A') (A") (A') (A') (A")
                 (A") (A') (A') (A') (A") (A') (A') (A') (A") (A')
                 (A') (A') (A') (A') (A') (A') (A') (A') (A") (A')
                 (A') (A') (A') (A') (A") (A') (A') (A') (A') (A')
                 (A") (A") (A') (A') (A") (A') (A') (A') (A") (A")
                 (A') (A') (A") (A") (A") (A') (A") (A') (A') (A')
                 (A") (A') (A') (A') (A') (A') (A') (A') (A") (A")
                 (A') (A") (A') (A") (A') (A") (A') (A') (A") (A')
                 (A") (A') (A") (A') (A') (A') (A') (A") (A') (A")
                 (A") (A') (A") (A') (A") (A") (A') (A') (A') (A")
                 (A') (A') (A') (A") (A') (A") (A') (A') (A') (A")
                 (A') (A") (A') (A") (A') (A') (A') (A") (A') (A')
                 (A") (A') (A") (A') (A') (A') (A") (A") (A') (A")
                 (A') (A') (A') (A') (A") (A') (A') (A') (A') (A')
                 (A') (A") (A') (A") (A") (A') (A') (A') (A") (A')
                 (A") (A') (A') (A') (A") (A') (A') (A') (A") (A")
                 (A') (A') (A") (A') (A') (A") (A') (A") (A') (A")
                 (A') (A') (A") (A') (A') (A") (A") (A') (A') (A')
                 (A') (A') (A') (A') (A') (A') (A') (A') (A") (A')
                 (A') (A') (A') (A') (A') (A') (A') (A') (A') (A')
                 (A') (A') (A') (A') (A') (A') (A') (A') (A') (A')
                 (A') (A') (A') (A') (A') (A') (A') (A') (A') (A')
                 (A') (A')
 The electronic state of the initial guess is 1-A'.
 Requested convergence on RMS density matrix=1.00D-08 within 128 cycles.
 Requested convergence on MAX density matrix=1.00D-06.
 Requested convergence on             energy=1.00D-06.
 No special actions if energy rises.
 SCF Done:  E(RM062X) =  -539.303444521     A.U. after   17 cycles
            NFock= 17  Conv=0.53D-08     -V/T= 2.0006
 DoSCS=F DFT=T ScalE2(SS,OS)=  1.000000  1.000000
 ExpMin= 3.60D-02 ExpMax= 4.56D+03 ExpMxC= 6.82D+02 IAcc=3 IRadAn=         5 AccDes= 0.00D+00
 HarFok:  IExCor=  205 AccDes= 0.00D+00 IRadAn=         5 IDoV=-2 UseB2=F ITyADJ=14
 ICtDFT= 12500011 ScaDFX=  1.000000  1.000000  1.000000  1.000000
 Range of M.O.s used for correlation:    15   379
 NBasis=   385 NAE=    47 NBE=    47 NFC=    14 NFV=     0
 NROrb=    365 NOA=    33 NOB=    33 NVA=   332 NVB=   332

 **** Warning!!: The largest alpha MO coefficient is  0.20154395D+03


 **** Warning!!: The smallest alpha delta epsilon is  0.99979159D-01

 Orbital symmetries:
       Occupied  (A') (A') (A') (A') (A') (A') (A') (A') (A') (A')
                 (A') (A') (A') (A') (A') (A') (A') (A') (A') (A')
                 (A') (A') (A') (A') (A') (A') (A') (A') (A') (A')
                 (A') (A") (A') (A') (A') (A') (A") (A') (A") (A')
                 (A') (A") (A') (A") (A') (A") (A")
       Virtual   (A") (A") (A") (A') (A') (A") (A') (A') (A') (A")
                 (A') (A") (A') (A') (A") (A') (A") (A') (A') (A')
                 (A") (A") (A') (A') (A') (A') (A') (A') (A") (A')
                 (A") (A") (A') (A') (A') (A") (A') (A') (A") (A')
                 (A') (A") (A') (A') (A') (A") (A') (A") (A') (A")
                 (A') (A') (A') (A") (A') (A') (A') (A") (A') (A')
                 (A') (A') (A') (A") (A') (A') (A") (A') (A') (A')
                 (A') (A') (A') (A') (A') (A') (A') (A') (A') (A')
                 (A') (A') (A') (A') (A') (A') (A') (A') (A') (A')
                 (A') (A') (A") (A') (A") (A') (A') (A') (A") (A')
                 (A") (A') (A") (A') (A') (A") (A") (A') (A') (A")
                 (A') (A") (A') (A") (A') (A') (A") (A') (A") (A")
                 (A') (A') (A') (A") (A') (A') (A") (A') (A') (A')
                 (A') (A') (A') (A') (A') (A') (A') (A') (A') (A')
                 (A') (A') (A') (A") (A') (A') (A') (A") (A') (A')
                 (A') (A') (A") (A') (A') (A') (A") (A") (A') (A")
                 (A") (A') (A') (A") (A') (A") (A') (A") (A") (A')
                 (A") (A') (A') (A') (A') (A') (A') (A') (A") (A")
                 (A') (A") (A') (A") (A') (A") (A') (A') (A") (A")
                 (A') (A') (A") (A') (A') (A') (A') (A") (A") (A')
                 (A") (A') (A') (A") (A") (A") (A') (A') (A') (A")
                 (A') (A') (A') (A") (A') (A') (A") (A') (A') (A')
                 (A") (A') (A") (A") (A') (A') (A') (A") (A') (A")
                 (A') (A') (A") (A') (A') (A') (A") (A") (A') (A")
                 (A') (A') (A") (A') (A') (A') (A') (A') (A') (A')
                 (A') (A") (A') (A') (A') (A') (A") (A') (A") (A')
                 (A') (A') (A') (A") (A") (A') (A') (A') (A') (A")
                 (A') (A') (A") (A") (A') (A") (A") (A') (A') (A")
                 (A') (A") (A") (A') (A') (A") (A") (A') (A') (A')
                 (A') (A') (A') (A') (A') (A') (A') (A') (A") (A')
                 (A') (A') (A') (A') (A') (A') (A') (A') (A') (A')
                 (A') (A') (A') (A') (A') (A') (A') (A') (A') (A')
                 (A') (A') (A') (A') (A') (A') (A') (A') (A') (A')
                 (A') (A')
     4 initial guesses have been made.
 Convergence on wavefunction:    0.001000000000000
 Iteration     1 Dimension     4 NMult     0 NNew      4
 CISAX will form     4 AO SS matrices at one time.
 Iteration     2 Dimension     6 NMult     4 NNew      2
 Iteration     3 Dimension     8 NMult     6 NNew      2
 Iteration     4 Dimension    10 NMult     8 NNew      2
 Iteration     5 Dimension    12 NMult    10 NNew      2
 Iteration     6 Dimension    14 NMult    12 NNew      2
 ***********************************************************************
 Excited states from <AA,BB:AA,BB> singles matrix:
 ***********************************************************************
 
 Ground to excited state transition densities written to RWF  633
 Ground to excited state transition electric dipole moments (Au):
       state          X           Y           Z        Dip. S.      Osc.
         1        -0.3478      1.5018      0.0000      2.3763      0.0713
 Ground to excited state transition velocity dipole moments (Au):
       state          X           Y           Z        Dip. S.      Osc.
         1         0.0092     -0.0648     -0.0000      0.0043      0.0635
 Ground to excited state transition magnetic dipole moments (Au):
       state          X           Y           Z
         1        -0.0000      0.0000     -0.3938
 Ground to excited state transition velocity quadrupole moments (Au):
       state          XX          YY          ZZ          XY          XZ          YZ
         1         0.0188      0.0371     -0.0052     -0.0613     -0.0000     -0.0000
 <0|del|b> * <b|rxdel|0> + <0|del|b> * <b|delr+rdel|0>
 Rotatory Strengths (R) in cgs (10**-40 erg-esu-cm/Gauss)
       state          XX          YY          ZZ    R(velocity)    E-M Angle
         1        -0.0000      0.0000     -0.0000     -0.0000       90.00
 1/2[<0|r|b>*<b|rxdel|0> + (<0|rxdel|b>*<b|r|0>)*]
 Rotatory Strengths (R) in cgs (10**-40 erg-esu-cm/Gauss)
       state          XX          YY          ZZ     R(length)
         1        -0.0000     -0.0000      0.0000     -0.0000
  1/2[<0|del|b>*<b|r|0> + (<0|r|b>*<b|del|0>)*] (Au)
       state          X           Y           Z        Dip. S.   Osc.(frdel)
         1        -0.0032     -0.0973     -0.0000      0.1005      0.0670

 Excitation energies and oscillator strengths:
 
 Excited State   1:      Singlet-A'     1.2244 eV 1012.62 nm  f=0.0713  <S**2>=0.000
      47 -> 48         0.70575
 This state for optimization and/or second-order correction.
 Total Energy, E(TD-HF/TD-DFT) =  -539.258448843    
 Copying the excited state density for this state as the 1-particle RhoCI density.
 SavETr:  write IOETrn=   770 NScale= 10 NData=  16 NLR=1 NState=    1 LETran=      28.

 **********************************************************************

            Population analysis using the SCF Density.

 **********************************************************************

 Orbital symmetries:
       Occupied  (A') (A') (A') (A') (A') (A') (A') (A') (A') (A')
                 (A') (A') (A') (A') (A') (A') (A') (A') (A') (A')
                 (A') (A') (A') (A') (A') (A') (A') (A') (A') (A')
                 (A') (A") (A') (A') (A') (A') (A") (A') (A") (A')
                 (A') (A") (A') (A") (A') (A") (A")
       Virtual   (A") (A") (A") (A') (A') (A") (A') (A') (A') (A")
                 (A') (A") (A') (A') (A") (A') (A") (A') (A') (A')
                 (A") (A") (A') (A') (A') (A') (A') (A') (A") (A')
                 (A") (A") (A') (A') (A') (A") (A') (A') (A") (A')
                 (A') (A") (A') (A') (A') (A") (A') (A") (A') (A")
                 (A') (A') (A') (A") (A') (A') (A') (A") (A') (A')
                 (A') (A') (A') (A") (A') (A') (A") (A') (A') (A')
                 (A') (A') (A') (A') (A') (A') (A') (A') (A') (A')
                 (A') (A') (A') (A') (A') (A') (A') (A') (A') (A')
                 (A') (A') (A") (A') (A") (A') (A') (A') (A") (A')
                 (A") (A') (A") (A') (A') (A") (A") (A') (A') (A")
                 (A') (A") (A') (A") (A') (A') (A") (A') (A") (A")
                 (A') (A') (A') (A") (A') (A') (A") (A') (A') (A')
                 (A') (A') (A') (A') (A') (A') (A') (A') (A') (A')
                 (A') (A') (A') (A") (A') (A') (A') (A") (A') (A')
                 (A') (A') (A") (A') (A') (A') (A") (A") (A') (A")
                 (A") (A') (A') (A") (A') (A") (A') (A") (A") (A')
                 (A") (A') (A') (A') (A') (A') (A') (A') (A") (A")
                 (A') (A") (A') (A") (A') (A") (A') (A') (A") (A")
                 (A') (A') (A") (A') (A') (A') (A') (A") (A") (A')
                 (A") (A') (A') (A") (A") (A") (A') (A') (A') (A")
                 (A') (A') (A') (A") (A') (A') (A") (A') (A') (A')
                 (A") (A') (A") (A") (A') (A') (A') (A") (A') (A")
                 (A') (A') (A") (A') (A') (A') (A") (A") (A') (A")
                 (A') (A') (A") (A') (A') (A') (A') (A') (A') (A')
                 (A') (A") (A') (A') (A') (A') (A") (A') (A") (A')
                 (A') (A') (A') (A") (A") (A') (A') (A') (A') (A")
                 (A') (A') (A") (A") (A') (A") (A") (A') (A') (A")
                 (A') (A") (A") (A') (A') (A") (A") (A') (A') (A')
                 (A') (A') (A') (A') (A') (A') (A') (A') (A") (A')
                 (A') (A') (A') (A') (A') (A') (A') (A') (A') (A')
                 (A') (A') (A') (A') (A') (A') (A') (A') (A') (A')
                 (A') (A') (A') (A') (A') (A') (A') (A') (A') (A')
                 (A') (A')
 The electronic state is 1-A'.
 Alpha  occ. eigenvalues --  -10.78285 -10.75442 -10.74004 -10.73020 -10.72559
 Alpha  occ. eigenvalues --  -10.71270 -10.71093 -10.70533 -10.69545 -10.69124
 Alpha  occ. eigenvalues --  -10.68895 -10.68840 -10.68630 -10.66653  -1.19878
 Alpha  occ. eigenvalues --   -1.12860  -1.11690  -1.06661  -1.02498  -1.01079
 Alpha  occ. eigenvalues --   -0.95353  -0.88519  -0.86095  -0.85168  -0.83216
 Alpha  occ. eigenvalues --   -0.77328  -0.76583  -0.74370  -0.72685  -0.70007
 Alpha  occ. eigenvalues --   -0.68869  -0.67610  -0.66571  -0.65100  -0.63491
 Alpha  occ. eigenvalues --   -0.62843  -0.62741  -0.59721  -0.57989  -0.56345
 Alpha  occ. eigenvalues --   -0.54493  -0.54322  -0.53194  -0.52389  -0.48706
 Alpha  occ. eigenvalues --   -0.47627  -0.36923
 Alpha virt. eigenvalues --   -0.26925  -0.16010  -0.13087  -0.11528  -0.10385
 Alpha virt. eigenvalues --   -0.10039  -0.09889  -0.07854  -0.07681  -0.07492
 Alpha virt. eigenvalues --   -0.07395  -0.06168  -0.05835  -0.05430  -0.05228
 Alpha virt. eigenvalues --   -0.04477  -0.04083  -0.03499  -0.03224  -0.01957
 Alpha virt. eigenvalues --   -0.01930  -0.00995  -0.00838  -0.00588   0.00447
 Alpha virt. eigenvalues --    0.00635   0.00838   0.01318   0.01396   0.01560
 Alpha virt. eigenvalues --    0.02035   0.02538   0.03051   0.03263   0.03392
 Alpha virt. eigenvalues --    0.03606   0.03774   0.04101   0.05076   0.05399
 Alpha virt. eigenvalues --    0.05518   0.05838   0.05942   0.06371   0.07291
 Alpha virt. eigenvalues --    0.07375   0.07718   0.08004   0.08191   0.08323
 Alpha virt. eigenvalues --    0.08361   0.08650   0.09525   0.09695   0.10063
 Alpha virt. eigenvalues --    0.10349   0.10523   0.11293   0.11692   0.12445
 Alpha virt. eigenvalues --    0.12602   0.12944   0.13289   0.13728   0.14006
 Alpha virt. eigenvalues --    0.14294   0.15454   0.16561   0.16915   0.17756
 Alpha virt. eigenvalues --    0.18610   0.19175   0.20148   0.20616   0.20908
 Alpha virt. eigenvalues --    0.21389   0.21947   0.23058   0.23711   0.24109
 Alpha virt. eigenvalues --    0.24527   0.25225   0.25828   0.27052   0.27885
 Alpha virt. eigenvalues --    0.28697   0.29725   0.31495   0.32297   0.34032
 Alpha virt. eigenvalues --    0.36694   0.37850   0.37906   0.39135   0.39181
 Alpha virt. eigenvalues --    0.40775   0.41875   0.42743   0.43467   0.43827
 Alpha virt. eigenvalues --    0.44147   0.44744   0.46390   0.46460   0.47230
 Alpha virt. eigenvalues --    0.48122   0.48881   0.49409   0.51021   0.51324
 Alpha virt. eigenvalues --    0.51842   0.52161   0.53255   0.53605   0.54094
 Alpha virt. eigenvalues --    0.55028   0.55796   0.57626   0.57844   0.59314
 Alpha virt. eigenvalues --    0.59628   0.61337   0.62645   0.62903   0.63199
 Alpha virt. eigenvalues --    0.64265   0.64642   0.65515   0.66786   0.67594
 Alpha virt. eigenvalues --    0.69847   0.72261   0.73228   0.73845   0.74459
 Alpha virt. eigenvalues --    0.74658   0.75901   0.76576   0.77492   0.77800
 Alpha virt. eigenvalues --    0.79007   0.79617   0.80825   0.81358   0.81643
 Alpha virt. eigenvalues --    0.82461   0.82773   0.84257   0.84927   0.85874
 Alpha virt. eigenvalues --    0.87046   0.88496   0.89633   0.89749   0.90777
 Alpha virt. eigenvalues --    0.92057   0.92808   0.95513   0.98115   0.98476
 Alpha virt. eigenvalues --    1.00216   1.00843   1.02322   1.02593   1.05474
 Alpha virt. eigenvalues --    1.05899   1.06595   1.07542   1.08438   1.11265
 Alpha virt. eigenvalues --    1.14667   1.16595   1.20194   1.21140   1.27214
 Alpha virt. eigenvalues --    1.29875   1.31438   1.33718   1.33976   1.35714
 Alpha virt. eigenvalues --    1.37868   1.38374   1.39124   1.39459   1.40534
 Alpha virt. eigenvalues --    1.43605   1.44646   1.47005   1.47252   1.49396
 Alpha virt. eigenvalues --    1.49575   1.51212   1.51911   1.55868   1.56453
 Alpha virt. eigenvalues --    1.56828   1.56974   1.56980   1.59775   1.59836
 Alpha virt. eigenvalues --    1.62578   1.63874   1.65269   1.65281   1.68265
 Alpha virt. eigenvalues --    1.70138   1.70331   1.71574   1.73524   1.73864
 Alpha virt. eigenvalues --    1.76500   1.77433   1.78067   1.79596   1.79623
 Alpha virt. eigenvalues --    1.81902   1.82667   1.83854   1.85865   1.86239
 Alpha virt. eigenvalues --    1.86818   1.87720   1.88703   1.91008   1.92586
 Alpha virt. eigenvalues --    1.92900   1.94970   1.97448   1.99456   2.00671
 Alpha virt. eigenvalues --    2.00671   2.04008   2.10578   2.10910   2.15427
 Alpha virt. eigenvalues --    2.16467   2.17579   2.18798   2.19869   2.21232
 Alpha virt. eigenvalues --    2.22212   2.26374   2.30452   2.30562   2.31275
 Alpha virt. eigenvalues --    2.33935   2.36728   2.38423   2.40611   2.42949
 Alpha virt. eigenvalues --    2.43037   2.43115   2.48431   2.49768   2.51780
 Alpha virt. eigenvalues --    2.56096   2.56747   2.57766   2.59128   2.60487
 Alpha virt. eigenvalues --    2.61256   2.62015   2.63717   2.63940   2.64773
 Alpha virt. eigenvalues --    2.65241   2.66595   2.67947   2.69539   2.70842
 Alpha virt. eigenvalues --    2.71741   2.72730   2.73359   2.74452   2.75920
 Alpha virt. eigenvalues --    2.76578   2.78337   2.80282   2.83513   2.84547
 Alpha virt. eigenvalues --    2.88219   2.88932   2.92444   2.92531   2.95702
 Alpha virt. eigenvalues --    2.98674   3.01004   3.02538   3.04261   3.06471
 Alpha virt. eigenvalues --    3.08628   3.14798   3.18914   3.24742   3.27174
 Alpha virt. eigenvalues --    3.31355   3.36062   3.37911   3.38107   3.51574
 Alpha virt. eigenvalues --    3.53904   3.57733   3.61788   3.71813   3.73409
 Alpha virt. eigenvalues --    3.74451   3.78816   3.83568   3.87521   3.90527
 Alpha virt. eigenvalues --    3.97366   4.00224   4.05770   4.15038   4.25866
 Alpha virt. eigenvalues --    4.32919   4.41191   4.51692  23.41555  23.47361
 Alpha virt. eigenvalues --   23.53857  23.57155  23.59020  23.78662  23.81115
 Alpha virt. eigenvalues --   23.94475  24.17848  24.35854  24.42401  24.51923
 Alpha virt. eigenvalues --   25.03474  25.34128
          Condensed to atoms (all electrons):
               1          2          3          4          5          6
     1  C   18.983346  -6.879358   1.403151   4.259231  -0.479128  -0.188623
     2  C   -6.879358  12.662808  -1.308690  -2.698588   0.206055  -0.012464
     3  C    1.403151  -1.308690   6.691445   1.635614  -0.129334   0.008914
     4  C    4.259231  -2.698588   1.635614  10.008277  -1.073087  -0.087001
     5  C   -0.479128   0.206055  -0.129334  -1.073087  10.893518   0.882053
     6  C   -0.188623  -0.012464   0.008914  -0.087001   0.882053   7.260549
     7  C    0.072976  -0.014013  -0.013555  -0.151311  -0.032490   0.570617
     8  C    0.045764   0.057865  -0.085627  -0.313298   1.397462  -0.369429
     9  C    1.153293  -2.487923   0.365320   0.529135  -0.310001   0.024008
    10  C   -0.142912   0.118717  -0.321641  -0.414750  -2.975057   0.085232
    11  C   -6.685141   3.180605  -0.643687  -2.103102   0.368282  -0.441580
    12  C   -5.182190   3.419019  -1.189148  -2.251293  -0.755038   0.822029
    13  C    0.970545  -0.674094   0.093724  -0.685420  -0.823117  -0.788753
    14  C   -2.019052   0.705002  -0.559704  -0.707237  -1.426969  -1.810139
    15  H    0.497418  -0.250199   0.052904   0.065222  -0.014194   0.000345
    16  H   -0.066331   0.405812  -0.034291  -0.015842   0.001380  -0.000109
    17  H   -0.034704  -0.002284   0.369380  -0.037020  -0.000742   0.000326
    18  H    0.131410  -0.069043  -0.018169   0.447394   0.003015  -0.002589
    19  H   -0.067746   0.007277   0.021360  -0.047809   0.007788   0.064273
    20  H    0.009421   0.003786  -0.003467  -0.010762   0.469340  -0.048974
    21  H   -0.003187  -0.000062   0.000255   0.000958  -0.052015   0.399149
    22  H    0.003458   0.000808  -0.000346  -0.003630   0.031741  -0.027912
    23  H    0.001286  -0.002651   0.001073   0.004601  -0.002927   0.001941
    24  H   -0.054230   0.025905  -0.003391  -0.028778   0.010179   0.000184
    25  H   -0.054230   0.025905  -0.003391  -0.028778   0.010179   0.000184
               7          8          9         10         11         12
     1  C    0.072976   0.045764   1.153293  -0.142912  -6.685141  -5.182190
     2  C   -0.014013   0.057865  -2.487923   0.118717   3.180605   3.419019
     3  C   -0.013555  -0.085627   0.365320  -0.321641  -0.643687  -1.189148
     4  C   -0.151311  -0.313298   0.529135  -0.414750  -2.103102  -2.251293
     5  C   -0.032490   1.397462  -0.310001  -2.975057   0.368282  -0.755038
     6  C    0.570617  -0.369429   0.024008   0.085232  -0.441580   0.822029
     7  C    7.611256   1.331868  -0.418568  -0.684052  -0.378844  -0.631372
     8  C    1.331868   7.747261  -0.013668  -0.851130   0.164986  -1.260838
     9  C   -0.418568  -0.013668   9.428123   0.374600  -1.818608  -0.489715
    10  C   -0.684052  -0.851130   0.374600   8.462396  -0.489259   0.847596
    11  C   -0.378844   0.164986  -1.818608  -0.489259  14.068615   2.152612
    12  C   -0.631372  -1.260838  -0.489715   0.847596   2.152612  12.753650
    13  C    0.058083  -0.005008   1.283624   0.640298  -2.065090  -2.044665
    14  C   -1.312110  -2.059014  -1.898096   1.121568   0.277689  -0.549790
    15  H    0.001406  -0.007638   0.183756  -0.002578  -0.210774  -0.061712
    16  H   -0.000123   0.000520  -0.020938  -0.002189   0.048099   0.024305
    17  H   -0.000356  -0.001461   0.001994   0.001542   0.024703   0.028936
    18  H    0.000634   0.000156   0.003686   0.057544   0.010642  -0.223047
    19  H   -0.007024  -0.021825   0.058301   0.401182  -0.005649   0.214474
    20  H    0.028143   0.034316  -0.023430   0.001503   0.018493  -0.087595
    21  H   -0.038897   0.002597   0.000494   0.019151  -0.008867   0.014168
    22  H    0.395658  -0.031248   0.001189  -0.026811   0.006868  -0.022608
    23  H   -0.066123   0.364375   0.004099   0.004358  -0.029259   0.006987
    24  H    0.010989   0.040013   0.369227   0.003870  -0.030785  -0.007754
    25  H    0.010989   0.040013   0.369227   0.003870  -0.030785  -0.007754
              13         14         15         16         17         18
     1  C    0.970545  -2.019052   0.497418  -0.066331  -0.034704   0.131410
     2  C   -0.674094   0.705002  -0.250199   0.405812  -0.002284  -0.069043
     3  C    0.093724  -0.559704   0.052904  -0.034291   0.369380  -0.018169
     4  C   -0.685420  -0.707237   0.065222  -0.015842  -0.037020   0.447394
     5  C   -0.823117  -1.426969  -0.014194   0.001380  -0.000742   0.003015
     6  C   -0.788753  -1.810139   0.000345  -0.000109   0.000326  -0.002589
     7  C    0.058083  -1.312110   0.001406  -0.000123  -0.000356   0.000634
     8  C   -0.005008  -2.059014  -0.007638   0.000520  -0.001461   0.000156
     9  C    1.283624  -1.898096   0.183756  -0.020938   0.001994   0.003686
    10  C    0.640298   1.121568  -0.002578  -0.002189   0.001542   0.057544
    11  C   -2.065090   0.277689  -0.210774   0.048099   0.024703   0.010642
    12  C   -2.044665  -0.549790  -0.061712   0.024305   0.028936  -0.223047
    13  C   12.772173  -2.166391   0.055968  -0.009084  -0.000313  -0.003272
    14  C   -2.166391  18.125719  -0.038457   0.009726  -0.006575   0.000329
    15  H    0.055968  -0.038457   0.515238  -0.007899   0.000017  -0.000582
    16  H   -0.009084   0.009726  -0.007899   0.427518  -0.003287   0.001022
    17  H   -0.000313  -0.006575   0.000017  -0.003287   0.428173  -0.004225
    18  H   -0.003272   0.000329  -0.000582   0.001022  -0.004225   0.447384
    19  H   -0.003444  -0.269545  -0.000249  -0.000198   0.000783  -0.009196
    20  H   -0.007405  -0.041602  -0.000087   0.000022  -0.000143   0.001038
    21  H   -0.026987   0.036857  -0.000029  -0.000002   0.000008  -0.000174
    22  H    0.052418  -0.042596  -0.000231   0.000007  -0.000006  -0.000000
    23  H   -0.030109   0.090359   0.000840  -0.000075   0.000026  -0.000138
    24  H    0.019966  -0.026168  -0.003093   0.000418   0.000070   0.000122
    25  H    0.019966  -0.026168  -0.003093   0.000418   0.000070   0.000122
              19         20         21         22         23         24
     1  C   -0.067746   0.009421  -0.003187   0.003458   0.001286  -0.054230
     2  C    0.007277   0.003786  -0.000062   0.000808  -0.002651   0.025905
     3  C    0.021360  -0.003467   0.000255  -0.000346   0.001073  -0.003391
     4  C   -0.047809  -0.010762   0.000958  -0.003630   0.004601  -0.028778
     5  C    0.007788   0.469340  -0.052015   0.031741  -0.002927   0.010179
     6  C    0.064273  -0.048974   0.399149  -0.027912   0.001941   0.000184
     7  C   -0.007024   0.028143  -0.038897   0.395658  -0.066123   0.010989
     8  C   -0.021825   0.034316   0.002597  -0.031248   0.364375   0.040013
     9  C    0.058301  -0.023430   0.000494   0.001189   0.004099   0.369227
    10  C    0.401182   0.001503   0.019151  -0.026811   0.004358   0.003870
    11  C   -0.005649   0.018493  -0.008867   0.006868  -0.029259  -0.030785
    12  C    0.214474  -0.087595   0.014168  -0.022608   0.006987  -0.007754
    13  C   -0.003444  -0.007405  -0.026987   0.052418  -0.030109   0.019966
    14  C   -0.269545  -0.041602   0.036857  -0.042596   0.090359  -0.026168
    15  H   -0.000249  -0.000087  -0.000029  -0.000231   0.000840  -0.003093
    16  H   -0.000198   0.000022  -0.000002   0.000007  -0.000075   0.000418
    17  H    0.000783  -0.000143   0.000008  -0.000006   0.000026   0.000070
    18  H   -0.009196   0.001038  -0.000174  -0.000000  -0.000138   0.000122
    19  H    0.475027   0.002595   0.002097  -0.000347   0.000601   0.000915
    20  H    0.002595   0.441312  -0.011823   0.002402  -0.000032  -0.000008
    21  H    0.002097  -0.011823   0.408068  -0.003361   0.001664  -0.000064
    22  H   -0.000347   0.002402  -0.003361   0.387021  -0.004014   0.000395
    23  H    0.000601  -0.000032   0.001664  -0.004014   0.407318  -0.000360
    24  H    0.000915  -0.000008  -0.000064   0.000395  -0.000360   0.471499
    25  H    0.000915  -0.000008  -0.000064   0.000395  -0.000360  -0.070749
              25
     1  C   -0.054230
     2  C    0.025905
     3  C   -0.003391
     4  C   -0.028778
     5  C    0.010179
     6  C    0.000184
     7  C    0.010989
     8  C    0.040013
     9  C    0.369227
    10  C    0.003870
    11  C   -0.030785
    12  C   -0.007754
    13  C    0.019966
    14  C   -0.026168
    15  H   -0.003093
    16  H    0.000418
    17  H    0.000070
    18  H    0.000122
    19  H    0.000915
    20  H   -0.000008
    21  H   -0.000064
    22  H    0.000395
    23  H   -0.000360
    24  H   -0.070749
    25  H    0.471499
 Mulliken charges:
               1
     1  C    0.325535
     2  C   -0.420198
     3  C   -0.328699
     4  C   -0.292728
     5  C   -0.206890
     6  C   -0.342232
     7  C   -0.343780
     8  C   -0.207012
     9  C   -0.669131
    10  C   -0.233045
    11  C    0.619836
    12  C    0.480741
    13  C   -0.633612
    14  C    0.592363
    15  H    0.227700
    16  H    0.241122
    17  H    0.235087
    18  H    0.225938
    19  H    0.175443
    20  H    0.222968
    21  H    0.260066
    22  H    0.280751
    23  H    0.246521
    24  H    0.271628
    25  H    0.271628
 Sum of Mulliken charges =   1.00000
 Mulliken charges with hydrogens summed into heavy atoms:
               1
     1  C    0.553234
     2  C   -0.179075
     3  C   -0.093611
     4  C   -0.066790
     5  C    0.016077
     6  C   -0.082165
     7  C   -0.063029
     8  C    0.039509
     9  C   -0.125876
    10  C   -0.057602
    11  C    0.619836
    12  C    0.480741
    13  C   -0.633612
    14  C    0.592363
 Electronic spatial extent (au):  <R**2>=           2867.6176
 Charge=              1.0000 electrons
 Dipole moment (field-independent basis, Debye):
    X=              2.6672    Y=             -4.4419    Z=             -0.0000  Tot=              5.1812
 Quadrupole moment (field-independent basis, Debye-Ang):
   XX=            -54.4247   YY=            -28.8127   ZZ=            -83.7260
   XY=             -9.0305   XZ=             -0.0000   YZ=              0.0000
 Traceless Quadrupole moment (field-independent basis, Debye-Ang):
   XX=              1.2298   YY=             26.8418   ZZ=            -28.0715
   XY=             -9.0305   XZ=             -0.0000   YZ=              0.0000
 Octapole moment (field-independent basis, Debye-Ang**2):
  XXX=             14.7280  YYY=            -36.4842  ZZZ=              0.0000  XYY=             15.5093
  XXY=            -20.7164  XXZ=             -0.0000  XZZ=              5.9805  YZZ=             -7.3775
  YYZ=              0.0000  XYZ=              0.0000
 Hexadecapole moment (field-independent basis, Debye-Ang**3):
 XXXX=           -809.8622 YYYY=          -1950.9633 ZZZZ=            -98.8225 XXXY=            260.9567
 XXXZ=              0.0000 YYYX=            180.3973 YYYZ=             -0.0000 ZZZX=             -0.0000
 ZZZY=              0.0000 XXYY=           -467.8944 XXZZ=           -197.1663 YYZZ=           -534.9562
 XXYZ=             -0.0000 YYXZ=             -0.0000 ZZXY=            138.1385
 N-N= 7.829191037928D+02 E-N=-2.802891321832D+03  KE= 5.389840780854D+02
 Symmetry A'   KE= 5.239754535589D+02
 Symmetry A"   KE= 1.500862452644D+01
 Unable to Open any file for archive entry.
 1\1\GINC-GADI-CPU-CLX-0240\SP\RM062X TD-FC\6-311++G(d,p)\C14H11(1+)\TS
 1578\02-Aug-2022\0\\#n M062X/6-311++G(d,p) TD(NStates=1) EmpiricalDisp
 ersion=GD3 SP\\SP_-10\\1,1\C,0,0.,2.574655,1.294431\C,0,0.,3.851508,0.
 781989\C,0,0.,3.821861,-0.51783\C,0,0.,2.335156,-1.381538\C,0,0.,-2.59
 1156,-1.433538\C,0,0.,-3.545861,-0.90983\C,0,0.,-3.551508,0.561989\C,0
 ,0.,-2.410655,1.426431\C,0,0.,0.104,1.453369\C,0,0.,-0.326,-1.429189\C
 ,0,0.,1.136055,0.441065\C,0,0.,1.171471,-0.834804\C,0,0.,-1.388055,0.9
 13065\C,0,0.,-1.303471,-0.626804\H,0,0.,2.376071,2.377647\H,0,0.,4.744
 753,1.383689\H,0,0.,4.703262,-1.162349\H,0,0.,2.53355,-2.464059\H,0,0.
 ,-0.436,-2.510266\H,0,0.,-2.40155,-2.516059\H,0,0.,-4.515262,-1.382349
 \H,0,0.,-4.528753,1.039689\H,0,0.,-2.600071,2.509647\H,0,-0.859585,0.5
 84,2.145787\H,0,0.859585,0.584,2.145787\\Version=ES64L-G16RevC.01\Stat
 e=1-A'\HF=-539.3034445\RMSD=5.337e-09\PG=CS [SG(C14H9),X(H2)]\\@
 The archive entry for this job was punched.


 ... UNTIL SCIENCE IS MIXED WITH EMOTION AND APPEALS TO THE HEART AND
 IMAGINATION , IT IS LIKE DEAD INORGANIC MATTER; AND WHEN IT IS SO MIXED
 AND SO TRANSFORMED IT IS LITERATURE.

                                  -- JOHN BURROUGHS
 Job cpu time:       0 days  0 hours 55 minutes 15.4 seconds.
 Elapsed time:       0 days  0 hours  1 minutes  9.2 seconds.
 File lengths (MBytes):  RWF=    460 Int=      0 D2E=      0 Chk=     15 Scr=      1
 Normal termination of Gaussian 16 at Tue Aug  2 11:56:41 2022.
