 Entering Gaussian System, Link 0=g16
 Initial command:
 /apps/gaussian/g16c01/g16/l1.exe "/jobfs/53803565.gadi-pbs/Gau-1055908.inp" -scrdir="/jobfs/53803565.gadi-pbs/"
 Entering Link 1 = /apps/gaussian/g16c01/g16/l1.exe PID=   1055909.
  
 Copyright (c) 1988-2019, Gaussian, Inc.  All Rights Reserved.
  
 This is part of the Gaussian(R) 16 program.  It is based on
 the Gaussian(R) 09 system (copyright 2009, Gaussian, Inc.),
 the Gaussian(R) 03 system (copyright 2003, Gaussian, Inc.),
 the Gaussian(R) 98 system (copyright 1998, Gaussian, Inc.),
 the Gaussian(R) 94 system (copyright 1995, Gaussian, Inc.),
 the Gaussian 92(TM) system (copyright 1992, Gaussian, Inc.),
 the Gaussian 90(TM) system (copyright 1990, Gaussian, Inc.),
 the Gaussian 88(TM) system (copyright 1988, Gaussian, Inc.),
 the Gaussian 86(TM) system (copyright 1986, Carnegie Mellon
 University), and the Gaussian 82(TM) system (copyright 1983,
 Carnegie Mellon University). Gaussian is a federally registered
 trademark of Gaussian, Inc.
  
 This software contains proprietary and confidential information,
 including trade secrets, belonging to Gaussian, Inc.
  
 This software is provided under written license and may be
 used, copied, transmitted, or stored only in accord with that
 written license.
  
 The following legend is applicable only to US Government
 contracts under FAR:
  
                    RESTRICTED RIGHTS LEGEND
  
 Use, reproduction and disclosure by the US Government is
 subject to restrictions as set forth in subparagraphs (a)
 and (c) of the Commercial Computer Software - Restricted
 Rights clause in FAR 52.227-19.
  
 Gaussian, Inc.
 340 Quinnipiac St., Bldg. 40, Wallingford CT 06492
  
  
 ---------------------------------------------------------------
 Warning -- This program may not be used in any manner that
 competes with the business of Gaussian, Inc. or will provide
 assistance to any competitor of Gaussian, Inc.  The licensee
 of this program is prohibited from giving any competitor of
 Gaussian, Inc. access to this program.  By using this program,
 the user acknowledges that Gaussian, Inc. is engaged in the
 business of creating and licensing software in the field of
 computational chemistry and represents and warrants to the
 licensee that it is not a competitor of Gaussian, Inc. and that
 it will not use this program in any manner prohibited above.
 ---------------------------------------------------------------
  

 Cite this work as:
 Gaussian 16, Revision C.01,
 M. J. Frisch, G. W. Trucks, H. B. Schlegel, G. E. Scuseria, 
 M. A. Robb, J. R. Cheeseman, G. Scalmani, V. Barone, 
 G. A. Petersson, H. Nakatsuji, X. Li, M. Caricato, A. V. Marenich, 
 J. Bloino, B. G. Janesko, R. Gomperts, B. Mennucci, H. P. Hratchian, 
 J. V. Ortiz, A. F. Izmaylov, J. L. Sonnenberg, D. Williams-Young, 
 F. Ding, F. Lipparini, F. Egidi, J. Goings, B. Peng, A. Petrone, 
 T. Henderson, D. Ranasinghe, V. G. Zakrzewski, J. Gao, N. Rega, 
 G. Zheng, W. Liang, M. Hada, M. Ehara, K. Toyota, R. Fukuda, 
 J. Hasegawa, M. Ishida, T. Nakajima, Y. Honda, O. Kitao, H. Nakai, 
 T. Vreven, K. Throssell, J. A. Montgomery, Jr., J. E. Peralta, 
 F. Ogliaro, M. J. Bearpark, J. J. Heyd, E. N. Brothers, K. N. Kudin, 
 V. N. Staroverov, T. A. Keith, R. Kobayashi, J. Normand, 
 K. Raghavachari, A. P. Rendell, J. C. Burant, S. S. Iyengar, 
 J. Tomasi, M. Cossi, J. M. Millam, M. Klene, C. Adamo, R. Cammi, 
 J. W. Ochterski, R. L. Martin, K. Morokuma, O. Farkas, 
 J. B. Foresman, and D. J. Fox, Gaussian, Inc., Wallingford CT, 2019.
 
 ******************************************
 Gaussian 16:  ES64L-G16RevC.01  3-Jul-2019
                 2-Aug-2022 
 ******************************************
 %NProcShared=48
 Will use up to   48 processors via shared memory.
 %mem = 190GB
 ---------------------------------------------------------------
 #n M062X/6-311++G(d,p) TD(NStates=1) EmpiricalDispersion=GD3 SP
 ---------------------------------------------------------------
 1/38=1,172=1/1;
 2/12=2,17=6,18=5,40=1/2;
 3/5=4,6=6,7=1111,11=9,25=1,30=1,74=-55,124=31/1,2,3,8;
 4//1;
 5/5=2,38=5/2;
 8/6=1,10=2,108=1/1;
 9/41=1,42=1,70=2/14;
 6/7=2,8=2,9=2,10=2/1;
 99/5=1,9=1/99;
 ----
 SP_6
 ----
 Symbolic Z-matrix:
 Charge =  1 Multiplicity = 1
 C                     0.        2.31866   1.29443 
 C                     0.        3.56351   0.65399 
 C                     0.        3.67786  -0.77383 
 C                     0.        2.65516  -1.50954 
 C                     0.       -2.27116  -1.30554 
 C                     0.       -3.68986  -0.65383 
 C                     0.       -3.83951   0.68999 
 C                     0.       -2.66666   1.42643 
 C                     0.       -0.024     1.45337 
 C                     0.        0.138    -1.42919 
 C                     0.        1.28006   0.61707 
 C                     0.        1.31547  -0.8508 
 C                     0.       -1.24406   0.73707 
 C                     0.       -1.15947  -0.6108 
 H                     0.        2.29607   2.37765 
 H                     0.        4.45675   1.27169 
 H                     0.        4.68726  -1.19435 
 H                     0.        2.67755  -2.59206 
 H                     0.       -0.036    -2.51027 
 H                     0.       -2.25755  -2.38806 
 H                     0.       -4.53126  -1.35035 
 H                     0.       -4.81675   1.15169 
 H                     0.       -2.68007   2.50965 
 H                    -0.85959  -0.12      2.14579 
 H                     0.85959  -0.12      2.14579 
 
                          Input orientation:                          
 ---------------------------------------------------------------------
 Center     Atomic      Atomic             Coordinates (Angstroms)
 Number     Number       Type             X           Y           Z
 ---------------------------------------------------------------------
      1          6           0        0.000000    2.318655    1.294431
      2          6           0        0.000000    3.563508    0.653989
      3          6           0        0.000000    3.677861   -0.773830
      4          6           0        0.000000    2.655156   -1.509538
      5          6           0        0.000000   -2.271156   -1.305538
      6          6           0        0.000000   -3.689861   -0.653830
      7          6           0        0.000000   -3.839508    0.689989
      8          6           0        0.000000   -2.666655    1.426431
      9          6           0        0.000000   -0.024000    1.453369
     10          6           0        0.000000    0.138000   -1.429189
     11          6           0        0.000000    1.280055    0.617065
     12          6           0        0.000000    1.315471   -0.850804
     13          6           0        0.000000   -1.244055    0.737065
     14          6           0        0.000000   -1.159471   -0.610804
     15          1           0        0.000000    2.296071    2.377647
     16          1           0        0.000000    4.456753    1.271689
     17          1           0        0.000000    4.687262   -1.194349
     18          1           0        0.000000    2.677550   -2.592059
     19          1           0        0.000000   -0.036000   -2.510266
     20          1           0        0.000000   -2.257550   -2.388059
     21          1           0        0.000000   -4.531262   -1.350349
     22          1           0        0.000000   -4.816753    1.151689
     23          1           0        0.000000   -2.680071    2.509647
     24          1           0       -0.859585   -0.120000    2.145787
     25          1           0        0.859585   -0.120000    2.145787
 ---------------------------------------------------------------------
                    Distance matrix (angstroms):
                    1          2          3          4          5
     1  C    0.000000
     2  C    1.399937   0.000000
     3  C    2.474903   1.432391   0.000000
     4  C    2.824088   2.346477   1.259838   0.000000
     5  C    5.275055   6.154921   5.972731   4.930534   0.000000
     6  C    6.316485   7.370329   7.368699   6.402459   1.561233
     7  C    6.187756   7.403104   7.658564   6.857010   2.538081
     8  C    4.987057   6.277866   6.715209   6.077959   2.760448
     9  C    2.348040   3.675489   4.320207   3.994583   3.558269
    10  C    3.489035   4.009206   3.600015   2.518438   2.412327
    11  C    1.239966   2.283752   2.772014   2.532458   4.038255
    12  C    2.368208   2.705194   2.363644   1.492879   3.615339
    13  C    3.606045   4.808281   5.148598   4.500119   2.286299
    14  C    3.965764   4.889400   4.840078   3.919069   1.310915
    15  H    1.083451   2.139484   3.441097   3.903735   5.867317
    16  H    2.138219   1.086020   2.188794   3.313755   7.204641
    17  H    3.435742   2.163140   1.093493   2.056404   6.959306
    18  H    3.903026   3.364781   2.075230   1.082753   5.113201
    19  H    4.474385   4.792595   4.099753   2.871198   2.539152
    20  H    5.873873   6.568011   6.151003   4.990639   1.082607
    21  H    7.342767   8.339225   8.229342   7.188181   2.260550
    22  H    7.136836   8.395027   8.710114   7.931680   3.538083
    23  H    5.144318   6.513505   7.155733   6.679708   3.837036
    24  H    2.722266   4.066027   4.866908   4.669237   4.156682
    25  H    2.722266   4.066027   4.866908   4.669237   4.156682
                    6          7          8          9         10
     6  C    0.000000
     7  C    1.352126   0.000000
     8  C    2.318283   1.384894   0.000000
     9  C    4.228336   3.891125   2.642792   0.000000
    10  C    3.905599   4.506827   4.002581   2.887107   0.000000
    11  C    5.129838   5.120082   4.028845   1.549182   2.343383
    12  C    5.009206   5.380321   4.587279   2.665220   1.311856
    13  C    2.813637   2.595880   1.580828   1.414788   2.569578
    14  C    2.530756   2.979037   2.534153   2.355866   1.534009
    15  H    6.709786   6.363452   5.053065   2.497403   4.375988
    16  H    8.371078   8.316629   7.125089   4.484435   5.093758
    17  H    8.394543   8.732499   7.806957   5.404295   4.555319
    18  H    6.655874   7.296841   6.686463   4.864551   2.793131
    19  H    4.098421   4.970745   4.734758   3.963653   1.094990
    20  H    2.249237   3.460776   3.836366   4.443570   2.580328
    21  H    1.092289   2.154415   3.344737   5.308130   4.669928
    22  H    2.128329   1.080821   2.167580   4.802238   5.586637
    23  H    3.320732   2.157649   1.083299   2.858398   4.843135
    24  H    4.617429   4.085704   2.782411   1.107946   3.685906
    25  H    4.617429   4.085704   2.782411   1.107946   3.685906
                   11         12         13         14         15
    11  C    0.000000
    12  C    1.468296   0.000000
    13  C    2.526961   3.012059   0.000000
    14  C    2.731108   2.486551   1.350520   0.000000
    15  H    2.032717   3.374088   3.901795   4.568546   0.000000
    16  H    3.243446   3.791125   5.725822   5.923323   2.427280
    17  H    3.858793   3.389247   6.237859   5.875782   4.298482
    18  H    3.500210   2.210708   5.144128   4.318345   4.984326
    19  H    3.392963   2.140161   3.464759   2.206840   5.415741
    20  H    4.641704   3.889683   3.285357   2.089118   6.591466
    21  H    6.135318   5.868035   3.893973   3.451942   7.778845
    22  H    6.120203   6.450903   3.596677   4.059814   7.217703
    23  H    4.389130   5.220822   2.281269   3.471230   4.977892
    24  H    2.244110   3.432058   1.996718   3.068905   2.574887
    25  H    2.244110   3.432058   1.996718   3.068905   2.574887
                   16         17         18         19         20
    16  H    0.000000
    17  H    2.476788   0.000000
    18  H    4.253717   2.447966   0.000000
    19  H    5.872650   4.903146   2.714782   0.000000
    20  H    7.646935   7.046656   4.939315   2.224909   0.000000
    21  H    9.362665   9.219844   7.314972   4.642498   2.499322
    22  H    9.274282   9.789290   8.377364   6.022085   4.367990
    23  H    7.243397   8.246040   7.398075   5.673679   4.915897
    24  H    4.738101   5.916516   5.568874   4.735480   5.085643
    25  H    4.738101   5.916516   5.568874   4.735480   5.085643
                   21         22         23         24         25
    21  H    0.000000
    22  H    2.518273   0.000000
    23  H    4.280943   2.531691   0.000000
    24  H    5.693952   4.877151   2.724930   0.000000
    25  H    5.693952   4.877151   2.724930   1.719170   0.000000
 Stoichiometry    C14H11(1+)
 Framework group  CS[SG(C14H9),X(H2)]
 Deg. of freedom    46
 Full point group                 CS      NOp   2
 Largest Abelian subgroup         CS      NOp   2
 Largest concise Abelian subgroup CS      NOp   2
                         Standard orientation:                         
 ---------------------------------------------------------------------
 Center     Atomic      Atomic             Coordinates (Angstroms)
 Number     Number       Type             X           Y           Z
 ---------------------------------------------------------------------
      1          6           0       -0.062781   -2.655867    0.000000
      2          6           0        1.084407   -3.458230    0.000000
      3          6           0        2.400703   -2.893336    0.000000
      4          6           0        2.574394   -1.645528    0.000000
      5          6           0        0.095941    2.616799    0.000000
      6          6           0       -1.142309    3.567685    0.000000
      7          6           0       -2.400769    3.073193    0.000000
      8          6           0       -2.505069    1.692232    0.000000
      9          6           0       -1.296160   -0.657851    0.000000
     10          6           0        1.329129    0.543500    0.000000
     11          6           0        0.051890   -1.421215    0.000000
     12          6           0        1.366790   -0.767816    0.000000
     13          6           0       -1.231692    0.755468    0.000000
     14          6           0        0.000000    1.309399    0.000000
     15          1           0       -1.031456   -3.141186    0.000000
     16          1           0        0.954708   -4.536478    0.000000
     17          1           0        3.243528   -3.590022    0.000000
     18          1           0        3.542367   -1.160366    0.000000
     19          1           0        2.204211    1.201706    0.000000
     20          1           0        1.059814    3.109735    0.000000
     21          1           0       -0.918709    4.636842    0.000000
     22          1           0       -3.265020    3.722227    0.000000
     23          1           0       -3.469468    1.198804    0.000000
     24          1           0       -1.953409   -0.895932    0.859585
     25          1           0       -1.953409   -0.895932   -0.859585
 ---------------------------------------------------------------------
 Rotational constants (GHZ):           2.1463790           0.4427655           0.3678447
 Standard basis: 6-311++G(d,p) (5D, 7F)
 There are   299 symmetry adapted cartesian basis functions of A'  symmetry.
 There are   100 symmetry adapted cartesian basis functions of A"  symmetry.
 There are   285 symmetry adapted basis functions of A'  symmetry.
 There are   100 symmetry adapted basis functions of A"  symmetry.
   385 basis functions,   603 primitive gaussians,   399 cartesian basis functions
    47 alpha electrons       47 beta electrons
       nuclear repulsion energy       781.8803674024 Hartrees.
 NAtoms=   25 NActive=   25 NUniq=   24 SFac= 1.09D+00 NAtFMM=   60 NAOKFM=F Big=F
 Integral buffers will be    131072 words long.
 Regular integral format.
 Two-electron integral symmetry is turned on.
 Nuclear repulsion after empirical dispersion term =      781.8793934171 Hartrees.
 One-electron integrals computed using PRISM.
 NBasis=   385 RedAO= T EigKep=  1.23D-06  NBF=   285   100
 NBsUse=   379 1.00D-06 EigRej=  8.21D-07 NBFU=   279   100
 ExpMin= 3.60D-02 ExpMax= 4.56D+03 ExpMxC= 6.82D+02 IAcc=3 IRadAn=         5 AccDes= 0.00D+00
 Harris functional with IExCor= 1009 and IRadAn=       5 diagonalized for initial guess.
 HarFok:  IExCor= 1009 AccDes= 0.00D+00 IRadAn=         5 IDoV= 1 UseB2=F ITyADJ=14
 ICtDFT=  3500011 ScaDFX=  1.000000  1.000000  1.000000  1.000000
 FoFCou: FMM=F IPFlag=           0 FMFlag=      100000 FMFlg1=           0
         NFxFlg=           0 DoJE=T BraDBF=F KetDBF=T FulRan=T
         wScrn=  0.000000 ICntrl=       500 IOpCl=  0 I1Cent=   200000004 NGrid=           0
         NMat0=    1 NMatS0=      1 NMatT0=    0 NMatD0=    1 NMtDS0=    0 NMtDT0=    0
 Petite list used in FoFCou.
 Initial guess orbital symmetries:
       Occupied  (A') (A') (A') (A') (A') (A') (A') (A') (A') (A')
                 (A') (A') (A') (A') (A') (A') (A') (A') (A') (A')
                 (A') (A') (A') (A') (A') (A') (A') (A') (A') (A')
                 (A') (A') (A") (A') (A') (A') (A') (A') (A") (A')
                 (A") (A') (A') (A") (A") (A") (A")
       Virtual   (A") (A") (A") (A") (A") (A') (A') (A') (A') (A")
                 (A') (A") (A') (A') (A') (A") (A') (A') (A') (A')
                 (A') (A") (A') (A") (A') (A') (A") (A') (A") (A')
                 (A') (A') (A') (A') (A") (A') (A') (A") (A') (A")
                 (A') (A') (A') (A") (A') (A') (A') (A') (A') (A")
                 (A') (A") (A') (A") (A') (A') (A') (A") (A') (A")
                 (A') (A') (A') (A') (A') (A") (A') (A') (A') (A")
                 (A') (A') (A') (A') (A') (A') (A') (A') (A') (A')
                 (A') (A') (A') (A') (A') (A') (A') (A') (A') (A')
                 (A') (A') (A') (A') (A') (A') (A") (A') (A") (A')
                 (A') (A") (A") (A') (A') (A") (A") (A') (A") (A')
                 (A") (A') (A') (A") (A') (A") (A') (A') (A") (A")
                 (A") (A') (A') (A') (A") (A') (A') (A") (A') (A')
                 (A') (A') (A') (A') (A') (A') (A") (A') (A') (A')
                 (A') (A') (A') (A') (A') (A') (A') (A") (A') (A')
                 (A") (A') (A') (A") (A') (A") (A") (A') (A') (A")
                 (A') (A") (A") (A') (A") (A") (A') (A') (A') (A')
                 (A") (A') (A') (A') (A') (A') (A") (A') (A') (A')
                 (A") (A') (A") (A") (A') (A') (A') (A") (A") (A')
                 (A") (A') (A') (A') (A") (A') (A') (A") (A') (A")
                 (A') (A") (A") (A') (A") (A') (A") (A') (A') (A')
                 (A") (A') (A') (A') (A") (A") (A') (A") (A') (A")
                 (A') (A') (A') (A') (A") (A') (A") (A') (A') (A')
                 (A") (A') (A') (A") (A') (A') (A") (A') (A") (A')
                 (A") (A') (A') (A') (A") (A') (A') (A') (A') (A")
                 (A') (A') (A') (A") (A") (A') (A") (A') (A') (A')
                 (A') (A") (A") (A') (A') (A') (A') (A") (A') (A')
                 (A") (A') (A') (A') (A") (A') (A") (A') (A") (A")
                 (A') (A') (A") (A') (A") (A") (A') (A') (A') (A')
                 (A') (A') (A') (A') (A') (A') (A') (A') (A') (A')
                 (A') (A') (A') (A") (A') (A') (A') (A') (A') (A')
                 (A') (A') (A') (A') (A') (A') (A') (A') (A') (A')
                 (A') (A') (A') (A') (A') (A') (A') (A') (A') (A')
                 (A') (A')
 The electronic state of the initial guess is 1-A'.
 Requested convergence on RMS density matrix=1.00D-08 within 128 cycles.
 Requested convergence on MAX density matrix=1.00D-06.
 Requested convergence on             energy=1.00D-06.
 No special actions if energy rises.
 SCF Done:  E(RM062X) =  -539.632035382     A.U. after   16 cycles
            NFock= 16  Conv=0.32D-08     -V/T= 2.0030
 DoSCS=F DFT=T ScalE2(SS,OS)=  1.000000  1.000000
 ExpMin= 3.60D-02 ExpMax= 4.56D+03 ExpMxC= 6.82D+02 IAcc=3 IRadAn=         5 AccDes= 0.00D+00
 HarFok:  IExCor=  205 AccDes= 0.00D+00 IRadAn=         5 IDoV=-2 UseB2=F ITyADJ=14
 ICtDFT= 12500011 ScaDFX=  1.000000  1.000000  1.000000  1.000000
 Range of M.O.s used for correlation:    15   379
 NBasis=   385 NAE=    47 NBE=    47 NFC=    14 NFV=     0
 NROrb=    365 NOA=    33 NOB=    33 NVA=   332 NVB=   332

 **** Warning!!: The largest alpha MO coefficient is  0.16626444D+03

 Orbital symmetries:
       Occupied  (A') (A') (A') (A') (A') (A') (A') (A') (A') (A')
                 (A') (A') (A') (A') (A') (A') (A') (A') (A') (A')
                 (A') (A') (A') (A') (A') (A') (A') (A') (A') (A')
                 (A') (A") (A') (A') (A') (A") (A') (A') (A') (A")
                 (A') (A') (A") (A') (A") (A") (A")
       Virtual   (A") (A") (A") (A") (A') (A') (A') (A') (A") (A')
                 (A') (A") (A') (A") (A') (A') (A") (A') (A') (A')
                 (A") (A") (A') (A') (A') (A") (A') (A') (A") (A')
                 (A") (A') (A') (A') (A") (A') (A') (A') (A") (A')
                 (A") (A') (A') (A') (A") (A") (A") (A') (A') (A')
                 (A') (A") (A') (A') (A') (A") (A') (A') (A') (A')
                 (A") (A') (A') (A') (A') (A') (A') (A") (A') (A')
                 (A') (A') (A') (A') (A') (A') (A') (A') (A') (A')
                 (A') (A') (A') (A') (A') (A') (A') (A') (A') (A')
                 (A') (A') (A') (A") (A') (A") (A') (A") (A') (A')
                 (A") (A') (A') (A') (A") (A') (A") (A") (A') (A')
                 (A") (A') (A") (A') (A") (A') (A") (A') (A") (A')
                 (A") (A') (A") (A') (A") (A') (A') (A') (A') (A')
                 (A') (A') (A') (A') (A') (A') (A') (A') (A') (A')
                 (A') (A') (A') (A') (A") (A') (A') (A') (A') (A')
                 (A") (A') (A') (A") (A') (A') (A") (A") (A') (A")
                 (A') (A") (A") (A') (A') (A") (A") (A') (A") (A')
                 (A') (A") (A') (A') (A') (A') (A") (A') (A") (A')
                 (A') (A') (A") (A') (A") (A') (A") (A') (A") (A")
                 (A') (A') (A') (A") (A') (A") (A') (A') (A') (A")
                 (A') (A") (A") (A') (A") (A') (A') (A") (A') (A')
                 (A') (A") (A') (A") (A') (A") (A') (A') (A") (A')
                 (A") (A') (A') (A') (A") (A') (A') (A') (A") (A")
                 (A') (A') (A') (A") (A') (A') (A') (A") (A") (A')
                 (A") (A') (A') (A") (A') (A') (A') (A') (A') (A')
                 (A") (A') (A') (A') (A') (A") (A") (A') (A') (A')
                 (A") (A') (A') (A') (A') (A") (A') (A') (A') (A')
                 (A') (A") (A') (A") (A') (A") (A") (A") (A') (A")
                 (A') (A") (A") (A') (A') (A") (A") (A') (A') (A')
                 (A') (A') (A') (A') (A') (A') (A') (A') (A') (A')
                 (A') (A') (A') (A") (A') (A') (A') (A') (A') (A')
                 (A') (A') (A') (A') (A') (A') (A') (A') (A') (A')
                 (A') (A') (A') (A') (A') (A') (A') (A') (A') (A')
                 (A') (A')
     4 initial guesses have been made.
 Convergence on wavefunction:    0.001000000000000
 Iteration     1 Dimension     4 NMult     0 NNew      4
 CISAX will form     4 AO SS matrices at one time.
 Iteration     2 Dimension     6 NMult     4 NNew      2
 Iteration     3 Dimension     8 NMult     6 NNew      2
 Iteration     4 Dimension    10 NMult     8 NNew      2
 Iteration     5 Dimension    12 NMult    10 NNew      2
 Iteration     6 Dimension    14 NMult    12 NNew      2
 ***********************************************************************
 Excited states from <AA,BB:AA,BB> singles matrix:
 ***********************************************************************
 
 Ground to excited state transition densities written to RWF  633
 Ground to excited state transition electric dipole moments (Au):
       state          X           Y           Z        Dip. S.      Osc.
         1        -0.4949      0.1971     -0.0000      0.2837      0.0124
 Ground to excited state transition velocity dipole moments (Au):
       state          X           Y           Z        Dip. S.      Osc.
         1         0.0344     -0.0066     -0.0000      0.0012      0.0124
 Ground to excited state transition magnetic dipole moments (Au):
       state          X           Y           Z
         1         0.0000     -0.0000      0.0816
 Ground to excited state transition velocity quadrupole moments (Au):
       state          XX          YY          ZZ          XY          XZ          YZ
         1        -0.0191      0.1195     -0.0045     -0.0229      0.0000      0.0000
 <0|del|b> * <b|rxdel|0> + <0|del|b> * <b|delr+rdel|0>
 Rotatory Strengths (R) in cgs (10**-40 erg-esu-cm/Gauss)
       state          XX          YY          ZZ    R(velocity)    E-M Angle
         1        -0.0000     -0.0000      0.0000     -0.0000       90.00
 1/2[<0|r|b>*<b|rxdel|0> + (<0|rxdel|b>*<b|r|0>)*]
 Rotatory Strengths (R) in cgs (10**-40 erg-esu-cm/Gauss)
       state          XX          YY          ZZ     R(length)
         1         0.0000      0.0000      0.0000      0.0000
  1/2[<0|del|b>*<b|r|0> + (<0|r|b>*<b|del|0>)*] (Au)
       state          X           Y           Z        Dip. S.   Osc.(frdel)
         1        -0.0170     -0.0013      0.0000      0.0183      0.0122

 Excitation energies and oscillator strengths:
 
 Excited State   1:      Singlet-A'     1.7865 eV  694.00 nm  f=0.0124  <S**2>=0.000
      47 -> 48         0.70360
 This state for optimization and/or second-order correction.
 Total Energy, E(TD-HF/TD-DFT) =  -539.566382217    
 Copying the excited state density for this state as the 1-particle RhoCI density.
 SavETr:  write IOETrn=   770 NScale= 10 NData=  16 NLR=1 NState=    1 LETran=      28.

 **********************************************************************

            Population analysis using the SCF Density.

 **********************************************************************

 Orbital symmetries:
       Occupied  (A') (A') (A') (A') (A') (A') (A') (A') (A') (A')
                 (A') (A') (A') (A') (A') (A') (A') (A') (A') (A')
                 (A') (A') (A') (A') (A') (A') (A') (A') (A') (A')
                 (A') (A") (A') (A') (A') (A") (A') (A') (A') (A")
                 (A') (A') (A") (A') (A") (A") (A")
       Virtual   (A") (A") (A") (A") (A') (A') (A') (A') (A") (A')
                 (A') (A") (A') (A") (A') (A') (A") (A') (A') (A')
                 (A") (A") (A') (A') (A') (A") (A') (A') (A") (A')
                 (A") (A') (A') (A') (A") (A') (A') (A') (A") (A')
                 (A") (A') (A') (A') (A") (A") (A") (A') (A') (A')
                 (A') (A") (A') (A') (A') (A") (A') (A') (A') (A')
                 (A") (A') (A') (A') (A') (A') (A') (A") (A') (A')
                 (A') (A') (A') (A') (A') (A') (A') (A') (A') (A')
                 (A') (A') (A') (A') (A') (A') (A') (A') (A') (A')
                 (A') (A') (A') (A") (A') (A") (A') (A") (A') (A')
                 (A") (A') (A') (A') (A") (A') (A") (A") (A') (A')
                 (A") (A') (A") (A') (A") (A') (A") (A') (A") (A')
                 (A") (A') (A") (A') (A") (A') (A') (A') (A') (A')
                 (A') (A') (A') (A') (A') (A') (A') (A') (A') (A')
                 (A') (A') (A') (A') (A") (A') (A') (A') (A') (A')
                 (A") (A') (A') (A") (A') (A') (A") (A") (A') (A")
                 (A') (A") (A") (A') (A') (A") (A") (A') (A") (A')
                 (A') (A") (A') (A') (A') (A') (A") (A') (A") (A')
                 (A') (A') (A") (A') (A") (A') (A") (A') (A") (A")
                 (A') (A') (A') (A") (A') (A") (A') (A') (A') (A")
                 (A') (A") (A") (A') (A") (A') (A') (A") (A') (A')
                 (A') (A") (A') (A") (A') (A") (A') (A') (A") (A')
                 (A") (A') (A') (A') (A") (A') (A') (A') (A") (A")
                 (A') (A') (A') (A") (A') (A') (A') (A") (A") (A')
                 (A") (A') (A') (A") (A') (A') (A') (A') (A') (A')
                 (A") (A') (A') (A') (A') (A") (A") (A') (A') (A')
                 (A") (A') (A') (A') (A') (A") (A') (A') (A') (A')
                 (A') (A") (A') (A") (A') (A") (A") (A") (A') (A")
                 (A') (A") (A") (A') (A') (A") (A") (A') (A') (A')
                 (A') (A') (A') (A') (A') (A') (A') (A') (A') (A')
                 (A') (A') (A') (A") (A') (A') (A') (A') (A') (A')
                 (A') (A') (A') (A') (A') (A') (A') (A') (A') (A')
                 (A') (A') (A') (A') (A') (A') (A') (A') (A') (A')
                 (A') (A')
 The electronic state is 1-A'.
 Alpha  occ. eigenvalues --  -10.76362 -10.75598 -10.74422 -10.73650 -10.73239
 Alpha  occ. eigenvalues --  -10.71134 -10.70972 -10.70792 -10.70206 -10.69839
 Alpha  occ. eigenvalues --  -10.69645 -10.68805 -10.68466 -10.67779  -1.18077
 Alpha  occ. eigenvalues --   -1.12567  -1.08054  -1.06646  -1.02176  -1.00923
 Alpha  occ. eigenvalues --   -0.94822  -0.90163  -0.86735  -0.85338  -0.83112
 Alpha  occ. eigenvalues --   -0.77667  -0.76956  -0.74144  -0.71432  -0.68848
 Alpha  occ. eigenvalues --   -0.68526  -0.68358  -0.67308  -0.66033  -0.63602
 Alpha  occ. eigenvalues --   -0.62228  -0.61657  -0.61076  -0.58409  -0.57962
 Alpha  occ. eigenvalues --   -0.56207  -0.55243  -0.52431  -0.51826  -0.51365
 Alpha  occ. eigenvalues --   -0.46375  -0.40050
 Alpha virt. eigenvalues --   -0.26512  -0.14874  -0.13472  -0.12110  -0.11402
 Alpha virt. eigenvalues --   -0.10179  -0.09575  -0.07837  -0.07640  -0.07615
 Alpha virt. eigenvalues --   -0.07286  -0.06842  -0.05765  -0.05564  -0.05511
 Alpha virt. eigenvalues --   -0.04090  -0.03839  -0.03262  -0.03158  -0.02086
 Alpha virt. eigenvalues --   -0.01280  -0.01048   0.00096   0.00207   0.00682
 Alpha virt. eigenvalues --    0.01174   0.01206   0.01463   0.01840   0.02079
 Alpha virt. eigenvalues --    0.02566   0.02730   0.02865   0.03255   0.03333
 Alpha virt. eigenvalues --    0.03904   0.04300   0.04907   0.05260   0.05604
 Alpha virt. eigenvalues --    0.05898   0.06123   0.06335   0.07282   0.07283
 Alpha virt. eigenvalues --    0.07317   0.07726   0.07740   0.08354   0.08485
 Alpha virt. eigenvalues --    0.09084   0.09485   0.09633   0.09961   0.10903
 Alpha virt. eigenvalues --    0.11264   0.11394   0.11745   0.12438   0.12772
 Alpha virt. eigenvalues --    0.13070   0.13339   0.13631   0.13954   0.14543
 Alpha virt. eigenvalues --    0.15752   0.16598   0.16793   0.17220   0.17474
 Alpha virt. eigenvalues --    0.18341   0.18925   0.19306   0.19764   0.20696
 Alpha virt. eigenvalues --    0.21397   0.22260   0.22406   0.23356   0.24184
 Alpha virt. eigenvalues --    0.24479   0.25234   0.26117   0.27338   0.27373
 Alpha virt. eigenvalues --    0.28802   0.29882   0.30961   0.31573   0.35186
 Alpha virt. eigenvalues --    0.38233   0.38516   0.38970   0.39713   0.40479
 Alpha virt. eigenvalues --    0.40817   0.41340   0.43067   0.43890   0.44666
 Alpha virt. eigenvalues --    0.44986   0.45062   0.45773   0.46862   0.46963
 Alpha virt. eigenvalues --    0.47582   0.47790   0.48842   0.50298   0.50771
 Alpha virt. eigenvalues --    0.51391   0.51787   0.52634   0.53150   0.54285
 Alpha virt. eigenvalues --    0.54853   0.55645   0.56202   0.57983   0.58223
 Alpha virt. eigenvalues --    0.58464   0.61489   0.62016   0.62297   0.62755
 Alpha virt. eigenvalues --    0.63153   0.64040   0.64853   0.65960   0.68432
 Alpha virt. eigenvalues --    0.70345   0.70979   0.72040   0.73057   0.73909
 Alpha virt. eigenvalues --    0.74359   0.75116   0.76282   0.77233   0.77869
 Alpha virt. eigenvalues --    0.78370   0.78843   0.78972   0.79932   0.80381
 Alpha virt. eigenvalues --    0.81809   0.82687   0.83849   0.84483   0.84690
 Alpha virt. eigenvalues --    0.85441   0.87239   0.88704   0.91053   0.91330
 Alpha virt. eigenvalues --    0.92755   0.94051   0.94891   0.95241   0.96315
 Alpha virt. eigenvalues --    0.96476   0.98762   1.00971   1.01158   1.01979
 Alpha virt. eigenvalues --    1.03983   1.04747   1.05811   1.06195   1.09329
 Alpha virt. eigenvalues --    1.18061   1.18986   1.20485   1.22432   1.28932
 Alpha virt. eigenvalues --    1.32257   1.33524   1.34044   1.35069   1.37201
 Alpha virt. eigenvalues --    1.37685   1.38573   1.41962   1.42174   1.42263
 Alpha virt. eigenvalues --    1.43312   1.45612   1.46297   1.47239   1.48340
 Alpha virt. eigenvalues --    1.49494   1.51887   1.52976   1.54951   1.55516
 Alpha virt. eigenvalues --    1.56258   1.56672   1.57442   1.58432   1.60568
 Alpha virt. eigenvalues --    1.62911   1.63503   1.65355   1.66222   1.67642
 Alpha virt. eigenvalues --    1.68817   1.69986   1.70251   1.73901   1.75224
 Alpha virt. eigenvalues --    1.76568   1.76982   1.77729   1.80990   1.81404
 Alpha virt. eigenvalues --    1.81775   1.83225   1.83779   1.84071   1.84944
 Alpha virt. eigenvalues --    1.85068   1.85735   1.88974   1.89362   1.92602
 Alpha virt. eigenvalues --    1.93877   1.96421   1.97943   1.98460   1.99925
 Alpha virt. eigenvalues --    2.00927   2.02797   2.06974   2.07922   2.11252
 Alpha virt. eigenvalues --    2.13252   2.15360   2.15434   2.19293   2.22082
 Alpha virt. eigenvalues --    2.22795   2.28487   2.30606   2.32370   2.32744
 Alpha virt. eigenvalues --    2.35900   2.38348   2.39705   2.41732   2.43145
 Alpha virt. eigenvalues --    2.45714   2.45984   2.49376   2.52330   2.54595
 Alpha virt. eigenvalues --    2.55046   2.56998   2.57521   2.58582   2.59068
 Alpha virt. eigenvalues --    2.59383   2.61010   2.61997   2.62531   2.64055
 Alpha virt. eigenvalues --    2.64954   2.65192   2.65573   2.66600   2.67196
 Alpha virt. eigenvalues --    2.69598   2.70038   2.70890   2.73727   2.74802
 Alpha virt. eigenvalues --    2.75197   2.76146   2.79074   2.83819   2.84755
 Alpha virt. eigenvalues --    2.85344   2.86619   2.92403   2.95534   2.98958
 Alpha virt. eigenvalues --    2.98987   3.00798   3.03386   3.06668   3.11141
 Alpha virt. eigenvalues --    3.14194   3.16764   3.23602   3.30068   3.31753
 Alpha virt. eigenvalues --    3.35036   3.36986   3.42888   3.47138   3.51968
 Alpha virt. eigenvalues --    3.54196   3.54988   3.59088   3.66420   3.70311
 Alpha virt. eigenvalues --    3.72462   3.89335   3.89895   3.91599   3.96328
 Alpha virt. eigenvalues --    4.01557   4.02946   4.07664   4.10786   4.31017
 Alpha virt. eigenvalues --    4.52081   4.60115   4.63024  23.43372  23.54420
 Alpha virt. eigenvalues --   23.64761  23.65134  23.68924  23.89154  23.90759
 Alpha virt. eigenvalues --   23.94087  24.04570  24.17440  24.20962  24.29872
 Alpha virt. eigenvalues --   24.45746  24.55794
          Condensed to atoms (all electrons):
               1          2          3          4          5          6
     1  C    8.397771   0.374362  -1.091674   1.853464   0.288968  -0.064581
     2  C    0.374362   8.963171   0.355813  -1.361023  -0.030511  -0.013695
     3  C   -1.091674   0.355813   6.999294  -0.256187  -0.116440   0.025656
     4  C    1.853464  -1.361023  -0.256187  14.876591  -0.112014  -0.257774
     5  C    0.288968  -0.030511  -0.116440  -0.112014   8.959712   1.010830
     6  C   -0.064581  -0.013695   0.025656  -0.257774   1.010830   7.895785
     7  C   -0.096831  -0.022148  -0.003595   0.123050  -1.260460  -0.883671
     8  C    0.549569   0.068463  -0.097123  -0.174782   2.024122   0.434787
     9  C   -1.385990  -2.037211   0.253434   1.002791  -1.297255   0.432839
    10  C   -1.105968   0.023500   0.380986  -2.746709  -1.924598  -1.262277
    11  C    0.170360  -1.214787   0.989800  -1.440802  -1.077620   0.184804
    12  C   -1.412967   1.630357  -1.146797  -3.047398   0.096868  -0.700798
    13  C    0.118915  -0.303877  -0.184179  -1.120160  -0.939874   1.595235
    14  C   -1.237622  -0.342088   0.043800  -1.678574  -0.113630  -2.223564
    15  H    0.381988  -0.150602   0.005809   0.023955   0.005753   0.003958
    16  H   -0.023869   0.401215  -0.046315   0.031617  -0.000391  -0.000552
    17  H   -0.021933  -0.031907   0.421022  -0.087315  -0.001154   0.000562
    18  H    0.052326  -0.000743  -0.094315   0.582030   0.014281  -0.005604
    19  H   -0.029935  -0.013193   0.054451  -0.205737  -0.005916   0.078336
    20  H    0.010332   0.004819  -0.009440   0.023517   0.440392  -0.133963
    21  H   -0.000591  -0.000299   0.000234  -0.001523  -0.026108   0.337001
    22  H   -0.000277   0.000155  -0.000116  -0.000524  -0.013139  -0.005517
    23  H    0.013671   0.000474  -0.000273  -0.000252   0.027841   0.013113
    24  H    0.051839   0.022476   0.001109  -0.010481  -0.009357  -0.005787
    25  H    0.051839   0.022476   0.001109  -0.010481  -0.009357  -0.005787
               7          8          9         10         11         12
     1  C   -0.096831   0.549569  -1.385990  -1.105968   0.170360  -1.412967
     2  C   -0.022148   0.068463  -2.037211   0.023500  -1.214787   1.630357
     3  C   -0.003595  -0.097123   0.253434   0.380986   0.989800  -1.146797
     4  C    0.123050  -0.174782   1.002791  -2.746709  -1.440802  -3.047398
     5  C   -1.260460   2.024122  -1.297255  -1.924598  -1.077620   0.096868
     6  C   -0.883671   0.434787   0.432839  -1.262277   0.184804  -0.700798
     7  C    7.549405  -0.863517  -0.412220   0.734106  -0.603938   0.377103
     8  C   -0.863517   9.263522  -1.311201  -1.110982   0.434430  -0.942454
     9  C   -0.412220  -1.311201  10.756816   0.404978   1.354975  -2.520832
    10  C    0.734106  -1.110982   0.404978   9.165932  -0.119284   2.153591
    11  C   -0.603938   0.434430   1.354975  -0.119284  16.458597  -4.427030
    12  C    0.377103  -0.942454  -2.520832   2.153591  -4.427030  16.774222
    13  C   -0.926675   0.089807   1.454397  -0.656525   0.622031  -3.522305
    14  C    2.396459  -2.647397  -1.089543   1.678961  -4.919708   2.435501
    15  H   -0.004445  -0.006693   0.107569   0.004179  -0.027139  -0.010037
    16  H    0.000190   0.002636  -0.011998  -0.015543   0.009571  -0.008563
    17  H   -0.000146  -0.001616   0.001937   0.013076   0.021983   0.032953
    18  H    0.001374   0.004942  -0.011186  -0.034597  -0.001347  -0.094815
    19  H   -0.009557  -0.036203   0.052447   0.375785   0.105066  -0.113929
    20  H    0.024423   0.045845  -0.042268   0.071573  -0.017010   0.044009
    21  H    0.011807  -0.033826  -0.005520   0.010787  -0.003152  -0.000273
    22  H    0.375161  -0.034876   0.006262  -0.001107  -0.001732  -0.003379
    23  H   -0.081816   0.362090   0.055435  -0.016577   0.015220  -0.004012
    24  H    0.009514   0.017718   0.349656   0.008099   0.031155  -0.052676
    25  H    0.009514   0.017718   0.349656   0.008099   0.031155  -0.052676
              13         14         15         16         17         18
     1  C    0.118915  -1.237622   0.381988  -0.023869  -0.021933   0.052326
     2  C   -0.303877  -0.342088  -0.150602   0.401215  -0.031907  -0.000743
     3  C   -0.184179   0.043800   0.005809  -0.046315   0.421022  -0.094315
     4  C   -1.120160  -1.678574   0.023955   0.031617  -0.087315   0.582030
     5  C   -0.939874  -0.113630   0.005753  -0.000391  -0.001154   0.014281
     6  C    1.595235  -2.223564   0.003958  -0.000552   0.000562  -0.005604
     7  C   -0.926675   2.396459  -0.004445   0.000190  -0.000146   0.001374
     8  C    0.089807  -2.647397  -0.006693   0.002636  -0.001616   0.004942
     9  C    1.454397  -1.089543   0.107569  -0.011998   0.001937  -0.011186
    10  C   -0.656525   1.678961   0.004179  -0.015543   0.013076  -0.034597
    11  C    0.622031  -4.919708  -0.027139   0.009571   0.021983  -0.001347
    12  C   -3.522305   2.435501  -0.010037  -0.008563   0.032953  -0.094815
    13  C   11.790722  -1.557601  -0.013613   0.005733  -0.005918  -0.010938
    14  C   -1.557601  14.565765   0.010167  -0.012416   0.001039  -0.062742
    15  H   -0.013613   0.010167   0.432358  -0.009977   0.002118   0.000006
    16  H    0.005733  -0.012416  -0.009977   0.403532  -0.007883   0.002534
    17  H   -0.005918   0.001039   0.002118  -0.007883   0.410235  -0.010289
    18  H   -0.010938  -0.062742   0.000006   0.002534  -0.010289   0.433606
    19  H    0.114414   0.005443   0.001318  -0.000865   0.003040  -0.008972
    20  H   -0.057136  -0.082356  -0.000409   0.000100  -0.000352   0.001894
    21  H   -0.021848   0.078112   0.000057  -0.000008   0.000008  -0.000067
    22  H    0.031825  -0.012965  -0.000202   0.000006  -0.000004  -0.000003
    23  H   -0.041099  -0.024511   0.000515  -0.000062  -0.000014  -0.000023
    24  H   -0.023430  -0.053655  -0.002370   0.000594  -0.000057   0.000047
    25  H   -0.023430  -0.053655  -0.002370   0.000594  -0.000057   0.000047
              19         20         21         22         23         24
     1  C   -0.029935   0.010332  -0.000591  -0.000277   0.013671   0.051839
     2  C   -0.013193   0.004819  -0.000299   0.000155   0.000474   0.022476
     3  C    0.054451  -0.009440   0.000234  -0.000116  -0.000273   0.001109
     4  C   -0.205737   0.023517  -0.001523  -0.000524  -0.000252  -0.010481
     5  C   -0.005916   0.440392  -0.026108  -0.013139   0.027841  -0.009357
     6  C    0.078336  -0.133963   0.337001  -0.005517   0.013113  -0.005787
     7  C   -0.009557   0.024423   0.011807   0.375161  -0.081816   0.009514
     8  C   -0.036203   0.045845  -0.033826  -0.034876   0.362090   0.017718
     9  C    0.052447  -0.042268  -0.005520   0.006262   0.055435   0.349656
    10  C    0.375785   0.071573   0.010787  -0.001107  -0.016577   0.008099
    11  C    0.105066  -0.017010  -0.003152  -0.001732   0.015220   0.031155
    12  C   -0.113929   0.044009  -0.000273  -0.003379  -0.004012  -0.052676
    13  C    0.114414  -0.057136  -0.021848   0.031825  -0.041099  -0.023430
    14  C    0.005443  -0.082356   0.078112  -0.012965  -0.024511  -0.053655
    15  H    0.001318  -0.000409   0.000057  -0.000202   0.000515  -0.002370
    16  H   -0.000865   0.000100  -0.000008   0.000006  -0.000062   0.000594
    17  H    0.003040  -0.000352   0.000008  -0.000004  -0.000014  -0.000057
    18  H   -0.008972   0.001894  -0.000067  -0.000003  -0.000023   0.000047
    19  H    0.455430  -0.009256   0.000444  -0.000260  -0.000120   0.000559
    20  H   -0.009256   0.495303  -0.009476   0.001809  -0.000620   0.000521
    21  H    0.000444  -0.009476   0.423857  -0.004198   0.001027  -0.000240
    22  H   -0.000260   0.001809  -0.004198   0.431670  -0.007860   0.000785
    23  H   -0.000120  -0.000620   0.001027  -0.007860   0.451833  -0.000241
    24  H    0.000559   0.000521  -0.000240   0.000785  -0.000241   0.489860
    25  H    0.000559   0.000521  -0.000240   0.000785  -0.000241  -0.075089
              25
     1  C    0.051839
     2  C    0.022476
     3  C    0.001109
     4  C   -0.010481
     5  C   -0.009357
     6  C   -0.005787
     7  C    0.009514
     8  C    0.017718
     9  C    0.349656
    10  C    0.008099
    11  C    0.031155
    12  C   -0.052676
    13  C   -0.023430
    14  C   -0.053655
    15  H   -0.002370
    16  H    0.000594
    17  H   -0.000057
    18  H    0.000047
    19  H    0.000559
    20  H    0.000521
    21  H   -0.000240
    22  H    0.000785
    23  H   -0.000241
    24  H   -0.075089
    25  H    0.489860
 Mulliken charges:
               1
     1  C    0.156831
     2  C   -0.345198
     3  C   -0.486068
     4  C   -0.005280
     5  C    0.069058
     6  C   -0.449339
     7  C   -0.443088
     8  C   -0.054981
     9  C   -0.457967
    10  C   -0.039489
    11  C   -0.575597
    12  C    0.516337
    13  C   -0.414473
    14  C    0.896781
    15  H    0.248107
    16  H    0.280119
    17  H    0.260673
    18  H    0.242555
    19  H    0.186648
    20  H    0.197229
    21  H    0.244034
    22  H    0.237701
    23  H    0.236502
    24  H    0.249452
    25  H    0.249452
 Sum of Mulliken charges =   1.00000
 Mulliken charges with hydrogens summed into heavy atoms:
               1
     1  C    0.404938
     2  C   -0.065079
     3  C   -0.225396
     4  C    0.237274
     5  C    0.266287
     6  C   -0.205305
     7  C   -0.205387
     8  C    0.181522
     9  C    0.040937
    10  C    0.147160
    11  C   -0.575597
    12  C    0.516337
    13  C   -0.414473
    14  C    0.896781
 Electronic spatial extent (au):  <R**2>=           2861.5674
 Charge=              1.0000 electrons
 Dipole moment (field-independent basis, Debye):
    X=              1.9479    Y=             -3.6687    Z=             -0.0000  Tot=              4.1538
 Quadrupole moment (field-independent basis, Debye-Ang):
   XX=            -49.1223   YY=            -36.4689   ZZ=            -83.9846
   XY=            -12.1661   XZ=             -0.0000   YZ=              0.0000
 Traceless Quadrupole moment (field-independent basis, Debye-Ang):
   XX=              7.4030   YY=             20.0563   ZZ=            -27.4593
   XY=            -12.1661   XZ=             -0.0000   YZ=              0.0000
 Octapole moment (field-independent basis, Debye-Ang**2):
  XXX=             15.5121  YYY=            -42.4236  ZZZ=              0.0000  XYY=              9.8937
  XXY=             -5.8013  XXZ=              0.0000  XZZ=              0.3203  YZZ=             -7.1992
  YYZ=              0.0000  XYZ=              0.0000
 Hexadecapole moment (field-independent basis, Debye-Ang**3):
 XXXX=          -1049.8428 YYYY=          -1777.0795 ZZZZ=            -99.0553 XXXY=            362.1540
 XXXZ=              0.0000 YYYX=            292.0841 YYYZ=              0.0000 ZZZX=              0.0000
 ZZZY=              0.0000 XXYY=           -448.5651 XXZZ=           -259.5792 YYZZ=           -477.3860
 XXYZ=             -0.0000 YYXZ=             -0.0000 ZZXY=            194.5594
 N-N= 7.818793934171D+02 E-N=-2.800401092192D+03  KE= 5.379972506041D+02
 Symmetry A'   KE= 5.232202112049D+02
 Symmetry A"   KE= 1.477703939924D+01
 Unable to Open any file for archive entry.
 1\1\GINC-GADI-CPU-CLX-0240\SP\RM062X TD-FC\6-311++G(d,p)\C14H11(1+)\TS
 1578\02-Aug-2022\0\\#n M062X/6-311++G(d,p) TD(NStates=1) EmpiricalDisp
 ersion=GD3 SP\\SP_6\\1,1\C,0,0.,2.318655,1.294431\C,0,0.,3.563508,0.65
 3989\C,0,0.,3.677861,-0.77383\C,0,0.,2.655156,-1.509538\C,0,0.,-2.2711
 56,-1.305538\C,0,0.,-3.689861,-0.65383\C,0,0.,-3.839508,0.689989\C,0,0
 .,-2.666655,1.426431\C,0,0.,-0.024,1.453369\C,0,0.,0.138,-1.429189\C,0
 ,0.,1.280055,0.617065\C,0,0.,1.315471,-0.850804\C,0,0.,-1.244055,0.737
 065\C,0,0.,-1.159471,-0.610804\H,0,0.,2.296071,2.377647\H,0,0.,4.45675
 3,1.271689\H,0,0.,4.687262,-1.194349\H,0,0.,2.67755,-2.592059\H,0,0.,-
 0.036,-2.510266\H,0,0.,-2.25755,-2.388059\H,0,0.,-4.531262,-1.350349\H
 ,0,0.,-4.816753,1.151689\H,0,0.,-2.680071,2.509647\H,0,-0.859585,-0.12
 ,2.145787\H,0,0.859585,-0.12,2.145787\\Version=ES64L-G16RevC.01\State=
 1-A'\HF=-539.6320354\RMSD=3.248e-09\PG=CS [SG(C14H9),X(H2)]\\@
 The archive entry for this job was punched.


 NATURE GIVES TO EVERY TIME AND SEASON SOME BEAUTY OF ITS OWN.

                                                    --DICKENS
 Job cpu time:       0 days  0 hours 53 minutes 35.1 seconds.
 Elapsed time:       0 days  0 hours  1 minutes  7.3 seconds.
 File lengths (MBytes):  RWF=    460 Int=      0 D2E=      0 Chk=     15 Scr=      1
 Normal termination of Gaussian 16 at Tue Aug  2 12:59:38 2022.
