 Entering Gaussian System, Link 0=g16
 Initial command:
 /apps/gaussian/g16c01/g16/l1.exe "/jobfs/53803565.gadi-pbs/Gau-1024332.inp" -scrdir="/jobfs/53803565.gadi-pbs/"
 Entering Link 1 = /apps/gaussian/g16c01/g16/l1.exe PID=   1024333.
  
 Copyright (c) 1988-2019, Gaussian, Inc.  All Rights Reserved.
  
 This is part of the Gaussian(R) 16 program.  It is based on
 the Gaussian(R) 09 system (copyright 2009, Gaussian, Inc.),
 the Gaussian(R) 03 system (copyright 2003, Gaussian, Inc.),
 the Gaussian(R) 98 system (copyright 1998, Gaussian, Inc.),
 the Gaussian(R) 94 system (copyright 1995, Gaussian, Inc.),
 the Gaussian 92(TM) system (copyright 1992, Gaussian, Inc.),
 the Gaussian 90(TM) system (copyright 1990, Gaussian, Inc.),
 the Gaussian 88(TM) system (copyright 1988, Gaussian, Inc.),
 the Gaussian 86(TM) system (copyright 1986, Carnegie Mellon
 University), and the Gaussian 82(TM) system (copyright 1983,
 Carnegie Mellon University). Gaussian is a federally registered
 trademark of Gaussian, Inc.
  
 This software contains proprietary and confidential information,
 including trade secrets, belonging to Gaussian, Inc.
  
 This software is provided under written license and may be
 used, copied, transmitted, or stored only in accord with that
 written license.
  
 The following legend is applicable only to US Government
 contracts under FAR:
  
                    RESTRICTED RIGHTS LEGEND
  
 Use, reproduction and disclosure by the US Government is
 subject to restrictions as set forth in subparagraphs (a)
 and (c) of the Commercial Computer Software - Restricted
 Rights clause in FAR 52.227-19.
  
 Gaussian, Inc.
 340 Quinnipiac St., Bldg. 40, Wallingford CT 06492
  
  
 ---------------------------------------------------------------
 Warning -- This program may not be used in any manner that
 competes with the business of Gaussian, Inc. or will provide
 assistance to any competitor of Gaussian, Inc.  The licensee
 of this program is prohibited from giving any competitor of
 Gaussian, Inc. access to this program.  By using this program,
 the user acknowledges that Gaussian, Inc. is engaged in the
 business of creating and licensing software in the field of
 computational chemistry and represents and warrants to the
 licensee that it is not a competitor of Gaussian, Inc. and that
 it will not use this program in any manner prohibited above.
 ---------------------------------------------------------------
  

 Cite this work as:
 Gaussian 16, Revision C.01,
 M. J. Frisch, G. W. Trucks, H. B. Schlegel, G. E. Scuseria, 
 M. A. Robb, J. R. Cheeseman, G. Scalmani, V. Barone, 
 G. A. Petersson, H. Nakatsuji, X. Li, M. Caricato, A. V. Marenich, 
 J. Bloino, B. G. Janesko, R. Gomperts, B. Mennucci, H. P. Hratchian, 
 J. V. Ortiz, A. F. Izmaylov, J. L. Sonnenberg, D. Williams-Young, 
 F. Ding, F. Lipparini, F. Egidi, J. Goings, B. Peng, A. Petrone, 
 T. Henderson, D. Ranasinghe, V. G. Zakrzewski, J. Gao, N. Rega, 
 G. Zheng, W. Liang, M. Hada, M. Ehara, K. Toyota, R. Fukuda, 
 J. Hasegawa, M. Ishida, T. Nakajima, Y. Honda, O. Kitao, H. Nakai, 
 T. Vreven, K. Throssell, J. A. Montgomery, Jr., J. E. Peralta, 
 F. Ogliaro, M. J. Bearpark, J. J. Heyd, E. N. Brothers, K. N. Kudin, 
 V. N. Staroverov, T. A. Keith, R. Kobayashi, J. Normand, 
 K. Raghavachari, A. P. Rendell, J. C. Burant, S. S. Iyengar, 
 J. Tomasi, M. Cossi, J. M. Millam, M. Klene, C. Adamo, R. Cammi, 
 J. W. Ochterski, R. L. Martin, K. Morokuma, O. Farkas, 
 J. B. Foresman, and D. J. Fox, Gaussian, Inc., Wallingford CT, 2019.
 
 ******************************************
 Gaussian 16:  ES64L-G16RevC.01  3-Jul-2019
                 2-Aug-2022 
 ******************************************
 %NProcShared=48
 Will use up to   48 processors via shared memory.
 %mem = 190GB
 ---------------------------------------------------------------
 #n M062X/6-311++G(d,p) TD(NStates=1) EmpiricalDispersion=GD3 SP
 ---------------------------------------------------------------
 1/38=1,172=1/1;
 2/12=2,17=6,18=5,40=1/2;
 3/5=4,6=6,7=1111,11=9,25=1,30=1,74=-55,124=31/1,2,3,8;
 4//1;
 5/5=2,38=5/2;
 8/6=1,10=2,108=1/1;
 9/41=1,42=1,70=2/14;
 6/7=2,8=2,9=2,10=2/1;
 99/5=1,9=1/99;
 ------
 SP_-10
 ------
 Symbolic Z-matrix:
 Charge =  1 Multiplicity = 1
 C                     0.        2.70466   1.40443 
 C                     0.        3.90151   0.73199 
 C                     0.        3.74186  -0.57783 
 C                     0.        2.21516  -1.29154 
 C                     0.       -2.71116  -1.52354 
 C                     0.       -3.62586  -0.84983 
 C                     0.       -3.50151   0.61199 
 C                     0.       -2.28066   1.31643 
 C                     0.        0.064     1.45337 
 C                     0.       -0.266    -1.42919 
 C                     0.        1.19606   0.65107 
 C                     0.        1.13147  -0.6448 
 C                     0.       -1.32805   0.70307 
 C                     0.       -1.34347  -0.8168 
 H                     0.        2.64607   2.48765 
 H                     0.        4.86475   1.21369 
 H                     0.        4.56326  -1.31235 
 H                     0.        2.27355  -2.37406 
 H                     0.       -0.126    -2.51027 
 H                     0.       -2.66155  -2.60606 
 H                     0.       -4.65526  -1.23235 
 H                     0.       -4.40875   1.20969 
 H                     0.       -2.33007   2.39965 
 H                    -0.85959   0.344     2.14579 
 H                     0.85959   0.344     2.14579 
 
                          Input orientation:                          
 ---------------------------------------------------------------------
 Center     Atomic      Atomic             Coordinates (Angstroms)
 Number     Number       Type             X           Y           Z
 ---------------------------------------------------------------------
      1          6           0        0.000000    2.704655    1.404431
      2          6           0        0.000000    3.901508    0.731989
      3          6           0        0.000000    3.741861   -0.577830
      4          6           0        0.000000    2.215156   -1.291538
      5          6           0        0.000000   -2.711156   -1.523538
      6          6           0        0.000000   -3.625861   -0.849830
      7          6           0        0.000000   -3.501508    0.611989
      8          6           0        0.000000   -2.280655    1.316431
      9          6           0        0.000000    0.064000    1.453369
     10          6           0        0.000000   -0.266000   -1.429189
     11          6           0        0.000000    1.196055    0.651065
     12          6           0        0.000000    1.131471   -0.644804
     13          6           0        0.000000   -1.328055    0.703065
     14          6           0        0.000000   -1.343471   -0.816804
     15          1           0        0.000000    2.646071    2.487647
     16          1           0        0.000000    4.864753    1.213689
     17          1           0        0.000000    4.563262   -1.312349
     18          1           0        0.000000    2.273550   -2.374059
     19          1           0        0.000000   -0.126000   -2.510266
     20          1           0        0.000000   -2.661550   -2.606059
     21          1           0        0.000000   -4.655262   -1.232349
     22          1           0        0.000000   -4.408753    1.209689
     23          1           0        0.000000   -2.330071    2.399647
     24          1           0       -0.859585    0.344000    2.145787
     25          1           0        0.859585    0.344000    2.145787
 ---------------------------------------------------------------------
                    Distance matrix (angstroms):
                    1          2          3          4          5
     1  C    0.000000
     2  C    1.372820   0.000000
     3  C    2.237220   1.319512   0.000000
     4  C    2.740047   2.634093   1.685291   0.000000
     5  C    6.156623   6.986754   6.521947   4.931772   0.000000
     6  C    6.719905   7.691777   7.372741   5.857695   1.136032
     7  C    6.256550   7.403989   7.340440   6.025252   2.277088
     8  C    4.986087   6.209727   6.313392   5.197482   2.872413
     9  C    2.641108   3.904722   4.201480   3.487404   4.069824
    10  C    4.105386   4.694551   4.097287   2.484971   2.446976
    11  C    1.686249   2.706663   2.826891   2.193689   4.471599
    12  C    2.583461   3.093326   2.611249   1.261998   3.941821
    13  C    4.093246   5.229643   5.229220   4.066053   2.621208
    14  C    4.617489   5.468872   5.090944   3.590153   1.539492
    15  H    1.084799   2.158346   3.255442   3.803673   6.692495
    16  H    2.168503   1.076975   2.114338   3.646440   8.055235
    17  H    3.291704   2.148776   1.101915   2.348198   7.277483
    18  H    3.803004   3.506819   2.319995   1.084095   5.056746
    19  H    4.830886   5.170400   4.323732   2.639377   2.767068
    20  H    6.699268   7.363172   6.716948   5.050765   1.083657
    21  H    7.817991   8.779347   8.422593   6.870673   1.965792
    22  H    7.116073   8.323980   8.344323   7.080417   3.217509
    23  H    5.132146   6.450865   6.762672   5.855249   3.941650
    24  H    2.619387   3.923465   4.438743   4.006908   4.851475
    25  H    2.619387   3.923465   4.438743   4.006908   4.851475
                    6          7          8          9         10
     6  C    0.000000
     7  C    1.467099   0.000000
     8  C    2.549954   1.409511   0.000000
     9  C    4.349690   3.663437   2.348650   0.000000
    10  C    3.409446   3.825561   3.405476   2.901386   0.000000
    11  C    5.050105   4.697726   3.539806   1.387530   2.542649
    12  C    4.761748   4.800419   3.935613   2.354108   1.602556
    13  C    2.773336   2.175360   1.132989   1.581383   2.382114
    14  C    2.282629   2.588160   2.330023   2.671078   1.239338
    15  H    7.104638   6.427349   5.064028   2.781514   4.880754
    16  H    8.737771   8.387870   7.146147   4.806732   5.771432
    17  H    8.202174   8.291176   7.331418   5.281340   4.830675
    18  H    6.093137   6.501367   5.861783   4.419425   2.709630
    19  H    3.873768   4.598101   4.391600   3.968186   1.090104
    20  H    2.003556   3.325863   3.940940   4.889538   2.669023
    21  H    1.098174   2.175484   3.483538   5.429965   4.393674
    22  H    2.203302   1.086434   2.130773   4.479386   4.911831
    23  H    3.498310   2.137285   1.084343   2.574300   4.349756
    24  H    5.047019   4.228399   2.883666   1.138740   3.727122
    25  H    5.047019   4.228399   2.883666   1.138740   3.727122
                   11         12         13         14         15
    11  C    0.000000
    12  C    1.297477   0.000000
    13  C    2.524646   2.804642   0.000000
    14  C    2.933229   2.480912   1.519947   0.000000
    15  H    2.339996   3.479405   4.356422   5.180332   0.000000
    16  H    3.711589   4.170299   6.213824   6.531841   2.558421
    17  H    3.897830   3.496113   6.226517   5.927483   4.256241
    18  H    3.211288   2.072358   4.737114   3.938005   4.875957
    19  H    3.426637   2.249707   3.430806   2.085677   5.715200
    20  H    5.048760   4.270074   3.567704   2.222333   7.356404
    21  H    6.146963   5.816484   3.849173   3.337759   8.194378
    22  H    5.632578   5.842365   3.122078   3.674592   7.169639
    23  H    3.935874   4.609876   1.970387   3.364363   4.976920
    24  H    1.923299   3.024301   2.369831   3.516161   2.480985
    25  H    1.923299   3.024301   2.369831   3.516161   2.480985
                   16         17         18         19         20
    16  H    0.000000
    17  H    2.543966   0.000000
    18  H    4.425638   2.523888   0.000000
    19  H    6.226994   4.839854   2.403413   0.000000
    20  H    8.440125   7.339727   4.940550   2.537359   0.000000
    21  H    9.829231   9.218871   7.022246   4.706090   2.421150
    22  H    9.273507   9.319749   7.582640   5.672745   4.196743
    23  H    7.291913   7.829237   6.631862   5.381930   5.016669
    24  H    4.695200   5.522659   4.989094   4.758005   5.687904
    25  H    4.695200   5.522659   4.989094   4.758005   5.687904
                   21         22         23         24         25
    21  H    0.000000
    22  H    2.454448   0.000000
    23  H    4.312529   2.395187   0.000000
    24  H    6.094531   4.919739   2.820281   0.000000
    25  H    6.094531   4.919739   2.820281   1.719170   0.000000
 Stoichiometry    C14H11(1+)
 Framework group  CS[SG(C14H9),X(H2)]
 Deg. of freedom    46
 Full point group                 CS      NOp   2
 Largest Abelian subgroup         CS      NOp   2
 Largest concise Abelian subgroup CS      NOp   2
                         Standard orientation:                         
 ---------------------------------------------------------------------
 Center     Atomic      Atomic             Coordinates (Angstroms)
 Number     Number       Type             X           Y           Z
 ---------------------------------------------------------------------
      1          6           0        2.559683    1.649798    0.000000
      2          6           0        2.569375    3.022584    0.000000
      3          6           0        1.352826    3.533584    0.000000
      4          6           0       -0.024113    2.561860    0.000000
      5          6           0       -2.668860   -1.600794    0.000000
      6          6           0       -2.537516   -2.729207    0.000000
      7          6           0       -1.206483   -3.346242    0.000000
      8          6           0        0.010716   -2.635505    0.000000
      9          6           0        1.292498   -0.667462    0.000000
     10          6           0       -1.374214    0.475641    0.000000
     11          6           0        1.157288    0.713464    0.000000
     12          6           0        0.000000    1.300093    0.000000
     13          6           0       -0.049436   -1.504114    0.000000
     14          6           0       -1.376846   -0.763694    0.000000
     15          1           0        3.471228    1.061687    0.000000
     16          1           0        3.465393    3.620102    0.000000
     17          1           0        1.122401    4.611138    0.000000
     18          1           0       -0.935149    3.149461    0.000000
     19          1           0       -2.243522    1.133388    0.000000
     20          1           0       -3.584254   -1.020824    0.000000
     21          1           0       -3.380222   -3.433361    0.000000
     22          1           0       -1.137440   -4.430479    0.000000
     23          1           0        0.926808   -3.215656    0.000000
     24          1           0        2.032624   -0.767744    0.859585
     25          1           0        2.032624   -0.767744   -0.859585
 ---------------------------------------------------------------------
 Rotational constants (GHZ):           2.1589166           0.4411450           0.3670897
 Standard basis: 6-311++G(d,p) (5D, 7F)
 There are   299 symmetry adapted cartesian basis functions of A'  symmetry.
 There are   100 symmetry adapted cartesian basis functions of A"  symmetry.
 There are   285 symmetry adapted basis functions of A'  symmetry.
 There are   100 symmetry adapted basis functions of A"  symmetry.
   385 basis functions,   603 primitive gaussians,   399 cartesian basis functions
    47 alpha electrons       47 beta electrons
       nuclear repulsion energy       784.3720341991 Hartrees.
 NAtoms=   25 NActive=   25 NUniq=   24 SFac= 1.09D+00 NAtFMM=   60 NAOKFM=F Big=F
 Integral buffers will be    131072 words long.
 Regular integral format.
 Two-electron integral symmetry is turned on.
 Nuclear repulsion after empirical dispersion term =      784.3710704484 Hartrees.
 One-electron integrals computed using PRISM.
 NBasis=   385 RedAO= T EigKep=  1.26D-06  NBF=   285   100
 NBsUse=   379 1.00D-06 EigRej=  7.30D-07 NBFU=   279   100
 ExpMin= 3.60D-02 ExpMax= 4.56D+03 ExpMxC= 6.82D+02 IAcc=3 IRadAn=         5 AccDes= 0.00D+00
 Harris functional with IExCor= 1009 and IRadAn=       5 diagonalized for initial guess.
 HarFok:  IExCor= 1009 AccDes= 0.00D+00 IRadAn=         5 IDoV= 1 UseB2=F ITyADJ=14
 ICtDFT=  3500011 ScaDFX=  1.000000  1.000000  1.000000  1.000000
 FoFCou: FMM=F IPFlag=           0 FMFlag=      100000 FMFlg1=           0
         NFxFlg=           0 DoJE=T BraDBF=F KetDBF=T FulRan=T
         wScrn=  0.000000 ICntrl=       500 IOpCl=  0 I1Cent=   200000004 NGrid=           0
         NMat0=    1 NMatS0=      1 NMatT0=    0 NMatD0=    1 NMtDS0=    0 NMtDT0=    0
 Petite list used in FoFCou.
 Initial guess orbital symmetries:
       Occupied  (A') (A') (A') (A') (A') (A') (A') (A') (A') (A')
                 (A') (A') (A') (A') (A') (A') (A') (A') (A') (A')
                 (A') (A') (A') (A') (A') (A') (A') (A') (A') (A')
                 (A') (A') (A") (A') (A') (A') (A") (A') (A') (A")
                 (A') (A') (A") (A") (A') (A") (A")
       Virtual   (A") (A") (A") (A") (A") (A') (A') (A') (A') (A')
                 (A') (A") (A') (A') (A") (A') (A') (A") (A') (A')
                 (A') (A") (A') (A') (A') (A") (A') (A") (A') (A")
                 (A') (A') (A') (A') (A") (A') (A') (A') (A") (A')
                 (A") (A') (A') (A") (A') (A') (A') (A') (A') (A")
                 (A') (A") (A') (A") (A') (A') (A") (A') (A") (A')
                 (A') (A') (A') (A') (A') (A") (A') (A') (A') (A")
                 (A') (A') (A') (A') (A') (A') (A') (A') (A') (A')
                 (A') (A') (A') (A') (A') (A') (A') (A') (A') (A')
                 (A') (A') (A') (A') (A") (A") (A') (A') (A") (A')
                 (A') (A') (A") (A') (A') (A") (A") (A') (A") (A")
                 (A') (A') (A") (A") (A') (A') (A") (A') (A') (A")
                 (A") (A') (A') (A") (A') (A') (A") (A') (A') (A')
                 (A') (A') (A') (A') (A') (A') (A') (A') (A") (A')
                 (A') (A') (A') (A') (A') (A") (A') (A') (A') (A')
                 (A') (A") (A") (A') (A") (A') (A') (A") (A') (A")
                 (A') (A") (A') (A") (A") (A') (A") (A') (A') (A')
                 (A") (A') (A') (A') (A') (A') (A') (A") (A") (A')
                 (A') (A') (A") (A") (A') (A') (A") (A") (A') (A')
                 (A") (A') (A') (A") (A') (A') (A") (A') (A') (A")
                 (A") (A') (A") (A') (A") (A") (A') (A') (A') (A")
                 (A') (A') (A') (A') (A") (A') (A") (A') (A') (A")
                 (A') (A") (A') (A') (A") (A') (A') (A") (A') (A')
                 (A") (A') (A") (A') (A') (A') (A") (A') (A") (A')
                 (A") (A') (A') (A') (A') (A") (A') (A') (A') (A")
                 (A') (A') (A') (A") (A") (A') (A') (A") (A') (A")
                 (A') (A") (A') (A') (A') (A') (A') (A") (A') (A")
                 (A') (A') (A') (A') (A") (A") (A') (A') (A") (A')
                 (A") (A') (A') (A") (A') (A") (A") (A') (A') (A')
                 (A') (A') (A') (A') (A') (A') (A') (A') (A') (A')
                 (A") (A') (A') (A') (A') (A') (A') (A') (A') (A')
                 (A') (A') (A') (A') (A') (A') (A') (A') (A') (A')
                 (A') (A') (A') (A') (A') (A') (A') (A') (A') (A')
                 (A') (A')
 The electronic state of the initial guess is 1-A'.
 Requested convergence on RMS density matrix=1.00D-08 within 128 cycles.
 Requested convergence on MAX density matrix=1.00D-06.
 Requested convergence on             energy=1.00D-06.
 No special actions if energy rises.
 SCF Done:  E(RM062X) =  -539.382376153     A.U. after   17 cycles
            NFock= 17  Conv=0.45D-08     -V/T= 2.0004
 DoSCS=F DFT=T ScalE2(SS,OS)=  1.000000  1.000000
 ExpMin= 3.60D-02 ExpMax= 4.56D+03 ExpMxC= 6.82D+02 IAcc=3 IRadAn=         5 AccDes= 0.00D+00
 HarFok:  IExCor=  205 AccDes= 0.00D+00 IRadAn=         5 IDoV=-2 UseB2=F ITyADJ=14
 ICtDFT= 12500011 ScaDFX=  1.000000  1.000000  1.000000  1.000000
 Range of M.O.s used for correlation:    15   379
 NBasis=   385 NAE=    47 NBE=    47 NFC=    14 NFV=     0
 NROrb=    365 NOA=    33 NOB=    33 NVA=   332 NVB=   332

 **** Warning!!: The largest alpha MO coefficient is  0.17469034D+03


 **** Warning!!: The smallest alpha delta epsilon is  0.98812987D-01

 Orbital symmetries:
       Occupied  (A') (A') (A') (A') (A') (A') (A') (A') (A') (A')
                 (A') (A') (A') (A') (A') (A') (A') (A') (A') (A')
                 (A') (A') (A') (A') (A') (A') (A') (A') (A') (A')
                 (A') (A") (A') (A') (A') (A") (A') (A') (A") (A')
                 (A') (A") (A') (A") (A') (A") (A")
       Virtual   (A") (A") (A") (A') (A") (A') (A') (A') (A') (A")
                 (A') (A") (A') (A") (A') (A') (A") (A') (A') (A')
                 (A") (A") (A') (A') (A') (A') (A') (A") (A') (A')
                 (A") (A") (A') (A') (A') (A') (A") (A') (A') (A")
                 (A") (A') (A') (A') (A') (A") (A") (A") (A') (A')
                 (A') (A') (A') (A') (A") (A') (A") (A') (A') (A')
                 (A') (A") (A') (A') (A') (A') (A") (A') (A') (A')
                 (A') (A') (A') (A') (A') (A') (A') (A') (A') (A')
                 (A') (A') (A') (A') (A') (A') (A') (A') (A') (A')
                 (A") (A') (A') (A') (A") (A') (A') (A') (A") (A')
                 (A") (A') (A') (A") (A') (A') (A") (A") (A') (A')
                 (A") (A') (A") (A') (A") (A") (A') (A') (A") (A")
                 (A') (A') (A') (A") (A") (A') (A') (A') (A') (A')
                 (A') (A') (A') (A') (A') (A') (A') (A') (A') (A')
                 (A') (A') (A') (A') (A") (A') (A') (A") (A') (A')
                 (A') (A') (A') (A") (A') (A") (A') (A") (A') (A")
                 (A') (A") (A') (A") (A') (A") (A") (A') (A") (A')
                 (A") (A') (A') (A') (A') (A') (A') (A") (A') (A")
                 (A') (A') (A") (A') (A") (A") (A') (A') (A") (A")
                 (A') (A') (A") (A') (A') (A") (A') (A') (A') (A")
                 (A') (A") (A") (A') (A") (A') (A') (A") (A') (A")
                 (A') (A') (A') (A') (A") (A') (A') (A") (A') (A")
                 (A") (A') (A') (A') (A") (A') (A') (A") (A') (A")
                 (A') (A') (A') (A") (A') (A') (A") (A') (A") (A")
                 (A') (A') (A') (A") (A') (A') (A') (A') (A') (A')
                 (A") (A') (A') (A') (A') (A") (A') (A") (A') (A')
                 (A") (A') (A') (A') (A') (A") (A') (A') (A') (A')
                 (A") (A') (A') (A") (A") (A") (A') (A") (A') (A")
                 (A') (A") (A') (A") (A') (A") (A") (A') (A') (A')
                 (A') (A') (A') (A') (A') (A') (A') (A') (A') (A')
                 (A") (A') (A') (A') (A') (A') (A') (A') (A') (A')
                 (A') (A') (A') (A') (A') (A') (A') (A') (A') (A')
                 (A') (A') (A') (A') (A') (A') (A') (A') (A') (A')
                 (A') (A')
     4 initial guesses have been made.
 Convergence on wavefunction:    0.001000000000000
 Iteration     1 Dimension     4 NMult     0 NNew      4
 CISAX will form     4 AO SS matrices at one time.
 Iteration     2 Dimension     6 NMult     4 NNew      2
 Iteration     3 Dimension     8 NMult     6 NNew      2
 Iteration     4 Dimension    10 NMult     8 NNew      2
 Iteration     5 Dimension    12 NMult    10 NNew      2
 Iteration     6 Dimension    14 NMult    12 NNew      2
 ***********************************************************************
 Excited states from <AA,BB:AA,BB> singles matrix:
 ***********************************************************************
 
 Ground to excited state transition densities written to RWF  633
 Ground to excited state transition electric dipole moments (Au):
       state          X           Y           Z        Dip. S.      Osc.
         1         0.8014      0.8897     -0.0000      1.4338      0.0385
 Ground to excited state transition velocity dipole moments (Au):
       state          X           Y           Z        Dip. S.      Osc.
         1        -0.0332     -0.0298      0.0000      0.0020      0.0329
 Ground to excited state transition magnetic dipole moments (Au):
       state          X           Y           Z
         1         0.0000     -0.0000     -0.2981
 Ground to excited state transition velocity quadrupole moments (Au):
       state          XX          YY          ZZ          XY          XZ          YZ
         1        -0.0227      0.0634     -0.0035      0.0180      0.0000     -0.0000
 <0|del|b> * <b|rxdel|0> + <0|del|b> * <b|delr+rdel|0>
 Rotatory Strengths (R) in cgs (10**-40 erg-esu-cm/Gauss)
       state          XX          YY          ZZ    R(velocity)    E-M Angle
         1         0.0000     -0.0000     -0.0000     -0.0000       90.00
 1/2[<0|r|b>*<b|rxdel|0> + (<0|rxdel|b>*<b|r|0>)*]
 Rotatory Strengths (R) in cgs (10**-40 erg-esu-cm/Gauss)
       state          XX          YY          ZZ     R(length)
         1        -0.0000      0.0000     -0.0000      0.0000
  1/2[<0|del|b>*<b|r|0> + (<0|r|b>*<b|del|0>)*] (Au)
       state          X           Y           Z        Dip. S.   Osc.(frdel)
         1        -0.0266     -0.0265     -0.0000      0.0531      0.0354

 Excitation energies and oscillator strengths:
 
 Excited State   1:      Singlet-A'     1.0967 eV 1130.47 nm  f=0.0385  <S**2>=0.000
      47 -> 48         0.70531
 This state for optimization and/or second-order correction.
 Total Energy, E(TD-HF/TD-DFT) =  -539.342071405    
 Copying the excited state density for this state as the 1-particle RhoCI density.
 SavETr:  write IOETrn=   770 NScale= 10 NData=  16 NLR=1 NState=    1 LETran=      28.

 **********************************************************************

            Population analysis using the SCF Density.

 **********************************************************************

 Orbital symmetries:
       Occupied  (A') (A') (A') (A') (A') (A') (A') (A') (A') (A')
                 (A') (A') (A') (A') (A') (A') (A') (A') (A') (A')
                 (A') (A') (A') (A') (A') (A') (A') (A') (A') (A')
                 (A') (A") (A') (A') (A') (A") (A') (A') (A") (A')
                 (A') (A") (A') (A") (A') (A") (A")
       Virtual   (A") (A") (A") (A') (A") (A') (A') (A') (A') (A")
                 (A') (A") (A') (A") (A') (A') (A") (A') (A') (A')
                 (A") (A") (A') (A') (A') (A') (A') (A") (A') (A')
                 (A") (A") (A') (A') (A') (A') (A") (A') (A') (A")
                 (A") (A') (A') (A') (A') (A") (A") (A") (A') (A')
                 (A') (A') (A') (A') (A") (A') (A") (A') (A') (A')
                 (A') (A") (A') (A') (A') (A') (A") (A') (A') (A')
                 (A') (A') (A') (A') (A') (A') (A') (A') (A') (A')
                 (A') (A') (A') (A') (A') (A') (A') (A') (A') (A')
                 (A") (A') (A') (A') (A") (A') (A') (A') (A") (A')
                 (A") (A') (A') (A") (A') (A') (A") (A") (A') (A')
                 (A") (A') (A") (A') (A") (A") (A') (A') (A") (A")
                 (A') (A') (A') (A") (A") (A') (A') (A') (A') (A')
                 (A') (A') (A') (A') (A') (A') (A') (A') (A') (A')
                 (A') (A') (A') (A') (A") (A') (A') (A") (A') (A')
                 (A') (A') (A') (A") (A') (A") (A') (A") (A') (A")
                 (A') (A") (A') (A") (A') (A") (A") (A') (A") (A')
                 (A") (A') (A') (A') (A') (A') (A') (A") (A') (A")
                 (A') (A') (A") (A') (A") (A") (A') (A') (A") (A")
                 (A') (A') (A") (A') (A') (A") (A') (A') (A') (A")
                 (A') (A") (A") (A') (A") (A') (A') (A") (A') (A")
                 (A') (A') (A') (A') (A") (A') (A') (A") (A') (A")
                 (A") (A') (A') (A') (A") (A') (A') (A") (A') (A")
                 (A') (A') (A') (A") (A') (A') (A") (A') (A") (A")
                 (A') (A') (A') (A") (A') (A') (A') (A') (A') (A')
                 (A") (A') (A') (A') (A') (A") (A') (A") (A') (A')
                 (A") (A') (A') (A') (A') (A") (A') (A') (A') (A')
                 (A") (A') (A') (A") (A") (A") (A') (A") (A') (A")
                 (A') (A") (A') (A") (A') (A") (A") (A') (A') (A')
                 (A') (A') (A') (A') (A') (A') (A') (A') (A') (A')
                 (A") (A') (A') (A') (A') (A') (A') (A') (A') (A')
                 (A') (A') (A') (A') (A') (A') (A') (A') (A') (A')
                 (A') (A') (A') (A') (A') (A') (A') (A') (A') (A')
                 (A') (A')
 The electronic state is 1-A'.
 Alpha  occ. eigenvalues --  -10.78414 -10.74577 -10.73766 -10.72830 -10.72227
 Alpha  occ. eigenvalues --  -10.71114 -10.70528 -10.70324 -10.70261 -10.69360
 Alpha  occ. eigenvalues --  -10.68246 -10.68138 -10.67664 -10.66479  -1.20169
 Alpha  occ. eigenvalues --   -1.13044  -1.11346  -1.06801  -1.02910  -1.01199
 Alpha  occ. eigenvalues --   -0.95877  -0.88503  -0.86377  -0.84679  -0.83413
 Alpha  occ. eigenvalues --   -0.77884  -0.76563  -0.74691  -0.72907  -0.69866
 Alpha  occ. eigenvalues --   -0.68805  -0.68618  -0.66516  -0.64572  -0.63977
 Alpha  occ. eigenvalues --   -0.63555  -0.62917  -0.59940  -0.57843  -0.56621
 Alpha  occ. eigenvalues --   -0.55453  -0.54929  -0.53474  -0.52413  -0.49023
 Alpha  occ. eigenvalues --   -0.47217  -0.37075
 Alpha virt. eigenvalues --   -0.27194  -0.15163  -0.12272  -0.11643  -0.10682
 Alpha virt. eigenvalues --   -0.10337  -0.09806  -0.07818  -0.07719  -0.07599
 Alpha virt. eigenvalues --   -0.07329  -0.06152  -0.05848  -0.05576  -0.05441
 Alpha virt. eigenvalues --   -0.04407  -0.04037  -0.03401  -0.03187  -0.02066
 Alpha virt. eigenvalues --   -0.01767  -0.00808  -0.00712  -0.00232   0.00336
 Alpha virt. eigenvalues --    0.00705   0.01210   0.01433   0.01565   0.01897
 Alpha virt. eigenvalues --    0.02091   0.02722   0.02876   0.02977   0.03628
 Alpha virt. eigenvalues --    0.03922   0.04052   0.04348   0.05248   0.05478
 Alpha virt. eigenvalues --    0.05786   0.06022   0.06164   0.06379   0.07335
 Alpha virt. eigenvalues --    0.07434   0.07660   0.07858   0.08018   0.08223
 Alpha virt. eigenvalues --    0.08535   0.09115   0.09610   0.10019   0.10094
 Alpha virt. eigenvalues --    0.10647   0.11390   0.11406   0.11799   0.12268
 Alpha virt. eigenvalues --    0.12967   0.13286   0.13306   0.13654   0.14055
 Alpha virt. eigenvalues --    0.14603   0.16365   0.16443   0.17055   0.17493
 Alpha virt. eigenvalues --    0.18291   0.18722   0.19637   0.20364   0.20495
 Alpha virt. eigenvalues --    0.21201   0.22272   0.22829   0.23527   0.24264
 Alpha virt. eigenvalues --    0.25294   0.25915   0.26448   0.26958   0.28085
 Alpha virt. eigenvalues --    0.29551   0.30168   0.31594   0.32483   0.35324
 Alpha virt. eigenvalues --    0.37691   0.37997   0.38912   0.39245   0.39334
 Alpha virt. eigenvalues --    0.40511   0.41941   0.43007   0.43331   0.43820
 Alpha virt. eigenvalues --    0.44146   0.44987   0.45722   0.46603   0.47311
 Alpha virt. eigenvalues --    0.47845   0.48045   0.48967   0.50823   0.51245
 Alpha virt. eigenvalues --    0.51739   0.52284   0.52660   0.53881   0.54533
 Alpha virt. eigenvalues --    0.54850   0.56231   0.57815   0.58648   0.58827
 Alpha virt. eigenvalues --    0.59704   0.61181   0.62181   0.62361   0.63318
 Alpha virt. eigenvalues --    0.64658   0.64924   0.66588   0.66869   0.67676
 Alpha virt. eigenvalues --    0.70157   0.71728   0.73101   0.73266   0.74285
 Alpha virt. eigenvalues --    0.75098   0.75511   0.76722   0.77469   0.78105
 Alpha virt. eigenvalues --    0.79017   0.80044   0.80210   0.81442   0.81528
 Alpha virt. eigenvalues --    0.82534   0.82868   0.84420   0.84480   0.84629
 Alpha virt. eigenvalues --    0.87222   0.90241   0.90459   0.91272   0.92669
 Alpha virt. eigenvalues --    0.94472   0.95335   0.95885   0.97403   0.97813
 Alpha virt. eigenvalues --    0.99428   1.00531   1.02541   1.02971   1.04460
 Alpha virt. eigenvalues --    1.06093   1.06821   1.06908   1.07611   1.13095
 Alpha virt. eigenvalues --    1.15873   1.17046   1.19221   1.20902   1.27328
 Alpha virt. eigenvalues --    1.29585   1.33240   1.34565   1.35486   1.36068
 Alpha virt. eigenvalues --    1.37750   1.38620   1.40229   1.41632   1.41672
 Alpha virt. eigenvalues --    1.45352   1.46153   1.47008   1.47262   1.49868
 Alpha virt. eigenvalues --    1.50025   1.54085   1.54363   1.54597   1.56853
 Alpha virt. eigenvalues --    1.56926   1.57528   1.58273   1.59546   1.59693
 Alpha virt. eigenvalues --    1.63382   1.64229   1.65513   1.67175   1.68264
 Alpha virt. eigenvalues --    1.69394   1.70536   1.71395   1.75062   1.75651
 Alpha virt. eigenvalues --    1.75860   1.77297   1.77598   1.79815   1.80724
 Alpha virt. eigenvalues --    1.83200   1.83409   1.83874   1.85514   1.86508
 Alpha virt. eigenvalues --    1.88035   1.88702   1.89074   1.90921   1.94474
 Alpha virt. eigenvalues --    1.94639   1.97076   1.99694   2.00466   2.02344
 Alpha virt. eigenvalues --    2.02347   2.04293   2.09542   2.10004   2.13741
 Alpha virt. eigenvalues --    2.16538   2.17225   2.19373   2.19950   2.22922
 Alpha virt. eigenvalues --    2.24338   2.27298   2.30632   2.31730   2.32463
 Alpha virt. eigenvalues --    2.36236   2.37736   2.39464   2.41686   2.42329
 Alpha virt. eigenvalues --    2.43697   2.45677   2.49346   2.52857   2.55332
 Alpha virt. eigenvalues --    2.56480   2.57885   2.59177   2.59183   2.61464
 Alpha virt. eigenvalues --    2.61658   2.62033   2.63088   2.64495   2.65140
 Alpha virt. eigenvalues --    2.65200   2.65779   2.66452   2.67425   2.68284
 Alpha virt. eigenvalues --    2.69716   2.71019   2.72715   2.74205   2.75257
 Alpha virt. eigenvalues --    2.76181   2.76537   2.78788   2.83994   2.85038
 Alpha virt. eigenvalues --    2.87477   2.88827   2.91329   2.93052   2.98540
 Alpha virt. eigenvalues --    2.98911   3.01624   3.01777   3.04882   3.07731
 Alpha virt. eigenvalues --    3.09146   3.16477   3.21242   3.29105   3.29696
 Alpha virt. eigenvalues --    3.33546   3.37124   3.42001   3.50182   3.56478
 Alpha virt. eigenvalues --    3.58449   3.60114   3.62465   3.68533   3.73530
 Alpha virt. eigenvalues --    3.74891   3.82101   3.83304   3.87946   3.91512
 Alpha virt. eigenvalues --    3.98690   4.02015   4.07010   4.15499   4.25724
 Alpha virt. eigenvalues --    4.37540   4.51337   4.53367  23.42237  23.48811
 Alpha virt. eigenvalues --   23.54428  23.57222  23.58662  23.84034  23.94522
 Alpha virt. eigenvalues --   23.96090  24.19586  24.29284  24.53289  24.56023
 Alpha virt. eigenvalues --   25.08959  25.11083
          Condensed to atoms (all electrons):
               1          2          3          4          5          6
     1  C   11.214217  -2.641144   1.063059   2.474477  -0.176490  -0.120714
     2  C   -2.641144   9.362687  -1.754903  -1.499218   0.197092  -0.001853
     3  C    1.063059  -1.754903   7.906629   1.089783  -0.262598   0.020215
     4  C    2.474477  -1.499218   1.089783   8.611255  -0.113273  -0.074545
     5  C   -0.176490   0.197092  -0.262598  -0.113273  13.097575   0.313369
     6  C   -0.120714  -0.001853   0.020215  -0.074545   0.313369   6.923646
     7  C    0.059558  -0.034493  -0.013180  -0.098430  -1.069632   0.471652
     8  C    0.459545  -0.125274  -0.034169   0.103974   0.715242  -0.702720
     9  C   -1.394330  -0.574571   0.345758  -1.142242   1.097677   0.219198
    10  C   -1.072378   0.916313  -1.225672  -1.234023  -2.379586   0.356873
    11  C   -0.970983  -0.520553   1.372702  -0.933128  -0.503782  -0.352195
    12  C   -3.034380   3.019722  -1.868494  -0.681155  -2.543610   0.379431
    13  C    0.294650  -0.837959   0.400219  -1.383648  -1.265961   0.476331
    14  C   -0.537281   0.672909  -0.923359   0.536738  -1.497783  -1.827929
    15  H    0.383249  -0.128784   0.037805   0.027060  -0.005841   0.000001
    16  H   -0.019669   0.352883  -0.002944  -0.012413   0.000600  -0.000086
    17  H   -0.050832   0.033120   0.337699  -0.029731  -0.002286   0.000265
    18  H    0.060897   0.016263  -0.121969   0.445125   0.028909  -0.008036
    19  H   -0.042204  -0.015560   0.074187  -0.029616  -0.220203   0.045901
    20  H    0.005195   0.002427  -0.005930   0.008745   0.576418  -0.063284
    21  H   -0.001924  -0.000141   0.000575  -0.000558  -0.074183   0.411775
    22  H    0.003175   0.000329  -0.000614  -0.001595   0.039506  -0.046739
    23  H   -0.002808  -0.004707   0.003194   0.005297   0.003098   0.003713
    24  H   -0.012064   0.011244  -0.007581  -0.017514  -0.002973  -0.000143
    25  H   -0.012064   0.011244  -0.007581  -0.017514  -0.002973  -0.000143
               7          8          9         10         11         12
     1  C    0.059558   0.459545  -1.394330  -1.072378  -0.970983  -3.034380
     2  C   -0.034493  -0.125274  -0.574571   0.916313  -0.520553   3.019722
     3  C   -0.013180  -0.034169   0.345758  -1.225672   1.372702  -1.868494
     4  C   -0.098430   0.103974  -1.142242  -1.234023  -0.933128  -0.681155
     5  C   -1.069632   0.715242   1.097677  -2.379586  -0.503782  -2.543610
     6  C    0.471652  -0.702720   0.219198   0.356873  -0.352195   0.379431
     7  C    8.952334   0.711302  -1.915497  -0.193338  -0.421460  -0.556787
     8  C    0.711302   7.403052  -0.968640  -0.544792   0.066187  -1.334833
     9  C   -1.915497  -0.968640  10.553201   0.040392   0.875782  -0.131306
    10  C   -0.193338  -0.544792   0.040392   8.681312  -1.062693   1.585053
    11  C   -0.421460   0.066187   0.875782  -1.062693  11.313983   0.280293
    12  C   -0.556787  -1.334833  -0.131306   1.585053   0.280293  12.891779
    13  C   -0.772462   0.846723   1.275044  -0.029927  -0.434719  -2.629199
    14  C    0.981806  -1.128320  -2.751582   1.780101  -2.465275   0.124696
    15  H    0.002499   0.014489   0.088565  -0.019614  -0.062416  -0.059899
    16  H   -0.000094  -0.000549   0.000701   0.002036   0.025536  -0.001255
    17  H   -0.000319  -0.000750  -0.002757   0.002061   0.001184   0.063303
    18  H    0.002986   0.004164  -0.036330   0.091485  -0.041088  -0.149533
    19  H   -0.011395  -0.009101   0.047141   0.376109   0.094490   0.138630
    20  H    0.007794   0.026996  -0.003624  -0.028487  -0.001072  -0.100241
    21  H   -0.032825  -0.008131   0.001236   0.014886  -0.007803   0.008347
    22  H    0.389661  -0.021353  -0.010429  -0.022448   0.008043  -0.021264
    23  H   -0.105037   0.391699   0.060978   0.010774  -0.030502   0.009620
    24  H    0.018919   0.049542   0.370075   0.011832  -0.055929  -0.030115
    25  H    0.018919   0.049542   0.370075   0.011832  -0.055929  -0.030115
              13         14         15         16         17         18
     1  C    0.294650  -0.537281   0.383249  -0.019669  -0.050832   0.060897
     2  C   -0.837959   0.672909  -0.128784   0.352883   0.033120   0.016263
     3  C    0.400219  -0.923359   0.037805  -0.002944   0.337699  -0.121969
     4  C   -1.383648   0.536738   0.027060  -0.012413  -0.029731   0.445125
     5  C   -1.265961  -1.497783  -0.005841   0.000600  -0.002286   0.028909
     6  C    0.476331  -1.827929   0.000001  -0.000086   0.000265  -0.008036
     7  C   -0.772462   0.981806   0.002499  -0.000094  -0.000319   0.002986
     8  C    0.846723  -1.128320   0.014489  -0.000549  -0.000750   0.004164
     9  C    1.275044  -2.751582   0.088565   0.000701  -0.002757  -0.036330
    10  C   -0.029927   1.780101  -0.019614   0.002036   0.002061   0.091485
    11  C   -0.434719  -2.465275  -0.062416   0.025536   0.001184  -0.041088
    12  C   -2.629199   0.124696  -0.059899  -0.001255   0.063303  -0.149533
    13  C   16.221405  -5.705134   0.044172  -0.006011  -0.000302  -0.036939
    14  C   -5.705134  18.483899  -0.016980   0.002306  -0.006105   0.069686
    15  H    0.044172  -0.016980   0.470942  -0.005960   0.000622  -0.001266
    16  H   -0.006011   0.002306  -0.005960   0.429521  -0.001608   0.001685
    17  H   -0.000302  -0.006105   0.000622  -0.001608   0.423192  -0.006513
    18  H   -0.036939   0.069686  -0.001266   0.001685  -0.006513   0.492370
    19  H    0.156310  -0.237252   0.000157  -0.000332   0.000601  -0.015264
    20  H   -0.010915  -0.067830  -0.000078   0.000007  -0.000091   0.002016
    21  H    0.014168   0.015400  -0.000020  -0.000003   0.000008  -0.000349
    22  H    0.020928  -0.006696  -0.000087   0.000005  -0.000009   0.000088
    23  H   -0.036828   0.028235   0.000521  -0.000164   0.000060  -0.000386
    24  H    0.040775  -0.041109  -0.000157   0.000810  -0.000217   0.000561
    25  H    0.040775  -0.041109  -0.000157   0.000810  -0.000217   0.000561
              19         20         21         22         23         24
     1  C   -0.042204   0.005195  -0.001924   0.003175  -0.002808  -0.012064
     2  C   -0.015560   0.002427  -0.000141   0.000329  -0.004707   0.011244
     3  C    0.074187  -0.005930   0.000575  -0.000614   0.003194  -0.007581
     4  C   -0.029616   0.008745  -0.000558  -0.001595   0.005297  -0.017514
     5  C   -0.220203   0.576418  -0.074183   0.039506   0.003098  -0.002973
     6  C    0.045901  -0.063284   0.411775  -0.046739   0.003713  -0.000143
     7  C   -0.011395   0.007794  -0.032825   0.389661  -0.105037   0.018919
     8  C   -0.009101   0.026996  -0.008131  -0.021353   0.391699   0.049542
     9  C    0.047141  -0.003624   0.001236  -0.010429   0.060978   0.370075
    10  C    0.376109  -0.028487   0.014886  -0.022448   0.010774   0.011832
    11  C    0.094490  -0.001072  -0.007803   0.008043  -0.030502  -0.055929
    12  C    0.138630  -0.100241   0.008347  -0.021264   0.009620  -0.030115
    13  C    0.156310  -0.010915   0.014168   0.020928  -0.036828   0.040775
    14  C   -0.237252  -0.067830   0.015400  -0.006696   0.028235  -0.041109
    15  H    0.000157  -0.000078  -0.000020  -0.000087   0.000521  -0.000157
    16  H   -0.000332   0.000007  -0.000003   0.000005  -0.000164   0.000810
    17  H    0.000601  -0.000091   0.000008  -0.000009   0.000060  -0.000217
    18  H   -0.015264   0.002016  -0.000349   0.000088  -0.000386   0.000561
    19  H    0.485842  -0.009588   0.003671  -0.000832   0.001404   0.000532
    20  H   -0.009588   0.429925  -0.011897   0.002859  -0.000228   0.000059
    21  H    0.003671  -0.011897   0.409935  -0.006452   0.001932  -0.000043
    22  H   -0.000832   0.002859  -0.006452   0.392577  -0.005598   0.000555
    23  H    0.001404  -0.000228   0.001932  -0.005598   0.422249  -0.001370
    24  H    0.000532   0.000059  -0.000043   0.000555  -0.001370   0.470991
    25  H    0.000532   0.000059  -0.000043   0.000555  -0.001370  -0.065510
              25
     1  C   -0.012064
     2  C    0.011244
     3  C   -0.007581
     4  C   -0.017514
     5  C   -0.002973
     6  C   -0.000143
     7  C    0.018919
     8  C    0.049542
     9  C    0.370075
    10  C    0.011832
    11  C   -0.055929
    12  C   -0.030115
    13  C    0.040775
    14  C   -0.041109
    15  H   -0.000157
    16  H    0.000810
    17  H   -0.000217
    18  H    0.000561
    19  H    0.000532
    20  H    0.000059
    21  H   -0.000043
    22  H    0.000555
    23  H   -0.001370
    24  H   -0.065510
    25  H    0.470991
 Mulliken charges:
               1
     1  C    0.071243
     2  C   -0.457075
     3  C   -0.422831
     4  C   -0.033851
     5  C    0.051687
     6  C   -0.423982
     7  C   -0.392482
     8  C    0.036177
     9  C   -0.414515
    10  C   -0.068103
    11  C   -0.118676
    12  C    0.671312
    13  C   -0.681494
    14  C    0.557967
    15  H    0.231176
    16  H    0.234187
    17  H    0.239620
    18  H    0.200879
    19  H    0.165840
    20  H    0.240766
    21  H    0.262439
    22  H    0.285831
    23  H    0.246226
    24  H    0.258830
    25  H    0.258830
 Sum of Mulliken charges =   1.00000
 Mulliken charges with hydrogens summed into heavy atoms:
               1
     1  C    0.302419
     2  C   -0.222888
     3  C   -0.183212
     4  C    0.167028
     5  C    0.292453
     6  C   -0.161543
     7  C   -0.106651
     8  C    0.282403
     9  C    0.103145
    10  C    0.097737
    11  C   -0.118676
    12  C    0.671312
    13  C   -0.681494
    14  C    0.557967
 Electronic spatial extent (au):  <R**2>=           2865.0816
 Charge=              1.0000 electrons
 Dipole moment (field-independent basis, Debye):
    X=             -2.4253    Y=             -5.2759    Z=              0.0000  Tot=              5.8067
 Quadrupole moment (field-independent basis, Debye-Ang):
   XX=            -47.4131   YY=            -36.1616   ZZ=            -83.4614
   XY=             14.0866   XZ=             -0.0000   YZ=              0.0000
 Traceless Quadrupole moment (field-independent basis, Debye-Ang):
   XX=              8.2656   YY=             19.5171   ZZ=            -27.7827
   XY=             14.0866   XZ=             -0.0000   YZ=              0.0000
 Octapole moment (field-independent basis, Debye-Ang**2):
  XXX=            -20.5893  YYY=            -56.8266  ZZZ=             -0.0000  XYY=            -13.6752
  XXY=             -8.4368  XXZ=              0.0000  XZZ=             -2.1624  YZZ=            -10.0421
  YYZ=              0.0000  XYZ=             -0.0000
 Hexadecapole moment (field-independent basis, Debye-Ang**3):
 XXXX=          -1122.0917 YYYY=          -1701.6012 ZZZZ=            -98.0928 XXXY=           -371.7396
 XXXZ=              0.0000 YYYX=           -306.5067 YYYZ=              0.0000 ZZZX=             -0.0000
 ZZZY=             -0.0000 XXYY=           -439.2057 XXZZ=           -276.6309 YYZZ=           -456.1739
 XXYZ=              0.0000 YYXZ=             -0.0000 ZZXY=           -202.4394
 N-N= 7.843710704484D+02 E-N=-2.806054636422D+03  KE= 5.391514230491D+02
 Symmetry A'   KE= 5.241235000181D+02
 Symmetry A"   KE= 1.502792303104D+01
 Unable to Open any file for archive entry.
 1\1\GINC-GADI-CPU-CLX-0240\SP\RM062X TD-FC\6-311++G(d,p)\C14H11(1+)\TS
 1578\02-Aug-2022\0\\#n M062X/6-311++G(d,p) TD(NStates=1) EmpiricalDisp
 ersion=GD3 SP\\SP_-10\\1,1\C,0,0.,2.704655,1.404431\C,0,0.,3.901508,0.
 731989\C,0,0.,3.741861,-0.57783\C,0,0.,2.215156,-1.291538\C,0,0.,-2.71
 1156,-1.523538\C,0,0.,-3.625861,-0.84983\C,0,0.,-3.501508,0.611989\C,0
 ,0.,-2.280655,1.316431\C,0,0.,0.064,1.453369\C,0,0.,-0.266,-1.429189\C
 ,0,0.,1.196055,0.651065\C,0,0.,1.131471,-0.644804\C,0,0.,-1.328055,0.7
 03065\C,0,0.,-1.343471,-0.816804\H,0,0.,2.646071,2.487647\H,0,0.,4.864
 753,1.213689\H,0,0.,4.563262,-1.312349\H,0,0.,2.27355,-2.374059\H,0,0.
 ,-0.126,-2.510266\H,0,0.,-2.66155,-2.606059\H,0,0.,-4.655262,-1.232349
 \H,0,0.,-4.408753,1.209689\H,0,0.,-2.330071,2.399647\H,0,-0.859585,0.3
 44,2.145787\H,0,0.859585,0.344,2.145787\\Version=ES64L-G16RevC.01\Stat
 e=1-A'\HF=-539.3823762\RMSD=4.547e-09\PG=CS [SG(C14H9),X(H2)]\\@
 The archive entry for this job was punched.


 THERE IS NO CURE FOR BIRTH AND DEATH SAVE TO ENJOY THE INTERVAL.

                               -- GEORGE SANTAYANA
 Job cpu time:       0 days  0 hours 54 minutes 49.2 seconds.
 Elapsed time:       0 days  0 hours  1 minutes  8.7 seconds.
 File lengths (MBytes):  RWF=    460 Int=      0 D2E=      0 Chk=     15 Scr=      1
 Normal termination of Gaussian 16 at Tue Aug  2 12:02:22 2022.
