 Entering Gaussian System, Link 0=g16
 Initial command:
 /apps/gaussian/g16c01/g16/l1.exe "/jobfs/53803565.gadi-pbs/Gau-1056521.inp" -scrdir="/jobfs/53803565.gadi-pbs/"
 Entering Link 1 = /apps/gaussian/g16c01/g16/l1.exe PID=   1056522.
  
 Copyright (c) 1988-2019, Gaussian, Inc.  All Rights Reserved.
  
 This is part of the Gaussian(R) 16 program.  It is based on
 the Gaussian(R) 09 system (copyright 2009, Gaussian, Inc.),
 the Gaussian(R) 03 system (copyright 2003, Gaussian, Inc.),
 the Gaussian(R) 98 system (copyright 1998, Gaussian, Inc.),
 the Gaussian(R) 94 system (copyright 1995, Gaussian, Inc.),
 the Gaussian 92(TM) system (copyright 1992, Gaussian, Inc.),
 the Gaussian 90(TM) system (copyright 1990, Gaussian, Inc.),
 the Gaussian 88(TM) system (copyright 1988, Gaussian, Inc.),
 the Gaussian 86(TM) system (copyright 1986, Carnegie Mellon
 University), and the Gaussian 82(TM) system (copyright 1983,
 Carnegie Mellon University). Gaussian is a federally registered
 trademark of Gaussian, Inc.
  
 This software contains proprietary and confidential information,
 including trade secrets, belonging to Gaussian, Inc.
  
 This software is provided under written license and may be
 used, copied, transmitted, or stored only in accord with that
 written license.
  
 The following legend is applicable only to US Government
 contracts under FAR:
  
                    RESTRICTED RIGHTS LEGEND
  
 Use, reproduction and disclosure by the US Government is
 subject to restrictions as set forth in subparagraphs (a)
 and (c) of the Commercial Computer Software - Restricted
 Rights clause in FAR 52.227-19.
  
 Gaussian, Inc.
 340 Quinnipiac St., Bldg. 40, Wallingford CT 06492
  
  
 ---------------------------------------------------------------
 Warning -- This program may not be used in any manner that
 competes with the business of Gaussian, Inc. or will provide
 assistance to any competitor of Gaussian, Inc.  The licensee
 of this program is prohibited from giving any competitor of
 Gaussian, Inc. access to this program.  By using this program,
 the user acknowledges that Gaussian, Inc. is engaged in the
 business of creating and licensing software in the field of
 computational chemistry and represents and warrants to the
 licensee that it is not a competitor of Gaussian, Inc. and that
 it will not use this program in any manner prohibited above.
 ---------------------------------------------------------------
  

 Cite this work as:
 Gaussian 16, Revision C.01,
 M. J. Frisch, G. W. Trucks, H. B. Schlegel, G. E. Scuseria, 
 M. A. Robb, J. R. Cheeseman, G. Scalmani, V. Barone, 
 G. A. Petersson, H. Nakatsuji, X. Li, M. Caricato, A. V. Marenich, 
 J. Bloino, B. G. Janesko, R. Gomperts, B. Mennucci, H. P. Hratchian, 
 J. V. Ortiz, A. F. Izmaylov, J. L. Sonnenberg, D. Williams-Young, 
 F. Ding, F. Lipparini, F. Egidi, J. Goings, B. Peng, A. Petrone, 
 T. Henderson, D. Ranasinghe, V. G. Zakrzewski, J. Gao, N. Rega, 
 G. Zheng, W. Liang, M. Hada, M. Ehara, K. Toyota, R. Fukuda, 
 J. Hasegawa, M. Ishida, T. Nakajima, Y. Honda, O. Kitao, H. Nakai, 
 T. Vreven, K. Throssell, J. A. Montgomery, Jr., J. E. Peralta, 
 F. Ogliaro, M. J. Bearpark, J. J. Heyd, E. N. Brothers, K. N. Kudin, 
 V. N. Staroverov, T. A. Keith, R. Kobayashi, J. Normand, 
 K. Raghavachari, A. P. Rendell, J. C. Burant, S. S. Iyengar, 
 J. Tomasi, M. Cossi, J. M. Millam, M. Klene, C. Adamo, R. Cammi, 
 J. W. Ochterski, R. L. Martin, K. Morokuma, O. Farkas, 
 J. B. Foresman, and D. J. Fox, Gaussian, Inc., Wallingford CT, 2019.
 
 ******************************************
 Gaussian 16:  ES64L-G16RevC.01  3-Jul-2019
                 2-Aug-2022 
 ******************************************
 %NProcShared=48
 Will use up to   48 processors via shared memory.
 %mem = 190GB
 ---------------------------------------------------------------
 #n M062X/6-311++G(d,p) TD(NStates=1) EmpiricalDispersion=GD3 SP
 ---------------------------------------------------------------
 1/38=1,172=1/1;
 2/12=2,17=6,18=5,40=1/2;
 3/5=4,6=6,7=1111,11=9,25=1,30=1,74=-55,124=31/1,2,3,8;
 4//1;
 5/5=2,38=5/2;
 8/6=1,10=2,108=1/1;
 9/41=1,42=1,70=2/14;
 6/7=2,8=2,9=2,10=2/1;
 99/5=1,9=1/99;
 ----
 SP_6
 ----
 Symbolic Z-matrix:
 Charge =  1 Multiplicity = 1
 C                     0.        2.34466   1.31643 
 C                     0.        3.57351   0.64399 
 C                     0.        3.66186  -0.78583 
 C                     0.        2.63116  -1.49154 
 C                     0.       -2.29516  -1.32354 
 C                     0.       -3.70586  -0.64183 
 C                     0.       -3.82951   0.69999 
 C                     0.       -2.64066   1.40443 
 C                     0.       -0.032     1.45337 
 C                     0.        0.15     -1.42919 
 C                     0.        1.29206   0.65907 
 C                     0.        1.30747  -0.8128 
 C                     0.       -1.23206   0.69507 
 C                     0.       -1.16747  -0.6488 
 H                     0.        2.35007   2.39965 
 H                     0.        4.48075   1.23769 
 H                     0.        4.65926  -1.22435 
 H                     0.        2.62555  -2.57406 
 H                     0.        0.026    -2.51027 
 H                     0.       -2.30955  -2.40606 
 H                     0.       -4.55926  -1.32035 
 H                     0.       -4.79275   1.18569 
 H                     0.       -2.62607   2.48765 
 H                    -0.85959  -0.168     2.14579 
 H                     0.85959  -0.168     2.14579 
 
                          Input orientation:                          
 ---------------------------------------------------------------------
 Center     Atomic      Atomic             Coordinates (Angstroms)
 Number     Number       Type             X           Y           Z
 ---------------------------------------------------------------------
      1          6           0        0.000000    2.344655    1.316431
      2          6           0        0.000000    3.573508    0.643989
      3          6           0        0.000000    3.661861   -0.785830
      4          6           0        0.000000    2.631156   -1.491538
      5          6           0        0.000000   -2.295156   -1.323538
      6          6           0        0.000000   -3.705861   -0.641830
      7          6           0        0.000000   -3.829508    0.699989
      8          6           0        0.000000   -2.640655    1.404431
      9          6           0        0.000000   -0.032000    1.453369
     10          6           0        0.000000    0.150000   -1.429189
     11          6           0        0.000000    1.292055    0.659065
     12          6           0        0.000000    1.307471   -0.812804
     13          6           0        0.000000   -1.232055    0.695065
     14          6           0        0.000000   -1.167471   -0.648804
     15          1           0        0.000000    2.350071    2.399647
     16          1           0        0.000000    4.480753    1.237689
     17          1           0        0.000000    4.659262   -1.224349
     18          1           0        0.000000    2.625550   -2.574059
     19          1           0        0.000000    0.026000   -2.510266
     20          1           0        0.000000   -2.309550   -2.406059
     21          1           0        0.000000   -4.559262   -1.320349
     22          1           0        0.000000   -4.792753    1.185689
     23          1           0        0.000000   -2.626071    2.487647
     24          1           0       -0.859585   -0.168000    2.145787
     25          1           0        0.859585   -0.168000    2.145787
 ---------------------------------------------------------------------
                    Distance matrix (angstroms):
                    1          2          3          4          5
     1  C    0.000000
     2  C    1.400806   0.000000
     3  C    2.480833   1.432546   0.000000
     4  C    2.822547   2.334203   1.249150   0.000000
     5  C    5.338285   6.189699   5.981236   4.929176   0.000000
     6  C    6.359523   7.392059   7.369129   6.393730   1.566785
     7  C    6.204860   7.403228   7.637295   6.822241   2.539468
     8  C    4.986087   6.260519   6.672252   6.014867   2.749761
     9  C    2.380597   3.695238   4.319563   3.970501   3.582330
    10  C    3.514959   4.002309   3.570305   2.481939   2.447437
    11  C    1.241006   2.281503   2.775554   2.533433   4.098634
    12  C    2.368416   2.693913   2.354545   1.487556   3.638650
    13  C    3.630282   4.805834   5.113068   4.439103   2.281434
    14  C    4.024572   4.914081   4.831276   3.890985   1.314131
    15  H    1.083230   2.139891   3.445005   3.901324   5.953171
    16  H    2.137549   1.084239   2.182937   3.296921   7.243813
    17  H    3.437000   2.160914   1.089545   2.045630   6.955125
    18  H    3.900617   3.354766   2.066810   1.082536   5.077120
    19  H    4.474346   4.747014   4.024073   2.797257   2.606931
    20  H    5.959745   6.626701   6.187317   5.024632   1.082617
    21  H    7.390310   8.366634   8.238481   7.192456   2.264108
    22  H    7.138605   8.383780   8.681439   7.891893   3.540369
    23  H    5.106845   6.467910   7.088987   6.593356   3.825524
    24  H    2.782113   4.122277   4.899092   4.669507   4.159314
    25  H    2.782113   4.122277   4.899092   4.669507   4.159314
                    6          7          8          9         10
     6  C    0.000000
     7  C    1.347504   0.000000
     8  C    2.306913   1.381886   0.000000
     9  C    4.229316   3.871518   2.609114   0.000000
    10  C    3.935429   4.513301   3.977079   2.888298   0.000000
    11  C    5.164445   5.121726   4.002721   1.544034   2.380146
    12  C    5.016247   5.355100   4.528115   2.632437   1.311362
    13  C    2.811940   2.597458   1.577135   1.419562   2.534271
    14  C    2.538400   2.984239   2.527063   2.389231   1.531251
    15  H    6.776791   6.409059   5.088988   2.563143   4.415914
    16  H    8.399598   8.327638   7.123360   4.517904   5.086026
    17  H    8.385381   8.704154   7.758819   5.401677   4.513912
    18  H    6.619688   7.237898   6.600098   4.825220   2.727467
    19  H    4.173469   5.017039   4.736655   3.964059   1.088165
    20  H    2.249931   3.458006   3.824848   4.481341   2.646443
    21  H    1.090267   2.148094   3.332488   5.309389   4.710520
    22  H    2.126302   1.078770   2.163186   4.768272   5.591815
    23  H    3.310525   2.154990   1.083314   2.792657   4.800851
    24  H    4.585429   4.029375   2.720757   1.112126   3.690591
    25  H    4.585429   4.029375   2.720757   1.112126   3.690591
                   11         12         13         14         15
    11  C    0.000000
    12  C    1.471950   0.000000
    13  C    2.524367   2.953449   0.000000
    14  C    2.785640   2.480370   1.345420   0.000000
    15  H    2.036915   3.377404   3.967017   4.654692   0.000000
    16  H    3.240772   3.778127   5.738520   5.954938   2.426922
    17  H    3.858151   3.376962   6.196109   5.855089   4.297175
    18  H    3.497328   2.199853   5.056509   4.253659   4.981329
    19  H    3.412851   2.126863   3.443378   2.211202   5.432177
    20  H    4.729328   3.952379   3.282981   2.095779   6.693794
    21  H    6.177054   5.888647   3.890013   3.457632   7.847117
    22  H    6.107554   6.419245   3.594340   4.063008   7.245249
    23  H    4.323820   5.134757   2.270822   3.459023   4.976920
    24  H    2.254105   3.416015   1.993914   3.089914   2.672829
    25  H    2.254105   3.416015   1.993914   3.089914   2.672829
                   16         17         18         19         20
    16  H    0.000000
    17  H    2.468501   0.000000
    18  H    4.239245   2.440840   0.000000
    19  H    5.821683   4.808399   2.600333   0.000000
    20  H    7.706174   7.068294   4.937959   2.337874   0.000000
    21  H    9.394968   9.219024   7.293375   4.737144   2.497993
    22  H    9.273652   9.754428   8.316665   6.072929   4.366572
    23  H    7.215909   8.176490   7.293860   5.657969   4.903931
    24  H    4.813983   5.949719   5.551554   4.738708   5.103374
    25  H    4.813983   5.949719   5.551554   4.738708   5.103374
                   21         22         23         24         25
    21  H    0.000000
    22  H    2.516892   0.000000
    23  H    4.270604   2.527767   0.000000
    24  H    5.660050   4.800939   2.626379   0.000000
    25  H    5.660050   4.800939   2.626379   1.719170   0.000000
 Stoichiometry    C14H11(1+)
 Framework group  CS[SG(C14H9),X(H2)]
 Deg. of freedom    46
 Full point group                 CS      NOp   2
 Largest Abelian subgroup         CS      NOp   2
 Largest concise Abelian subgroup CS      NOp   2
                         Standard orientation:                         
 ---------------------------------------------------------------------
 Center     Atomic      Atomic             Coordinates (Angstroms)
 Number     Number       Type             X           Y           Z
 ---------------------------------------------------------------------
      1          6           0       -0.009668   -2.690153    0.000000
      2          6           0        1.175421   -3.437026    0.000000
      3          6           0        2.467815   -2.819039    0.000000
      4          6           0        2.583351   -1.575243    0.000000
      5          6           0        0.041317    2.647889    0.000000
      6          6           0       -1.240288    3.549167    0.000000
      7          6           0       -2.472943    3.004807    0.000000
      8          6           0       -2.510480    1.623431    0.000000
      9          6           0       -1.284887   -0.679914    0.000000
     10          6           0        1.322502    0.562579    0.000000
     11          6           0        0.052979   -1.450728    0.000000
     12          6           0        1.346655   -0.748560    0.000000
     13          6           0       -1.205730    0.737440    0.000000
     14          6           0        0.000000    1.334408    0.000000
     15          1           0       -0.953594   -3.221557    0.000000
     16          1           0        1.097735   -4.518478    0.000000
     17          1           0        3.335958   -3.477396    0.000000
     18          1           0        3.526577   -1.044010    0.000000
     19          1           0        2.206901    1.196567    0.000000
     20          1           0        0.980270    3.186801    0.000000
     21          1           0       -1.062303    4.624807    0.000000
     22          1           0       -3.365709    3.610378    0.000000
     23          1           0       -3.449948    1.084015    0.000000
     24          1           0       -1.956075   -0.897733    0.859585
     25          1           0       -1.956075   -0.897733   -0.859585
 ---------------------------------------------------------------------
 Rotational constants (GHZ):           2.1458843           0.4431272           0.3680797
 Standard basis: 6-311++G(d,p) (5D, 7F)
 There are   299 symmetry adapted cartesian basis functions of A'  symmetry.
 There are   100 symmetry adapted cartesian basis functions of A"  symmetry.
 There are   285 symmetry adapted basis functions of A'  symmetry.
 There are   100 symmetry adapted basis functions of A"  symmetry.
   385 basis functions,   603 primitive gaussians,   399 cartesian basis functions
    47 alpha electrons       47 beta electrons
       nuclear repulsion energy       782.1991797734 Hartrees.
 NAtoms=   25 NActive=   25 NUniq=   24 SFac= 1.09D+00 NAtFMM=   60 NAOKFM=F Big=F
 Integral buffers will be    131072 words long.
 Regular integral format.
 Two-electron integral symmetry is turned on.
 Nuclear repulsion after empirical dispersion term =      782.1982057849 Hartrees.
 One-electron integrals computed using PRISM.
 NBasis=   385 RedAO= T EigKep=  1.18D-06  NBF=   285   100
 NBsUse=   379 1.00D-06 EigRej=  8.04D-07 NBFU=   279   100
 ExpMin= 3.60D-02 ExpMax= 4.56D+03 ExpMxC= 6.82D+02 IAcc=3 IRadAn=         5 AccDes= 0.00D+00
 Harris functional with IExCor= 1009 and IRadAn=       5 diagonalized for initial guess.
 HarFok:  IExCor= 1009 AccDes= 0.00D+00 IRadAn=         5 IDoV= 1 UseB2=F ITyADJ=14
 ICtDFT=  3500011 ScaDFX=  1.000000  1.000000  1.000000  1.000000
 FoFCou: FMM=F IPFlag=           0 FMFlag=      100000 FMFlg1=           0
         NFxFlg=           0 DoJE=T BraDBF=F KetDBF=T FulRan=T
         wScrn=  0.000000 ICntrl=       500 IOpCl=  0 I1Cent=   200000004 NGrid=           0
         NMat0=    1 NMatS0=      1 NMatT0=    0 NMatD0=    1 NMtDS0=    0 NMtDT0=    0
 Petite list used in FoFCou.
 Initial guess orbital symmetries:
       Occupied  (A') (A') (A') (A') (A') (A') (A') (A') (A') (A')
                 (A') (A') (A') (A') (A') (A') (A') (A') (A') (A')
                 (A') (A') (A') (A') (A') (A') (A') (A') (A') (A')
                 (A') (A') (A") (A') (A') (A') (A') (A") (A') (A')
                 (A") (A') (A') (A") (A") (A") (A")
       Virtual   (A") (A") (A") (A") (A") (A') (A') (A') (A') (A")
                 (A') (A") (A') (A') (A') (A") (A') (A') (A') (A')
                 (A') (A") (A') (A") (A') (A') (A") (A') (A") (A')
                 (A') (A') (A') (A') (A") (A') (A') (A') (A") (A')
                 (A") (A') (A') (A") (A') (A') (A') (A') (A') (A")
                 (A') (A") (A') (A") (A') (A') (A') (A") (A') (A")
                 (A') (A') (A') (A') (A') (A") (A') (A') (A') (A")
                 (A') (A') (A') (A') (A') (A') (A') (A') (A') (A')
                 (A') (A') (A') (A') (A') (A') (A') (A') (A') (A')
                 (A') (A') (A') (A') (A') (A") (A') (A') (A") (A')
                 (A') (A") (A") (A') (A') (A") (A") (A') (A") (A')
                 (A") (A') (A") (A') (A') (A") (A') (A') (A") (A")
                 (A") (A') (A') (A') (A') (A") (A') (A") (A') (A')
                 (A') (A') (A') (A') (A') (A') (A") (A') (A') (A')
                 (A') (A') (A') (A') (A') (A') (A') (A") (A') (A')
                 (A") (A') (A') (A") (A') (A") (A") (A') (A') (A")
                 (A") (A') (A") (A') (A") (A") (A') (A') (A') (A')
                 (A") (A') (A') (A') (A') (A') (A") (A') (A') (A')
                 (A") (A') (A") (A') (A") (A') (A") (A') (A") (A')
                 (A") (A') (A') (A') (A") (A') (A") (A') (A') (A')
                 (A") (A") (A") (A') (A') (A") (A') (A") (A') (A")
                 (A') (A') (A') (A") (A') (A") (A') (A") (A') (A')
                 (A") (A') (A') (A') (A") (A') (A') (A') (A") (A')
                 (A") (A') (A') (A") (A') (A') (A") (A') (A") (A')
                 (A") (A') (A') (A') (A") (A') (A') (A') (A') (A")
                 (A') (A') (A') (A") (A") (A') (A") (A') (A') (A')
                 (A') (A") (A') (A") (A') (A') (A') (A") (A') (A')
                 (A") (A') (A') (A') (A") (A") (A') (A') (A") (A")
                 (A') (A') (A") (A') (A") (A") (A') (A') (A') (A')
                 (A') (A') (A') (A') (A') (A') (A') (A') (A') (A')
                 (A') (A') (A') (A") (A') (A') (A') (A') (A') (A')
                 (A') (A') (A') (A') (A') (A') (A') (A') (A') (A')
                 (A') (A') (A') (A') (A') (A') (A') (A') (A') (A')
                 (A') (A')
 The electronic state of the initial guess is 1-A'.
 Requested convergence on RMS density matrix=1.00D-08 within 128 cycles.
 Requested convergence on MAX density matrix=1.00D-06.
 Requested convergence on             energy=1.00D-06.
 No special actions if energy rises.
 SCF Done:  E(RM062X) =  -539.634601215     A.U. after   16 cycles
            NFock= 16  Conv=0.35D-08     -V/T= 2.0029
 DoSCS=F DFT=T ScalE2(SS,OS)=  1.000000  1.000000
 ExpMin= 3.60D-02 ExpMax= 4.56D+03 ExpMxC= 6.82D+02 IAcc=3 IRadAn=         5 AccDes= 0.00D+00
 HarFok:  IExCor=  205 AccDes= 0.00D+00 IRadAn=         5 IDoV=-2 UseB2=F ITyADJ=14
 ICtDFT= 12500011 ScaDFX=  1.000000  1.000000  1.000000  1.000000
 Range of M.O.s used for correlation:    15   379
 NBasis=   385 NAE=    47 NBE=    47 NFC=    14 NFV=     0
 NROrb=    365 NOA=    33 NOB=    33 NVA=   332 NVB=   332

 **** Warning!!: The largest alpha MO coefficient is  0.17806040D+03

 Orbital symmetries:
       Occupied  (A') (A') (A') (A') (A') (A') (A') (A') (A') (A')
                 (A') (A') (A') (A') (A') (A') (A') (A') (A') (A')
                 (A') (A') (A') (A') (A') (A') (A') (A') (A') (A')
                 (A') (A") (A') (A') (A') (A") (A') (A') (A') (A")
                 (A') (A') (A") (A') (A") (A") (A")
       Virtual   (A") (A") (A") (A") (A') (A') (A') (A') (A") (A')
                 (A') (A") (A') (A") (A') (A') (A") (A') (A') (A')
                 (A") (A") (A') (A') (A') (A") (A') (A') (A") (A')
                 (A") (A') (A') (A') (A") (A') (A') (A') (A") (A')
                 (A") (A') (A') (A") (A") (A') (A") (A') (A') (A')
                 (A') (A") (A') (A') (A') (A") (A') (A') (A') (A')
                 (A") (A') (A') (A') (A') (A') (A") (A') (A') (A')
                 (A') (A') (A') (A') (A') (A') (A') (A') (A') (A')
                 (A') (A') (A') (A') (A') (A') (A') (A') (A') (A')
                 (A') (A') (A') (A") (A') (A") (A') (A") (A') (A')
                 (A") (A') (A') (A') (A") (A') (A") (A") (A') (A')
                 (A") (A') (A") (A') (A") (A') (A") (A') (A') (A")
                 (A") (A') (A') (A") (A") (A') (A') (A') (A') (A')
                 (A') (A') (A') (A') (A') (A') (A') (A') (A') (A')
                 (A') (A') (A') (A') (A") (A') (A') (A') (A') (A')
                 (A") (A') (A') (A") (A') (A') (A") (A") (A') (A")
                 (A') (A") (A") (A') (A') (A") (A") (A") (A') (A')
                 (A') (A") (A') (A') (A') (A') (A") (A') (A") (A')
                 (A') (A') (A') (A") (A") (A') (A") (A') (A") (A")
                 (A') (A') (A') (A") (A') (A") (A') (A') (A') (A")
                 (A') (A") (A") (A') (A") (A') (A') (A") (A') (A')
                 (A') (A") (A') (A") (A') (A") (A') (A') (A") (A")
                 (A') (A') (A') (A') (A") (A') (A') (A') (A") (A")
                 (A') (A') (A') (A") (A') (A') (A") (A') (A") (A')
                 (A") (A') (A') (A") (A') (A') (A') (A') (A') (A')
                 (A") (A') (A') (A') (A') (A") (A") (A') (A') (A")
                 (A') (A') (A') (A') (A') (A") (A') (A') (A') (A')
                 (A') (A") (A') (A") (A") (A') (A") (A") (A') (A")
                 (A') (A") (A") (A') (A") (A') (A") (A') (A') (A')
                 (A') (A') (A') (A') (A') (A') (A') (A') (A') (A')
                 (A') (A') (A') (A") (A') (A') (A') (A') (A') (A')
                 (A') (A') (A') (A') (A') (A') (A') (A') (A') (A')
                 (A') (A') (A') (A') (A') (A') (A') (A') (A') (A')
                 (A') (A')
     4 initial guesses have been made.
 Convergence on wavefunction:    0.001000000000000
 Iteration     1 Dimension     4 NMult     0 NNew      4
 CISAX will form     4 AO SS matrices at one time.
 Iteration     2 Dimension     6 NMult     4 NNew      2
 Iteration     3 Dimension     8 NMult     6 NNew      2
 Iteration     4 Dimension    10 NMult     8 NNew      2
 Iteration     5 Dimension    12 NMult    10 NNew      2
 Iteration     6 Dimension    14 NMult    12 NNew      2
 ***********************************************************************
 Excited states from <AA,BB:AA,BB> singles matrix:
 ***********************************************************************
 
 Ground to excited state transition densities written to RWF  633
 Ground to excited state transition electric dipole moments (Au):
       state          X           Y           Z        Dip. S.      Osc.
         1        -0.5223      0.2206      0.0000      0.3215      0.0139
 Ground to excited state transition velocity dipole moments (Au):
       state          X           Y           Z        Dip. S.      Osc.
         1         0.0358     -0.0077     -0.0000      0.0013      0.0137
 Ground to excited state transition magnetic dipole moments (Au):
       state          X           Y           Z
         1         0.0000      0.0000      0.0906
 Ground to excited state transition velocity quadrupole moments (Au):
       state          XX          YY          ZZ          XY          XZ          YZ
         1        -0.0211      0.1194     -0.0046     -0.0230      0.0000     -0.0000
 <0|del|b> * <b|rxdel|0> + <0|del|b> * <b|delr+rdel|0>
 Rotatory Strengths (R) in cgs (10**-40 erg-esu-cm/Gauss)
       state          XX          YY          ZZ    R(velocity)    E-M Angle
         1         0.0000     -0.0000      0.0000     -0.0000       90.00
 1/2[<0|r|b>*<b|rxdel|0> + (<0|rxdel|b>*<b|r|0>)*]
 Rotatory Strengths (R) in cgs (10**-40 erg-esu-cm/Gauss)
       state          XX          YY          ZZ     R(length)
         1         0.0000     -0.0000     -0.0000     -0.0000
  1/2[<0|del|b>*<b|r|0> + (<0|r|b>*<b|del|0>)*] (Au)
       state          X           Y           Z        Dip. S.   Osc.(frdel)
         1        -0.0187     -0.0017     -0.0000      0.0204      0.0136

 Excitation energies and oscillator strengths:
 
 Excited State   1:      Singlet-A'     1.7711 eV  700.02 nm  f=0.0139  <S**2>=0.000
      47 -> 48         0.70341
 This state for optimization and/or second-order correction.
 Total Energy, E(TD-HF/TD-DFT) =  -539.569512844    
 Copying the excited state density for this state as the 1-particle RhoCI density.
 SavETr:  write IOETrn=   770 NScale= 10 NData=  16 NLR=1 NState=    1 LETran=      28.

 **********************************************************************

            Population analysis using the SCF Density.

 **********************************************************************

 Orbital symmetries:
       Occupied  (A') (A') (A') (A') (A') (A') (A') (A') (A') (A')
                 (A') (A') (A') (A') (A') (A') (A') (A') (A') (A')
                 (A') (A') (A') (A') (A') (A') (A') (A') (A') (A')
                 (A') (A") (A') (A') (A') (A") (A') (A') (A') (A")
                 (A') (A') (A") (A') (A") (A") (A")
       Virtual   (A") (A") (A") (A") (A') (A') (A') (A') (A") (A')
                 (A') (A") (A') (A") (A') (A') (A") (A') (A') (A')
                 (A") (A") (A') (A') (A') (A") (A') (A') (A") (A')
                 (A") (A') (A') (A') (A") (A') (A') (A') (A") (A')
                 (A") (A') (A') (A") (A") (A') (A") (A') (A') (A')
                 (A') (A") (A') (A') (A') (A") (A') (A') (A') (A')
                 (A") (A') (A') (A') (A') (A') (A") (A') (A') (A')
                 (A') (A') (A') (A') (A') (A') (A') (A') (A') (A')
                 (A') (A') (A') (A') (A') (A') (A') (A') (A') (A')
                 (A') (A') (A') (A") (A') (A") (A') (A") (A') (A')
                 (A") (A') (A') (A') (A") (A') (A") (A") (A') (A')
                 (A") (A') (A") (A') (A") (A') (A") (A') (A') (A")
                 (A") (A') (A') (A") (A") (A') (A') (A') (A') (A')
                 (A') (A') (A') (A') (A') (A') (A') (A') (A') (A')
                 (A') (A') (A') (A') (A") (A') (A') (A') (A') (A')
                 (A") (A') (A') (A") (A') (A') (A") (A") (A') (A")
                 (A') (A") (A") (A') (A') (A") (A") (A") (A') (A')
                 (A') (A") (A') (A') (A') (A') (A") (A') (A") (A')
                 (A') (A') (A') (A") (A") (A') (A") (A') (A") (A")
                 (A') (A') (A') (A") (A') (A") (A') (A') (A') (A")
                 (A') (A") (A") (A') (A") (A') (A') (A") (A') (A')
                 (A') (A") (A') (A") (A') (A") (A') (A') (A") (A")
                 (A') (A') (A') (A') (A") (A') (A') (A') (A") (A")
                 (A') (A') (A') (A") (A') (A') (A") (A') (A") (A')
                 (A") (A') (A') (A") (A') (A') (A') (A') (A') (A')
                 (A") (A') (A') (A') (A') (A") (A") (A') (A') (A")
                 (A') (A') (A') (A') (A') (A") (A') (A') (A') (A')
                 (A') (A") (A') (A") (A") (A') (A") (A") (A') (A")
                 (A') (A") (A") (A') (A") (A') (A") (A') (A') (A')
                 (A') (A') (A') (A') (A') (A') (A') (A') (A') (A')
                 (A') (A') (A') (A") (A') (A') (A') (A') (A') (A')
                 (A') (A') (A') (A') (A') (A') (A') (A') (A') (A')
                 (A') (A') (A') (A') (A') (A') (A') (A') (A') (A')
                 (A') (A')
 The electronic state is 1-A'.
 Alpha  occ. eigenvalues --  -10.76197 -10.75655 -10.74566 -10.73515 -10.72924
 Alpha  occ. eigenvalues --  -10.71099 -10.70863 -10.70747 -10.70370 -10.69862
 Alpha  occ. eigenvalues --  -10.69450 -10.68867 -10.68473 -10.67643  -1.18100
 Alpha  occ. eigenvalues --   -1.12607  -1.08151  -1.06678  -1.02151  -1.00984
 Alpha  occ. eigenvalues --   -0.94851  -0.90171  -0.86678  -0.85400  -0.83336
 Alpha  occ. eigenvalues --   -0.77607  -0.77085  -0.74232  -0.71392  -0.69026
 Alpha  occ. eigenvalues --   -0.68612  -0.68257  -0.67245  -0.66082  -0.63783
 Alpha  occ. eigenvalues --   -0.62275  -0.61833  -0.61256  -0.58201  -0.57955
 Alpha  occ. eigenvalues --   -0.56214  -0.55344  -0.52446  -0.51735  -0.51513
 Alpha  occ. eigenvalues --   -0.46423  -0.39975
 Alpha virt. eigenvalues --   -0.26516  -0.14848  -0.13435  -0.12133  -0.11392
 Alpha virt. eigenvalues --   -0.10184  -0.09571  -0.07814  -0.07611  -0.07607
 Alpha virt. eigenvalues --   -0.07285  -0.06771  -0.05732  -0.05557  -0.05500
 Alpha virt. eigenvalues --   -0.04092  -0.03863  -0.03239  -0.03147  -0.02073
 Alpha virt. eigenvalues --   -0.01315  -0.01052   0.00075   0.00265   0.00701
 Alpha virt. eigenvalues --    0.01186   0.01303   0.01444   0.01909   0.02089
 Alpha virt. eigenvalues --    0.02540   0.02705   0.02914   0.03324   0.03393
 Alpha virt. eigenvalues --    0.03948   0.04377   0.04941   0.05261   0.05603
 Alpha virt. eigenvalues --    0.05905   0.06155   0.06313   0.07276   0.07380
 Alpha virt. eigenvalues --    0.07409   0.07747   0.07792   0.08351   0.08579
 Alpha virt. eigenvalues --    0.09088   0.09447   0.09814   0.09917   0.10684
 Alpha virt. eigenvalues --    0.11259   0.11431   0.11762   0.12373   0.12835
 Alpha virt. eigenvalues --    0.13249   0.13429   0.13591   0.14004   0.14488
 Alpha virt. eigenvalues --    0.15717   0.16602   0.16759   0.17113   0.17380
 Alpha virt. eigenvalues --    0.18284   0.19066   0.19314   0.19921   0.20817
 Alpha virt. eigenvalues --    0.21412   0.22180   0.22604   0.23421   0.24138
 Alpha virt. eigenvalues --    0.24410   0.25188   0.26070   0.27306   0.27469
 Alpha virt. eigenvalues --    0.29036   0.29851   0.31080   0.31329   0.35498
 Alpha virt. eigenvalues --    0.38116   0.38220   0.39036   0.39636   0.40238
 Alpha virt. eigenvalues --    0.40818   0.41667   0.43094   0.43751   0.44709
 Alpha virt. eigenvalues --    0.44968   0.45070   0.45590   0.46863   0.46951
 Alpha virt. eigenvalues --    0.47688   0.47744   0.48938   0.50468   0.50976
 Alpha virt. eigenvalues --    0.51440   0.52015   0.52578   0.53427   0.54423
 Alpha virt. eigenvalues --    0.54780   0.55370   0.56009   0.58060   0.58128
 Alpha virt. eigenvalues --    0.58379   0.61572   0.61998   0.62228   0.62948
 Alpha virt. eigenvalues --    0.63074   0.63866   0.65026   0.65968   0.68521
 Alpha virt. eigenvalues --    0.70491   0.70617   0.72235   0.73303   0.74006
 Alpha virt. eigenvalues --    0.74647   0.75419   0.76317   0.77139   0.77889
 Alpha virt. eigenvalues --    0.78308   0.78948   0.79070   0.79981   0.80448
 Alpha virt. eigenvalues --    0.81717   0.82597   0.83753   0.84403   0.85120
 Alpha virt. eigenvalues --    0.85456   0.87673   0.88889   0.91195   0.91282
 Alpha virt. eigenvalues --    0.92236   0.93817   0.94749   0.95270   0.96323
 Alpha virt. eigenvalues --    0.97457   0.98706   1.01009   1.01614   1.02324
 Alpha virt. eigenvalues --    1.04048   1.04698   1.06259   1.06550   1.10221
 Alpha virt. eigenvalues --    1.18599   1.18938   1.20397   1.22867   1.30271
 Alpha virt. eigenvalues --    1.31456   1.33871   1.34165   1.35439   1.36652
 Alpha virt. eigenvalues --    1.37783   1.38339   1.40757   1.41955   1.42262
 Alpha virt. eigenvalues --    1.43645   1.45825   1.46061   1.46985   1.48477
 Alpha virt. eigenvalues --    1.49931   1.51458   1.52857   1.54651   1.55914
 Alpha virt. eigenvalues --    1.56208   1.56621   1.57630   1.58225   1.60681
 Alpha virt. eigenvalues --    1.62598   1.63796   1.65407   1.66410   1.67805
 Alpha virt. eigenvalues --    1.68936   1.69276   1.70497   1.75010   1.75394
 Alpha virt. eigenvalues --    1.77141   1.77182   1.77912   1.80776   1.81468
 Alpha virt. eigenvalues --    1.82293   1.83224   1.83680   1.84025   1.85200
 Alpha virt. eigenvalues --    1.85234   1.86291   1.88372   1.89579   1.92718
 Alpha virt. eigenvalues --    1.93693   1.95369   1.97686   1.98550   1.99826
 Alpha virt. eigenvalues --    2.00989   2.02835   2.06858   2.08148   2.11700
 Alpha virt. eigenvalues --    2.13461   2.15831   2.16192   2.19392   2.22039
 Alpha virt. eigenvalues --    2.22638   2.28042   2.31147   2.32587   2.33021
 Alpha virt. eigenvalues --    2.36416   2.38718   2.39719   2.42012   2.42841
 Alpha virt. eigenvalues --    2.45449   2.46335   2.49207   2.53158   2.54855
 Alpha virt. eigenvalues --    2.55312   2.57402   2.58140   2.59171   2.59385
 Alpha virt. eigenvalues --    2.59607   2.60986   2.62066   2.63028   2.64187
 Alpha virt. eigenvalues --    2.64944   2.65206   2.65685   2.66735   2.67246
 Alpha virt. eigenvalues --    2.69245   2.70216   2.70699   2.73886   2.75066
 Alpha virt. eigenvalues --    2.75170   2.76094   2.79034   2.84563   2.84760
 Alpha virt. eigenvalues --    2.86063   2.86741   2.92529   2.95624   2.99092
 Alpha virt. eigenvalues --    3.00442   3.00890   3.03661   3.06943   3.11386
 Alpha virt. eigenvalues --    3.14659   3.16956   3.23812   3.30098   3.31912
 Alpha virt. eigenvalues --    3.35043   3.37284   3.42984   3.47724   3.52156
 Alpha virt. eigenvalues --    3.54057   3.56623   3.59468   3.65058   3.70562
 Alpha virt. eigenvalues --    3.72726   3.89703   3.89949   3.91496   3.96425
 Alpha virt. eigenvalues --    4.02389   4.02924   4.08090   4.11297   4.31146
 Alpha virt. eigenvalues --    4.52798   4.60746   4.63059  23.43168  23.54493
 Alpha virt. eigenvalues --   23.64751  23.65498  23.68689  23.89330  23.91303
 Alpha virt. eigenvalues --   23.93683  24.05092  24.19149  24.20974  24.29398
 Alpha virt. eigenvalues --   24.50509  24.55569
          Condensed to atoms (all electrons):
               1          2          3          4          5          6
     1  C    8.072623   0.553152  -0.947316   1.585891   0.171116  -0.062148
     2  C    0.553152   8.410513   0.447018  -1.194890  -0.049990  -0.013033
     3  C   -0.947316   0.447018   6.902428   0.011562  -0.103677   0.023459
     4  C    1.585891  -1.194890   0.011562  14.442474  -0.211576  -0.254228
     5  C    0.171116  -0.049990  -0.103677  -0.211576   9.041239   1.050974
     6  C   -0.062148  -0.013033   0.023459  -0.254228   1.050974   7.529538
     7  C   -0.090657  -0.020641  -0.006455   0.139928  -1.329501  -0.819299
     8  C    0.505722   0.059367  -0.108472  -0.209012   2.267271   0.505422
     9  C   -1.174398  -1.723325   0.241644   1.009143  -1.099477   0.411867
    10  C   -1.034720  -0.011166   0.286808  -2.874117  -1.833350  -1.075160
    11  C    0.382702  -0.906559   0.817586  -1.278335  -1.177686   0.207881
    12  C   -1.386276   1.246465  -1.303117  -2.625155   0.163544  -0.714021
    13  C    0.168800  -0.274301  -0.255220  -1.281841  -0.788632   1.584552
    14  C   -1.326228  -0.421895   0.120819  -1.625323  -0.529510  -2.214414
    15  H    0.378278  -0.128888   0.001509   0.019970   0.006083   0.002935
    16  H   -0.020068   0.392740  -0.042081   0.032878  -0.000995  -0.000532
    17  H   -0.017733  -0.030908   0.410984  -0.082677  -0.000824   0.000547
    18  H    0.046455   0.001209  -0.086256   0.569345   0.010308  -0.006024
    19  H   -0.030115  -0.012923   0.053575  -0.195639  -0.021376   0.073516
    20  H    0.007992   0.003681  -0.008183   0.019119   0.438267  -0.115671
    21  H   -0.000805  -0.000352   0.000287  -0.001146  -0.035484   0.337786
    22  H   -0.000352   0.000126  -0.000161  -0.000391  -0.007955  -0.003807
    23  H    0.012666   0.000368   0.000109  -0.001095   0.027610   0.016022
    24  H    0.049476   0.020126   0.000321  -0.009014  -0.012533  -0.005012
    25  H    0.049476   0.020126   0.000321  -0.009014  -0.012533  -0.005012
               7          8          9         10         11         12
     1  C   -0.090657   0.505722  -1.174398  -1.034720   0.382702  -1.386276
     2  C   -0.020641   0.059367  -1.723325  -0.011166  -0.906559   1.246465
     3  C   -0.006455  -0.108472   0.241644   0.286808   0.817586  -1.303117
     4  C    0.139928  -0.209012   1.009143  -2.874117  -1.278335  -2.625155
     5  C   -1.329501   2.267271  -1.099477  -1.833350  -1.177686   0.163544
     6  C   -0.819299   0.505422   0.411867  -1.075160   0.207881  -0.714021
     7  C    7.759641  -1.163281  -0.560304   0.736347  -0.644198   0.397484
     8  C   -1.163281   9.774529  -1.228901  -1.306905   0.483634  -0.914008
     9  C   -0.560304  -1.228901  10.465570   0.236069   1.315447  -2.658437
    10  C    0.736347  -1.306905   0.236069   8.985804  -0.049707   2.221371
    11  C   -0.644198   0.483634   1.315447  -0.049707  16.216598  -4.805688
    12  C    0.397484  -0.914008  -2.658437   2.221371  -4.805688  17.292996
    13  C   -0.974151   0.052771   1.252215  -0.764267   0.576999  -3.639399
    14  C    2.704739  -3.086802  -0.953948   2.052595  -4.668283   2.396467
    15  H   -0.004076  -0.002711   0.095221   0.003075  -0.031743   0.001163
    16  H    0.000305   0.002517  -0.007748  -0.015921   0.014277  -0.014731
    17  H   -0.000208  -0.001672   0.000301   0.015664   0.010546   0.040698
    18  H    0.001979   0.005020  -0.009483  -0.028602  -0.006076  -0.078513
    19  H   -0.012079  -0.039229   0.057130   0.393127   0.107708  -0.143506
    20  H    0.016627   0.049682  -0.037057   0.059976  -0.019488   0.037888
    21  H    0.021609  -0.044069  -0.005839   0.012731  -0.003641   0.000396
    22  H    0.366928  -0.026226   0.004202  -0.002044  -0.001867  -0.002718
    23  H   -0.098433   0.368961   0.074137  -0.016400   0.022841  -0.005608
    24  H    0.009497   0.011799   0.356327   0.007894   0.036706  -0.052672
    25  H    0.009497   0.011799   0.356327   0.007894   0.036706  -0.052672
              13         14         15         16         17         18
     1  C    0.168800  -1.326228   0.378278  -0.020068  -0.017733   0.046455
     2  C   -0.274301  -0.421895  -0.128888   0.392740  -0.030908   0.001209
     3  C   -0.255220   0.120819   0.001509  -0.042081   0.410984  -0.086256
     4  C   -1.281841  -1.625323   0.019970   0.032878  -0.082677   0.569345
     5  C   -0.788632  -0.529510   0.006083  -0.000995  -0.000824   0.010308
     6  C    1.584552  -2.214414   0.002935  -0.000532   0.000547  -0.006024
     7  C   -0.974151   2.704739  -0.004076   0.000305  -0.000208   0.001979
     8  C    0.052771  -3.086802  -0.002711   0.002517  -0.001672   0.005020
     9  C    1.252215  -0.953948   0.095221  -0.007748   0.000301  -0.009483
    10  C   -0.764267   2.052595   0.003075  -0.015921   0.015664  -0.028602
    11  C    0.576999  -4.668283  -0.031743   0.014277   0.010546  -0.006076
    12  C   -3.639399   2.396467   0.001163  -0.014731   0.040698  -0.078513
    13  C   12.162878  -1.369186  -0.015580   0.006107  -0.006416  -0.012658
    14  C   -1.369186  14.354003   0.009328  -0.014267   0.003829  -0.065928
    15  H   -0.015580   0.009328   0.427848  -0.008668   0.001989   0.000071
    16  H    0.006107  -0.014267  -0.008668   0.402431  -0.007472   0.002500
    17  H   -0.006416   0.003829   0.001989  -0.007472   0.411174  -0.010356
    18  H   -0.012658  -0.065928   0.000071   0.002500  -0.010356   0.434741
    19  H    0.117818   0.024430   0.001163  -0.000846   0.003037  -0.008703
    20  H   -0.040776  -0.086252  -0.000315   0.000076  -0.000311   0.001723
    21  H   -0.021856   0.086453   0.000046  -0.000008   0.000009  -0.000075
    22  H    0.027421  -0.013607  -0.000170   0.000006  -0.000004   0.000001
    23  H   -0.040821  -0.043602   0.000494  -0.000085  -0.000010  -0.000054
    24  H   -0.027143  -0.049837  -0.001693   0.000581  -0.000069   0.000058
    25  H   -0.027143  -0.049837  -0.001693   0.000581  -0.000069   0.000058
              19         20         21         22         23         24
     1  C   -0.030115   0.007992  -0.000805  -0.000352   0.012666   0.049476
     2  C   -0.012923   0.003681  -0.000352   0.000126   0.000368   0.020126
     3  C    0.053575  -0.008183   0.000287  -0.000161   0.000109   0.000321
     4  C   -0.195639   0.019119  -0.001146  -0.000391  -0.001095  -0.009014
     5  C   -0.021376   0.438267  -0.035484  -0.007955   0.027610  -0.012533
     6  C    0.073516  -0.115671   0.337786  -0.003807   0.016022  -0.005012
     7  C   -0.012079   0.016627   0.021609   0.366928  -0.098433   0.009497
     8  C   -0.039229   0.049682  -0.044069  -0.026226   0.368961   0.011799
     9  C    0.057130  -0.037057  -0.005839   0.004202   0.074137   0.356327
    10  C    0.393127   0.059976   0.012731  -0.002044  -0.016400   0.007894
    11  C    0.107708  -0.019488  -0.003641  -0.001867   0.022841   0.036706
    12  C   -0.143506   0.037888   0.000396  -0.002718  -0.005608  -0.052672
    13  C    0.117818  -0.040776  -0.021856   0.027421  -0.040821  -0.027143
    14  C    0.024430  -0.086252   0.086453  -0.013607  -0.043602  -0.049837
    15  H    0.001163  -0.000315   0.000046  -0.000170   0.000494  -0.001693
    16  H   -0.000846   0.000076  -0.000008   0.000006  -0.000085   0.000581
    17  H    0.003037  -0.000311   0.000009  -0.000004  -0.000010  -0.000069
    18  H   -0.008703   0.001723  -0.000075   0.000001  -0.000054   0.000058
    19  H    0.459379  -0.010018   0.000542  -0.000343   0.000015   0.000552
    20  H   -0.010018   0.486334  -0.009043   0.001782  -0.000650   0.000463
    21  H    0.000542  -0.009043   0.424492  -0.003793   0.000886  -0.000214
    22  H   -0.000343   0.001782  -0.003793   0.431446  -0.007829   0.000749
    23  H    0.000015  -0.000650   0.000886  -0.007829   0.456516  -0.000271
    24  H    0.000552   0.000463  -0.000214   0.000749  -0.000271   0.487180
    25  H    0.000552   0.000463  -0.000214   0.000749  -0.000271  -0.074359
              25
     1  C    0.049476
     2  C    0.020126
     3  C    0.000321
     4  C   -0.009014
     5  C   -0.012533
     6  C   -0.005012
     7  C    0.009497
     8  C    0.011799
     9  C    0.356327
    10  C    0.007894
    11  C    0.036706
    12  C   -0.052672
    13  C   -0.027143
    14  C   -0.049837
    15  H   -0.001693
    16  H    0.000581
    17  H   -0.000069
    18  H    0.000058
    19  H    0.000552
    20  H    0.000463
    21  H   -0.000214
    22  H    0.000749
    23  H   -0.000271
    24  H   -0.074359
    25  H    0.487180
 Mulliken charges:
               1
     1  C    0.106469
     2  C   -0.366021
     3  C   -0.457494
     4  C    0.023142
     5  C    0.038685
     6  C   -0.456139
     7  C   -0.441297
     8  C    0.032795
     9  C   -0.416681
    10  C   -0.006994
    11  C   -0.636360
    12  C    0.598049
    13  C   -0.410173
    14  C    0.766257
    15  H    0.246365
    16  H    0.278419
    17  H    0.259951
    18  H    0.239261
    19  H    0.182233
    20  H    0.203689
    21  H    0.241301
    22  H    0.237860
    23  H    0.234506
    24  H    0.251089
    25  H    0.251089
 Sum of Mulliken charges =   1.00000
 Mulliken charges with hydrogens summed into heavy atoms:
               1
     1  C    0.352833
     2  C   -0.087602
     3  C   -0.197542
     4  C    0.262404
     5  C    0.242374
     6  C   -0.214838
     7  C   -0.203437
     8  C    0.267301
     9  C    0.085496
    10  C    0.175239
    11  C   -0.636360
    12  C    0.598049
    13  C   -0.410173
    14  C    0.766257
 Electronic spatial extent (au):  <R**2>=           2859.8365
 Charge=              1.0000 electrons
 Dipole moment (field-independent basis, Debye):
    X=              1.9898    Y=             -3.6615    Z=             -0.0000  Tot=              4.1673
 Quadrupole moment (field-independent basis, Debye-Ang):
   XX=            -48.7110   YY=            -36.9476   ZZ=            -83.9225
   XY=            -12.3931   XZ=             -0.0000   YZ=             -0.0000
 Traceless Quadrupole moment (field-independent basis, Debye-Ang):
   XX=              7.8160   YY=             19.5794   ZZ=            -27.3955
   XY=            -12.3931   XZ=             -0.0000   YZ=             -0.0000
 Octapole moment (field-independent basis, Debye-Ang**2):
  XXX=             15.5783  YYY=            -42.3190  ZZZ=             -0.0000  XYY=             10.4542
  XXY=             -5.7116  XXZ=             -0.0000  XZZ=              0.4713  YZZ=             -7.2072
  YYZ=              0.0000  XYZ=              0.0000
 Hexadecapole moment (field-independent basis, Debye-Ang**3):
 XXXX=          -1077.3631 YYYY=          -1754.9581 ZZZZ=            -98.9397 XXXY=            367.6286
 XXXZ=              0.0000 YYYX=            298.9129 YYYZ=             -0.0000 ZZZX=              0.0000
 ZZZY=             -0.0000 XXYY=           -446.0896 XXZZ=           -265.7122 YYZZ=           -469.8987
 XXYZ=              0.0000 YYXZ=              0.0000 ZZXY=            197.5307
 N-N= 7.821982057849D+02 E-N=-2.801086992873D+03  KE= 5.380579268819D+02
 Symmetry A'   KE= 5.232758959689D+02
 Symmetry A"   KE= 1.478203091294D+01
 Unable to Open any file for archive entry.
 1\1\GINC-GADI-CPU-CLX-0240\SP\RM062X TD-FC\6-311++G(d,p)\C14H11(1+)\TS
 1578\02-Aug-2022\0\\#n M062X/6-311++G(d,p) TD(NStates=1) EmpiricalDisp
 ersion=GD3 SP\\SP_6\\1,1\C,0,0.,2.344655,1.316431\C,0,0.,3.573508,0.64
 3989\C,0,0.,3.661861,-0.78583\C,0,0.,2.631156,-1.491538\C,0,0.,-2.2951
 56,-1.323538\C,0,0.,-3.705861,-0.64183\C,0,0.,-3.829508,0.699989\C,0,0
 .,-2.640655,1.404431\C,0,0.,-0.032,1.453369\C,0,0.,0.15,-1.429189\C,0,
 0.,1.292055,0.659065\C,0,0.,1.307471,-0.812804\C,0,0.,-1.232055,0.6950
 65\C,0,0.,-1.167471,-0.648804\H,0,0.,2.350071,2.399647\H,0,0.,4.480753
 ,1.237689\H,0,0.,4.659262,-1.224349\H,0,0.,2.62555,-2.574059\H,0,0.,0.
 026,-2.510266\H,0,0.,-2.30955,-2.406059\H,0,0.,-4.559262,-1.320349\H,0
 ,0.,-4.792753,1.185689\H,0,0.,-2.626071,2.487647\H,0,-0.859585,-0.168,
 2.145787\H,0,0.859585,-0.168,2.145787\\Version=ES64L-G16RevC.01\State=
 1-A'\HF=-539.6346012\RMSD=3.533e-09\PG=CS [SG(C14H9),X(H2)]\\@
 The archive entry for this job was punched.


 THE CHYMISTS ARE A STRANGE CLASS OF MORTALS IMPELLED
 BY AN ALMOST INSANE IMPULSE TO SEEK THEIR PLEASURE
 AMONG SMOKE AND VAPOR, SOOT AND FLAME, POISONS AND
 POVERTY; YET AMONG ALL THESE EVILS I SEEM TO LIVE
 SO SWEETLY, THAT I MAY DIE IF I WOULD CHANGE PLACES
 WITH THE PERSIAN KING.
   --  JOHANN JOACHIM BECHER, 1635-1682
 ACTA LABORATORII CHYMICA MONACENSIS, 1669
 Job cpu time:       0 days  0 hours 53 minutes 12.1 seconds.
 Elapsed time:       0 days  0 hours  1 minutes  6.8 seconds.
 File lengths (MBytes):  RWF=    460 Int=      0 D2E=      0 Chk=     15 Scr=      1
 Normal termination of Gaussian 16 at Tue Aug  2 13:00:45 2022.
