 Entering Gaussian System, Link 0=g16
 Initial command:
 /apps/gaussian/g16c01/g16/l1.exe "/jobfs/53803565.gadi-pbs/Gau-1065810.inp" -scrdir="/jobfs/53803565.gadi-pbs/"
 Entering Link 1 = /apps/gaussian/g16c01/g16/l1.exe PID=   1065811.
  
 Copyright (c) 1988-2019, Gaussian, Inc.  All Rights Reserved.
  
 This is part of the Gaussian(R) 16 program.  It is based on
 the Gaussian(R) 09 system (copyright 2009, Gaussian, Inc.),
 the Gaussian(R) 03 system (copyright 2003, Gaussian, Inc.),
 the Gaussian(R) 98 system (copyright 1998, Gaussian, Inc.),
 the Gaussian(R) 94 system (copyright 1995, Gaussian, Inc.),
 the Gaussian 92(TM) system (copyright 1992, Gaussian, Inc.),
 the Gaussian 90(TM) system (copyright 1990, Gaussian, Inc.),
 the Gaussian 88(TM) system (copyright 1988, Gaussian, Inc.),
 the Gaussian 86(TM) system (copyright 1986, Carnegie Mellon
 University), and the Gaussian 82(TM) system (copyright 1983,
 Carnegie Mellon University). Gaussian is a federally registered
 trademark of Gaussian, Inc.
  
 This software contains proprietary and confidential information,
 including trade secrets, belonging to Gaussian, Inc.
  
 This software is provided under written license and may be
 used, copied, transmitted, or stored only in accord with that
 written license.
  
 The following legend is applicable only to US Government
 contracts under FAR:
  
                    RESTRICTED RIGHTS LEGEND
  
 Use, reproduction and disclosure by the US Government is
 subject to restrictions as set forth in subparagraphs (a)
 and (c) of the Commercial Computer Software - Restricted
 Rights clause in FAR 52.227-19.
  
 Gaussian, Inc.
 340 Quinnipiac St., Bldg. 40, Wallingford CT 06492
  
  
 ---------------------------------------------------------------
 Warning -- This program may not be used in any manner that
 competes with the business of Gaussian, Inc. or will provide
 assistance to any competitor of Gaussian, Inc.  The licensee
 of this program is prohibited from giving any competitor of
 Gaussian, Inc. access to this program.  By using this program,
 the user acknowledges that Gaussian, Inc. is engaged in the
 business of creating and licensing software in the field of
 computational chemistry and represents and warrants to the
 licensee that it is not a competitor of Gaussian, Inc. and that
 it will not use this program in any manner prohibited above.
 ---------------------------------------------------------------
  

 Cite this work as:
 Gaussian 16, Revision C.01,
 M. J. Frisch, G. W. Trucks, H. B. Schlegel, G. E. Scuseria, 
 M. A. Robb, J. R. Cheeseman, G. Scalmani, V. Barone, 
 G. A. Petersson, H. Nakatsuji, X. Li, M. Caricato, A. V. Marenich, 
 J. Bloino, B. G. Janesko, R. Gomperts, B. Mennucci, H. P. Hratchian, 
 J. V. Ortiz, A. F. Izmaylov, J. L. Sonnenberg, D. Williams-Young, 
 F. Ding, F. Lipparini, F. Egidi, J. Goings, B. Peng, A. Petrone, 
 T. Henderson, D. Ranasinghe, V. G. Zakrzewski, J. Gao, N. Rega, 
 G. Zheng, W. Liang, M. Hada, M. Ehara, K. Toyota, R. Fukuda, 
 J. Hasegawa, M. Ishida, T. Nakajima, Y. Honda, O. Kitao, H. Nakai, 
 T. Vreven, K. Throssell, J. A. Montgomery, Jr., J. E. Peralta, 
 F. Ogliaro, M. J. Bearpark, J. J. Heyd, E. N. Brothers, K. N. Kudin, 
 V. N. Staroverov, T. A. Keith, R. Kobayashi, J. Normand, 
 K. Raghavachari, A. P. Rendell, J. C. Burant, S. S. Iyengar, 
 J. Tomasi, M. Cossi, J. M. Millam, M. Klene, C. Adamo, R. Cammi, 
 J. W. Ochterski, R. L. Martin, K. Morokuma, O. Farkas, 
 J. B. Foresman, and D. J. Fox, Gaussian, Inc., Wallingford CT, 2019.
 
 ******************************************
 Gaussian 16:  ES64L-G16RevC.01  3-Jul-2019
                 2-Aug-2022 
 ******************************************
 %NProcShared=48
 Will use up to   48 processors via shared memory.
 %mem = 190GB
 ---------------------------------------------------------------
 #n M062X/6-311++G(d,p) TD(NStates=1) EmpiricalDispersion=GD3 SP
 ---------------------------------------------------------------
 1/38=1,172=1/1;
 2/12=2,17=6,18=5,40=1/2;
 3/5=4,6=6,7=1111,11=9,25=1,30=1,74=-55,124=31/1,2,3,8;
 4//1;
 5/5=2,38=5/2;
 8/6=1,10=2,108=1/1;
 9/41=1,42=1,70=2/14;
 6/7=2,8=2,9=2,10=2/1;
 99/5=1,9=1/99;
 -----
 SP_10
 -----
 Symbolic Z-matrix:
 Charge =  1 Multiplicity = 1
 C                     0.        2.30666   1.33843 
 C                     0.        3.51151   0.60199 
 C                     0.        3.60986  -0.86183 
 C                     0.        2.68716  -1.50554 
 C                     0.       -2.23916  -1.30954 
 C                     0.       -3.75786  -0.56583 
 C                     0.       -3.89151   0.74199 
 C                     0.       -2.67866   1.38243 
 C                     0.       -0.072     1.45337 
 C                     0.        0.278    -1.42919 
 C                     0.        1.34005   0.74507 
 C                     0.        1.33547  -0.7788 
 C                     0.       -1.18406   0.60907 
 C                     0.       -1.13947  -0.6828 
 H                     0.        2.38407   2.42165 
 H                     0.        4.43275   1.17569 
 H                     0.        4.62726  -1.26235 
 H                     0.        2.60955  -2.58806 
 H                     0.        0.188    -2.51027 
 H                     0.       -2.32555  -2.39206 
 H                     0.       -4.59126  -1.28235 
 H                     0.       -4.84075   1.24769 
 H                     0.       -2.59207   2.46565 
 H                    -0.85959  -0.392     2.14579 
 H                     0.85959  -0.392     2.14579 
 
                          Input orientation:                          
 ---------------------------------------------------------------------
 Center     Atomic      Atomic             Coordinates (Angstroms)
 Number     Number       Type             X           Y           Z
 ---------------------------------------------------------------------
      1          6           0        0.000000    2.306655    1.338431
      2          6           0        0.000000    3.511508    0.601989
      3          6           0        0.000000    3.609861   -0.861830
      4          6           0        0.000000    2.687156   -1.505538
      5          6           0        0.000000   -2.239156   -1.309538
      6          6           0        0.000000   -3.757861   -0.565830
      7          6           0        0.000000   -3.891508    0.741989
      8          6           0        0.000000   -2.678655    1.382431
      9          6           0        0.000000   -0.072000    1.453369
     10          6           0        0.000000    0.278000   -1.429189
     11          6           0        0.000000    1.340055    0.745065
     12          6           0        0.000000    1.335471   -0.778804
     13          6           0        0.000000   -1.184055    0.609065
     14          6           0        0.000000   -1.139471   -0.682804
     15          1           0        0.000000    2.384071    2.421647
     16          1           0        0.000000    4.432753    1.175689
     17          1           0        0.000000    4.627262   -1.262349
     18          1           0        0.000000    2.609550   -2.588059
     19          1           0        0.000000    0.188000   -2.510266
     20          1           0        0.000000   -2.325550   -2.392059
     21          1           0        0.000000   -4.591262   -1.282349
     22          1           0        0.000000   -4.840753    1.247689
     23          1           0        0.000000   -2.592071    2.465647
     24          1           0       -0.859585   -0.392000    2.145787
     25          1           0        0.859585   -0.392000    2.145787
 ---------------------------------------------------------------------
                    Distance matrix (angstroms):
                    1          2          3          4          5
     1  C    0.000000
     2  C    1.412097   0.000000
     3  C    2.557244   1.467119   0.000000
     4  C    2.869310   2.263013   1.125053   0.000000
     5  C    5.260811   6.060039   5.866127   4.930210   0.000000
     6  C    6.356458   7.362576   7.373666   6.513163   1.691025
     7  C    6.226794   7.404340   7.670904   6.951992   2.634204
     8  C    4.985504   6.239167   6.676986   6.093627   2.727610
     9  C    2.381430   3.683256   4.349281   4.045747   3.511441
    10  C    3.431496   3.818541   3.379822   2.410365   2.519998
    11  C    1.134195   2.176161   2.781031   2.622955   4.127002
    12  C    2.329352   2.577155   2.275905   1.534664   3.613812
    13  C    3.566095   4.695568   5.014495   4.411102   2.189583
    14  C    3.995144   4.825173   4.752705   3.914073   1.265742
    15  H    1.085979   2.140624   3.504823   3.938863   5.941041
    16  H    2.132317   1.085276   2.197416   3.199389   7.119742
    17  H    3.485581   2.172709   1.093398   1.955288   6.866580
    18  H    3.938156   3.315107   1.995116   1.085299   5.014436
    19  H    4.393309   4.553223   3.798220   2.693559   2.707921
    20  H    5.947594   6.560150   6.129495   5.090495   1.085963
    21  H    7.379007   8.318991   8.211897   7.281839   2.352263
    22  H    7.147984   8.377183   8.709934   8.015589   3.647974
    23  H    5.026742   6.381763   7.038186   6.606099   3.791645
    24  H    2.945072   4.284807   5.079325   4.853067   4.011252
    25  H    2.945072   4.284807   5.079325   4.853067   4.011252
                    6          7          8          9         10
     6  C    0.000000
     7  C    1.314630   0.000000
     8  C    2.227197   1.371561   0.000000
     9  C    4.202706   3.885190   2.607620   0.000000
    10  C    4.127174   4.700937   4.080075   2.903729   0.000000
    11  C    5.263762   5.231564   4.068939   1.579745   2.419781
    12  C    5.097783   5.443723   4.558963   2.638858   1.241469
    13  C    2.829285   2.710714   1.682832   1.396251   2.508403
    14  C    2.621002   3.098991   2.575710   2.388039   1.601972
    15  H    6.829960   6.496472   5.168284   2.640047   4.389131
    16  H    8.373712   8.335551   7.114413   4.513303   4.903811
    17  H    8.414002   8.751389   7.769896   5.427540   4.352461
    18  H    6.680818   7.304312   6.612859   4.850139   2.603671
    19  H    4.398937   5.217236   4.834336   3.972153   1.084817
    20  H    2.320911   3.503496   3.790971   4.457107   2.775895
    21  H    1.099071   2.141868   3.280109   5.282791   4.871476
    22  H    2.112228   1.075546   2.166292   4.773187   5.776444
    23  H    3.247910   2.158595   1.086671   2.715781   4.838084
    24  H    4.406901   3.867311   2.559373   1.149230   3.737411
    25  H    4.406901   3.867311   2.559373   1.149230   3.737411
                   11         12         13         14         15
    11  C    0.000000
    12  C    1.523876   0.000000
    13  C    2.527771   2.876489   0.000000
    14  C    2.861269   2.476803   1.292638   0.000000
    15  H    1.975069   3.367855   4.002122   4.696058   0.000000
    16  H    3.122534   3.662403   5.645316   5.873983   2.397813
    17  H    3.851680   3.327116   6.105211   5.795781   4.313204
    18  H    3.566698   2.212845   4.961153   4.205372   5.014778
    19  H    3.453174   2.077174   3.407750   2.258716   5.398749
    20  H    4.824749   4.000708   3.210881   2.080465   6.734411
    21  H    6.268248   5.948086   3.896987   3.503472   7.897775
    22  H    6.201211   6.500186   3.712045   4.174481   7.319581
    23  H    4.292088   5.094315   2.330109   3.467390   4.976337
    24  H    2.387661   3.503752   1.930739   3.049349   2.919170
    25  H    2.387661   3.503752   1.930739   3.049349   2.919170
                   16         17         18         19         20
    16  H    0.000000
    17  H    2.445785   0.000000
    18  H    4.182089   2.414264   0.000000
    19  H    5.621761   4.611328   2.422799   0.000000
    20  H    7.642217   7.043993   4.938991   2.516328   0.000000
    21  H    9.352796   9.218546   7.318236   4.934483   2.522877
    22  H    9.273786   9.795080   8.379736   6.277785   4.424253
    23  H    7.142279   8.125068   7.252366   5.699869   4.865012
    24  H    4.995820   6.127583   5.670757   4.770127   5.006950
    25  H    4.995820   6.127583   5.670757   4.770127   5.006950
                   21         22         23         24         25
    21  H    0.000000
    22  H    2.542310   0.000000
    23  H    4.247851   2.557341   0.000000
    24  H    5.488607   4.619185   2.383592   0.000000
    25  H    5.488607   4.619185   2.383592   1.719170   0.000000
 Stoichiometry    C14H11(1+)
 Framework group  CS[SG(C14H9),X(H2)]
 Deg. of freedom    46
 Full point group                 CS      NOp   2
 Largest Abelian subgroup         CS      NOp   2
 Largest concise Abelian subgroup CS      NOp   2
                         Standard orientation:                         
 ---------------------------------------------------------------------
 Center     Atomic      Atomic             Coordinates (Angstroms)
 Number     Number       Type             X           Y           Z
 ---------------------------------------------------------------------
      1          6           0        0.041730   -2.668849    0.000000
      2          6           0        1.293427   -3.322508    0.000000
      3          6           0        2.598925   -2.653093    0.000000
      4          6           0        2.675636   -1.530658    0.000000
      5          6           0       -0.028967    2.591488    0.000000
      6          6           0       -1.448498    3.510455    0.000000
      7          6           0       -2.638438    2.951620    0.000000
      8          6           0       -2.562951    1.582139    0.000000
      9          6           0       -1.281582   -0.688935    0.000000
     10          6           0        1.369699    0.495272    0.000000
     11          6           0        0.052684   -1.534706    0.000000
     12          6           0        1.356656   -0.746129    0.000000
     13          6           0       -1.130408    0.699107    0.000000
     14          6           0        0.000000    1.326078    0.000000
     15          1           0       -0.846992   -3.292967    0.000000
     16          1           0        1.275978   -4.407643    0.000000
     17          1           0        3.466133   -3.319028    0.000000
     18          1           0        3.563664   -0.906735    0.000000
     19          1           0        2.250108    1.129076    0.000000
     20          1           0        0.854536    3.222944    0.000000
     21          1           0       -1.263386    4.593824    0.000000
     22          1           0       -3.560719    3.504971    0.000000
     23          1           0       -3.446952    0.950162    0.000000
     24          1           0       -2.039925   -0.771146    0.859585
     25          1           0       -2.039925   -0.771146   -0.859585
 ---------------------------------------------------------------------
 Rotational constants (GHZ):           2.1540798           0.4415479           0.3672284
 Standard basis: 6-311++G(d,p) (5D, 7F)
 There are   299 symmetry adapted cartesian basis functions of A'  symmetry.
 There are   100 symmetry adapted cartesian basis functions of A"  symmetry.
 There are   285 symmetry adapted basis functions of A'  symmetry.
 There are   100 symmetry adapted basis functions of A"  symmetry.
   385 basis functions,   603 primitive gaussians,   399 cartesian basis functions
    47 alpha electrons       47 beta electrons
       nuclear repulsion energy       784.4376603610 Hartrees.
 NAtoms=   25 NActive=   25 NUniq=   24 SFac= 1.09D+00 NAtFMM=   60 NAOKFM=F Big=F
 Integral buffers will be    131072 words long.
 Regular integral format.
 Two-electron integral symmetry is turned on.
 Nuclear repulsion after empirical dispersion term =      784.4366970954 Hartrees.
 One-electron integrals computed using PRISM.
 NBasis=   385 RedAO= T EigKep=  1.19D-06  NBF=   285   100
 NBsUse=   379 1.00D-06 EigRej=  7.13D-07 NBFU=   279   100
 ExpMin= 3.60D-02 ExpMax= 4.56D+03 ExpMxC= 6.82D+02 IAcc=3 IRadAn=         5 AccDes= 0.00D+00
 Harris functional with IExCor= 1009 and IRadAn=       5 diagonalized for initial guess.
 HarFok:  IExCor= 1009 AccDes= 0.00D+00 IRadAn=         5 IDoV= 1 UseB2=F ITyADJ=14
 ICtDFT=  3500011 ScaDFX=  1.000000  1.000000  1.000000  1.000000
 FoFCou: FMM=F IPFlag=           0 FMFlag=      100000 FMFlg1=           0
         NFxFlg=           0 DoJE=T BraDBF=F KetDBF=T FulRan=T
         wScrn=  0.000000 ICntrl=       500 IOpCl=  0 I1Cent=   200000004 NGrid=           0
         NMat0=    1 NMatS0=      1 NMatT0=    0 NMatD0=    1 NMtDS0=    0 NMtDT0=    0
 Petite list used in FoFCou.
 Initial guess orbital symmetries:
       Occupied  (A') (A') (A') (A') (A') (A') (A') (A') (A') (A')
                 (A') (A') (A') (A') (A') (A') (A') (A') (A') (A')
                 (A') (A') (A') (A') (A') (A') (A') (A') (A') (A')
                 (A') (A') (A") (A') (A') (A') (A") (A') (A') (A")
                 (A') (A') (A") (A") (A') (A") (A")
       Virtual   (A") (A") (A") (A") (A") (A') (A') (A') (A') (A')
                 (A') (A") (A') (A') (A") (A') (A') (A") (A') (A')
                 (A') (A") (A') (A') (A') (A") (A') (A") (A') (A")
                 (A') (A') (A') (A') (A") (A') (A') (A') (A") (A')
                 (A") (A') (A') (A") (A') (A') (A') (A') (A') (A')
                 (A") (A") (A') (A") (A') (A') (A") (A') (A") (A')
                 (A') (A') (A') (A') (A') (A") (A') (A') (A') (A")
                 (A') (A') (A') (A') (A') (A') (A') (A') (A') (A')
                 (A') (A') (A') (A') (A') (A') (A') (A') (A') (A')
                 (A') (A') (A') (A') (A") (A") (A') (A') (A") (A')
                 (A') (A') (A") (A') (A') (A") (A") (A') (A") (A")
                 (A') (A') (A") (A") (A') (A') (A") (A') (A') (A")
                 (A") (A') (A') (A') (A") (A') (A') (A") (A') (A')
                 (A') (A') (A') (A') (A') (A') (A') (A') (A") (A')
                 (A') (A') (A') (A') (A') (A") (A') (A') (A') (A')
                 (A") (A') (A") (A') (A") (A') (A') (A") (A') (A")
                 (A') (A") (A') (A") (A") (A') (A") (A') (A') (A')
                 (A") (A') (A') (A') (A') (A') (A') (A") (A") (A')
                 (A') (A') (A") (A') (A") (A') (A") (A") (A') (A')
                 (A") (A') (A') (A") (A') (A') (A") (A') (A') (A")
                 (A') (A") (A") (A') (A') (A") (A") (A') (A") (A')
                 (A') (A') (A') (A') (A") (A') (A") (A') (A') (A")
                 (A') (A") (A') (A') (A") (A') (A') (A') (A") (A')
                 (A") (A') (A") (A') (A') (A") (A') (A") (A') (A")
                 (A') (A') (A') (A') (A') (A") (A') (A') (A') (A")
                 (A') (A') (A') (A") (A") (A') (A') (A") (A') (A")
                 (A') (A") (A') (A') (A') (A') (A') (A") (A') (A")
                 (A') (A') (A') (A') (A") (A") (A') (A') (A") (A')
                 (A") (A') (A') (A") (A') (A") (A") (A') (A') (A')
                 (A') (A') (A') (A') (A') (A') (A') (A') (A') (A')
                 (A") (A') (A') (A') (A') (A') (A') (A') (A') (A')
                 (A') (A') (A') (A') (A') (A') (A') (A') (A') (A')
                 (A') (A') (A') (A') (A') (A') (A') (A') (A') (A')
                 (A') (A')
 The electronic state of the initial guess is 1-A'.
 Requested convergence on RMS density matrix=1.00D-08 within 128 cycles.
 Requested convergence on MAX density matrix=1.00D-06.
 Requested convergence on             energy=1.00D-06.
 No special actions if energy rises.
 SCF Done:  E(RM062X) =  -539.373671996     A.U. after   16 cycles
            NFock= 16  Conv=0.98D-08     -V/T= 2.0004
 DoSCS=F DFT=T ScalE2(SS,OS)=  1.000000  1.000000
 ExpMin= 3.60D-02 ExpMax= 4.56D+03 ExpMxC= 6.82D+02 IAcc=3 IRadAn=         5 AccDes= 0.00D+00
 HarFok:  IExCor=  205 AccDes= 0.00D+00 IRadAn=         5 IDoV=-2 UseB2=F ITyADJ=14
 ICtDFT= 12500011 ScaDFX=  1.000000  1.000000  1.000000  1.000000
 Range of M.O.s used for correlation:    15   379
 NBasis=   385 NAE=    47 NBE=    47 NFC=    14 NFV=     0
 NROrb=    365 NOA=    33 NOB=    33 NVA=   332 NVB=   332

 **** Warning!!: The largest alpha MO coefficient is  0.18318102D+03


 **** Warning!!: The smallest alpha delta epsilon is  0.98822024D-01

 Orbital symmetries:
       Occupied  (A') (A') (A') (A') (A') (A') (A') (A') (A') (A')
                 (A') (A') (A') (A') (A') (A') (A') (A') (A') (A')
                 (A') (A') (A') (A') (A') (A') (A') (A') (A') (A')
                 (A') (A") (A') (A') (A') (A") (A') (A') (A") (A')
                 (A') (A") (A') (A") (A') (A") (A")
       Virtual   (A") (A") (A") (A') (A") (A') (A') (A') (A') (A")
                 (A') (A") (A') (A") (A') (A') (A") (A') (A') (A')
                 (A") (A") (A') (A') (A') (A') (A') (A") (A') (A')
                 (A") (A") (A') (A') (A') (A') (A") (A') (A') (A")
                 (A") (A') (A') (A') (A') (A") (A") (A") (A') (A')
                 (A') (A') (A') (A') (A") (A') (A") (A') (A') (A')
                 (A') (A') (A") (A') (A') (A') (A") (A') (A') (A')
                 (A') (A') (A') (A') (A') (A') (A') (A') (A') (A')
                 (A') (A') (A') (A') (A') (A') (A') (A') (A') (A')
                 (A") (A') (A') (A') (A") (A') (A') (A') (A") (A')
                 (A") (A') (A') (A") (A') (A') (A") (A") (A') (A')
                 (A") (A') (A") (A') (A") (A") (A') (A') (A") (A")
                 (A') (A') (A') (A") (A") (A') (A') (A') (A') (A')
                 (A') (A') (A') (A') (A') (A') (A') (A') (A') (A')
                 (A') (A') (A') (A") (A') (A') (A') (A") (A') (A')
                 (A') (A') (A') (A") (A') (A") (A') (A") (A") (A')
                 (A') (A") (A") (A') (A') (A") (A") (A') (A") (A')
                 (A") (A') (A') (A') (A') (A') (A') (A") (A') (A")
                 (A') (A') (A") (A') (A") (A") (A') (A') (A") (A')
                 (A") (A') (A") (A') (A') (A") (A') (A') (A') (A")
                 (A') (A") (A") (A') (A") (A') (A') (A") (A') (A")
                 (A') (A') (A') (A') (A") (A') (A') (A") (A') (A")
                 (A") (A') (A') (A') (A") (A') (A') (A") (A') (A")
                 (A') (A') (A') (A") (A') (A') (A") (A") (A') (A")
                 (A') (A') (A') (A") (A') (A') (A') (A') (A') (A')
                 (A") (A') (A') (A') (A') (A") (A') (A") (A') (A')
                 (A") (A') (A') (A') (A") (A') (A') (A') (A') (A')
                 (A") (A') (A') (A") (A") (A") (A') (A") (A') (A")
                 (A') (A") (A') (A") (A') (A") (A") (A') (A') (A')
                 (A') (A') (A') (A') (A') (A') (A') (A') (A') (A")
                 (A') (A') (A') (A') (A') (A') (A') (A') (A') (A')
                 (A') (A') (A') (A') (A') (A') (A') (A') (A') (A')
                 (A') (A') (A') (A') (A') (A') (A') (A') (A') (A')
                 (A') (A')
     4 initial guesses have been made.
 Convergence on wavefunction:    0.001000000000000
 Iteration     1 Dimension     4 NMult     0 NNew      4
 CISAX will form     4 AO SS matrices at one time.
 Iteration     2 Dimension     6 NMult     4 NNew      2
 Iteration     3 Dimension     8 NMult     6 NNew      2
 Iteration     4 Dimension    10 NMult     8 NNew      2
 Iteration     5 Dimension    12 NMult    10 NNew      2
 Iteration     6 Dimension    14 NMult    12 NNew      2
 ***********************************************************************
 Excited states from <AA,BB:AA,BB> singles matrix:
 ***********************************************************************
 
 Ground to excited state transition densities written to RWF  633
 Ground to excited state transition electric dipole moments (Au):
       state          X           Y           Z        Dip. S.      Osc.
         1        -0.8597      0.9441     -0.0000      1.6305      0.0447
 Ground to excited state transition velocity dipole moments (Au):
       state          X           Y           Z        Dip. S.      Osc.
         1         0.0363     -0.0325      0.0000      0.0024      0.0385
 Ground to excited state transition magnetic dipole moments (Au):
       state          X           Y           Z
         1        -0.0000      0.0000      0.3115
 Ground to excited state transition velocity quadrupole moments (Au):
       state          XX          YY          ZZ          XY          XZ          YZ
         1        -0.0237      0.0670     -0.0039     -0.0205     -0.0000     -0.0000
 <0|del|b> * <b|rxdel|0> + <0|del|b> * <b|delr+rdel|0>
 Rotatory Strengths (R) in cgs (10**-40 erg-esu-cm/Gauss)
       state          XX          YY          ZZ    R(velocity)    E-M Angle
         1        -0.0000      0.0000      0.0000      0.0000       90.00
 1/2[<0|r|b>*<b|rxdel|0> + (<0|rxdel|b>*<b|r|0>)*]
 Rotatory Strengths (R) in cgs (10**-40 erg-esu-cm/Gauss)
       state          XX          YY          ZZ     R(length)
         1        -0.0000     -0.0000      0.0000     -0.0000
  1/2[<0|del|b>*<b|r|0> + (<0|r|b>*<b|del|0>)*] (Au)
       state          X           Y           Z        Dip. S.   Osc.(frdel)
         1        -0.0312     -0.0307     -0.0000      0.0619      0.0413

 Excitation energies and oscillator strengths:
 
 Excited State   1:      Singlet-A'     1.1178 eV 1109.21 nm  f=0.0447  <S**2>=0.000
      47 -> 48         0.70548
 This state for optimization and/or second-order correction.
 Total Energy, E(TD-HF/TD-DFT) =  -539.332594686    
 Copying the excited state density for this state as the 1-particle RhoCI density.
 SavETr:  write IOETrn=   770 NScale= 10 NData=  16 NLR=1 NState=    1 LETran=      28.

 **********************************************************************

            Population analysis using the SCF Density.

 **********************************************************************

 Orbital symmetries:
       Occupied  (A') (A') (A') (A') (A') (A') (A') (A') (A') (A')
                 (A') (A') (A') (A') (A') (A') (A') (A') (A') (A')
                 (A') (A') (A') (A') (A') (A') (A') (A') (A') (A')
                 (A') (A") (A') (A') (A') (A") (A') (A') (A") (A')
                 (A') (A") (A') (A") (A') (A") (A")
       Virtual   (A") (A") (A") (A') (A") (A') (A') (A') (A') (A")
                 (A') (A") (A') (A") (A') (A') (A") (A') (A') (A')
                 (A") (A") (A') (A') (A') (A') (A') (A") (A') (A')
                 (A") (A") (A') (A') (A') (A') (A") (A') (A') (A")
                 (A") (A') (A') (A') (A') (A") (A") (A") (A') (A')
                 (A') (A') (A') (A') (A") (A') (A") (A') (A') (A')
                 (A') (A') (A") (A') (A') (A') (A") (A') (A') (A')
                 (A') (A') (A') (A') (A') (A') (A') (A') (A') (A')
                 (A') (A') (A') (A') (A') (A') (A') (A') (A') (A')
                 (A") (A') (A') (A') (A") (A') (A') (A') (A") (A')
                 (A") (A') (A') (A") (A') (A') (A") (A") (A') (A')
                 (A") (A') (A") (A') (A") (A") (A') (A') (A") (A")
                 (A') (A') (A') (A") (A") (A') (A') (A') (A') (A')
                 (A') (A') (A') (A') (A') (A') (A') (A') (A') (A')
                 (A') (A') (A') (A") (A') (A') (A') (A") (A') (A')
                 (A') (A') (A') (A") (A') (A") (A') (A") (A") (A')
                 (A') (A") (A") (A') (A') (A") (A") (A') (A") (A')
                 (A") (A') (A') (A') (A') (A') (A') (A") (A') (A")
                 (A') (A') (A") (A') (A") (A") (A') (A') (A") (A')
                 (A") (A') (A") (A') (A') (A") (A') (A') (A') (A")
                 (A') (A") (A") (A') (A") (A') (A') (A") (A') (A")
                 (A') (A') (A') (A') (A") (A') (A') (A") (A') (A")
                 (A") (A') (A') (A') (A") (A') (A') (A") (A') (A")
                 (A') (A') (A') (A") (A') (A') (A") (A") (A') (A")
                 (A') (A') (A') (A") (A') (A') (A') (A') (A') (A')
                 (A") (A') (A') (A') (A') (A") (A') (A") (A') (A')
                 (A") (A') (A') (A') (A") (A') (A') (A') (A') (A')
                 (A") (A') (A') (A") (A") (A") (A') (A") (A') (A")
                 (A') (A") (A') (A") (A') (A") (A") (A') (A') (A')
                 (A') (A') (A') (A') (A') (A') (A') (A') (A') (A")
                 (A') (A') (A') (A') (A') (A') (A') (A') (A') (A')
                 (A') (A') (A') (A') (A') (A') (A') (A') (A') (A')
                 (A') (A') (A') (A') (A') (A') (A') (A') (A') (A')
                 (A') (A')
 The electronic state is 1-A'.
 Alpha  occ. eigenvalues --  -10.78377 -10.74730 -10.73668 -10.72705 -10.71831
 Alpha  occ. eigenvalues --  -10.71394 -10.70482 -10.70377 -10.70213 -10.69316
 Alpha  occ. eigenvalues --  -10.68327 -10.68233 -10.67805 -10.66447  -1.20152
 Alpha  occ. eigenvalues --   -1.13026  -1.11462  -1.06778  -1.02819  -1.01270
 Alpha  occ. eigenvalues --   -0.95828  -0.88496  -0.86380  -0.84625  -0.83607
 Alpha  occ. eigenvalues --   -0.77866  -0.76609  -0.74678  -0.72886  -0.69796
 Alpha  occ. eigenvalues --   -0.69002  -0.68437  -0.66537  -0.64658  -0.63826
 Alpha  occ. eigenvalues --   -0.63455  -0.63234  -0.60018  -0.57897  -0.56433
 Alpha  occ. eigenvalues --   -0.55490  -0.54887  -0.53438  -0.52440  -0.48951
 Alpha  occ. eigenvalues --   -0.47318  -0.37040
 Alpha virt. eigenvalues --   -0.27158  -0.15264  -0.12365  -0.11615  -0.10555
 Alpha virt. eigenvalues --   -0.10340  -0.09806  -0.07804  -0.07717  -0.07576
 Alpha virt. eigenvalues --   -0.07325  -0.06145  -0.05826  -0.05495  -0.05433
 Alpha virt. eigenvalues --   -0.04402  -0.04053  -0.03402  -0.03171  -0.02027
 Alpha virt. eigenvalues --   -0.01799  -0.00835  -0.00668  -0.00302   0.00408
 Alpha virt. eigenvalues --    0.00711   0.01238   0.01440   0.01579   0.01869
 Alpha virt. eigenvalues --    0.02100   0.02707   0.02914   0.03037   0.03713
 Alpha virt. eigenvalues --    0.03895   0.04059   0.04154   0.05310   0.05425
 Alpha virt. eigenvalues --    0.05787   0.05941   0.06117   0.06417   0.07325
 Alpha virt. eigenvalues --    0.07410   0.07746   0.07933   0.08086   0.08202
 Alpha virt. eigenvalues --    0.08561   0.09224   0.09498   0.10007   0.10016
 Alpha virt. eigenvalues --    0.10607   0.11359   0.11416   0.11681   0.12272
 Alpha virt. eigenvalues --    0.12992   0.13202   0.13424   0.13630   0.14087
 Alpha virt. eigenvalues --    0.14485   0.16216   0.16718   0.16972   0.17440
 Alpha virt. eigenvalues --    0.18199   0.18831   0.19707   0.20450   0.20632
 Alpha virt. eigenvalues --    0.21295   0.22205   0.22920   0.23655   0.24294
 Alpha virt. eigenvalues --    0.25081   0.25900   0.26387   0.26947   0.28193
 Alpha virt. eigenvalues --    0.29671   0.30270   0.31587   0.32178   0.35508
 Alpha virt. eigenvalues --    0.37680   0.38040   0.38842   0.39262   0.39351
 Alpha virt. eigenvalues --    0.39942   0.42110   0.42807   0.43365   0.43715
 Alpha virt. eigenvalues --    0.44124   0.44960   0.45868   0.46593   0.47505
 Alpha virt. eigenvalues --    0.47710   0.48055   0.48988   0.50941   0.51429
 Alpha virt. eigenvalues --    0.51662   0.52437   0.52550   0.54171   0.54262
 Alpha virt. eigenvalues --    0.55063   0.55805   0.57857   0.58517   0.58977
 Alpha virt. eigenvalues --    0.59438   0.61565   0.62005   0.62632   0.63536
 Alpha virt. eigenvalues --    0.64218   0.64907   0.66521   0.66793   0.67709
 Alpha virt. eigenvalues --    0.69892   0.71905   0.73330   0.73389   0.74284
 Alpha virt. eigenvalues --    0.75081   0.75549   0.76920   0.77361   0.78134
 Alpha virt. eigenvalues --    0.79140   0.80166   0.80222   0.81447   0.81577
 Alpha virt. eigenvalues --    0.82339   0.82864   0.84390   0.84588   0.85097
 Alpha virt. eigenvalues --    0.87037   0.90053   0.90278   0.91068   0.92500
 Alpha virt. eigenvalues --    0.94406   0.95324   0.95731   0.97866   0.97878
 Alpha virt. eigenvalues --    0.99462   1.00586   1.02817   1.02964   1.04735
 Alpha virt. eigenvalues --    1.06266   1.06853   1.07568   1.07712   1.12634
 Alpha virt. eigenvalues --    1.15731   1.18059   1.19708   1.20471   1.27911
 Alpha virt. eigenvalues --    1.29331   1.33163   1.34712   1.34980   1.36485
 Alpha virt. eigenvalues --    1.37676   1.38681   1.39996   1.40483   1.41132
 Alpha virt. eigenvalues --    1.45221   1.46170   1.46670   1.47191   1.49640
 Alpha virt. eigenvalues --    1.49940   1.53641   1.54056   1.54431   1.56689
 Alpha virt. eigenvalues --    1.56791   1.57422   1.58442   1.59651   1.59819
 Alpha virt. eigenvalues --    1.63247   1.64186   1.65458   1.66849   1.68346
 Alpha virt. eigenvalues --    1.69045   1.70942   1.71439   1.75225   1.75636
 Alpha virt. eigenvalues --    1.76559   1.76900   1.78192   1.79989   1.80421
 Alpha virt. eigenvalues --    1.82904   1.83330   1.84192   1.85248   1.86672
 Alpha virt. eigenvalues --    1.88032   1.88369   1.89036   1.91438   1.94136
 Alpha virt. eigenvalues --    1.95096   1.96486   1.99382   2.00013   2.02143
 Alpha virt. eigenvalues --    2.02168   2.04654   2.09481   2.10312   2.13896
 Alpha virt. eigenvalues --    2.16863   2.17604   2.19883   2.19981   2.22614
 Alpha virt. eigenvalues --    2.24646   2.26906   2.30869   2.31879   2.32094
 Alpha virt. eigenvalues --    2.36085   2.38078   2.39508   2.41526   2.42465
 Alpha virt. eigenvalues --    2.43548   2.45636   2.49248   2.53049   2.55029
 Alpha virt. eigenvalues --    2.56587   2.57912   2.59344   2.59711   2.61705
 Alpha virt. eigenvalues --    2.61985   2.62424   2.63053   2.64538   2.65126
 Alpha virt. eigenvalues --    2.65135   2.66124   2.66721   2.67352   2.68450
 Alpha virt. eigenvalues --    2.69983   2.71462   2.73203   2.74078   2.75160
 Alpha virt. eigenvalues --    2.76256   2.77478   2.78726   2.83864   2.84897
 Alpha virt. eigenvalues --    2.87977   2.89017   2.91791   2.93052   2.98119
 Alpha virt. eigenvalues --    2.98964   3.01587   3.03871   3.05131   3.07961
 Alpha virt. eigenvalues --    3.09426   3.16775   3.21267   3.28048   3.29336
 Alpha virt. eigenvalues --    3.34018   3.37022   3.41376   3.50577   3.54839
 Alpha virt. eigenvalues --    3.56479   3.59755   3.62804   3.70064   3.73365
 Alpha virt. eigenvalues --    3.74853   3.81792   3.83384   3.88364   3.91015
 Alpha virt. eigenvalues --    3.98502   4.02482   4.07204   4.15611   4.26002
 Alpha virt. eigenvalues --    4.37255   4.51046   4.52913  23.42014  23.48695
 Alpha virt. eigenvalues --   23.54774  23.57327  23.58506  23.83741  23.92812
 Alpha virt. eigenvalues --   23.96051  24.19709  24.31111  24.52394  24.55268
 Alpha virt. eigenvalues --   25.10228  25.14983
          Condensed to atoms (all electrons):
               1          2          3          4          5          6
     1  C    7.285528   0.861327  -0.656588   0.695705   0.013789  -0.043075
     2  C    0.861327   8.561729   0.544911  -0.859770  -0.118098  -0.013581
     3  C   -0.656588   0.544911   6.890874   0.463611  -0.057844   0.018085
     4  C    0.695705  -0.859770   0.463611  13.032089  -0.254008  -0.257596
     5  C    0.013789  -0.118098  -0.057844  -0.254008   8.523831   1.195844
     6  C   -0.043075  -0.013581   0.018085  -0.257596   1.195844   7.686887
     7  C   -0.111119  -0.032533  -0.005057   0.229479  -1.605891  -1.765948
     8  C    0.405068   0.054574  -0.123914  -0.278291   2.592541   1.257996
     9  C   -0.733289  -1.600111   0.179570   1.094999  -0.914162   0.357198
    10  C   -0.540945  -0.280265   0.298856  -2.576025  -1.189213  -1.077695
    11  C    0.861487  -0.452486   0.276165  -1.180718  -1.304096   0.370209
    12  C   -1.215012   0.479799  -1.827833  -1.523863   0.406401  -0.892454
    13  C    0.056843  -0.404040  -0.390185  -0.658243  -0.772331   1.101032
    14  C   -1.363382  -0.630099   0.442229  -2.299565  -0.797409  -1.841484
    15  H    0.385486  -0.094675   0.000854   0.001089   0.005568   0.002662
    16  H   -0.016749   0.384471  -0.042443   0.040344  -0.002190  -0.000606
    17  H   -0.005911  -0.033033   0.403184  -0.071197   0.000002   0.000566
    18  H    0.026574   0.012326  -0.055479   0.570887   0.004648  -0.006115
    19  H   -0.013084  -0.012259   0.044313  -0.202140  -0.031105   0.066097
    20  H    0.003110   0.002102  -0.006562   0.023366   0.432304  -0.101652
    21  H   -0.001003  -0.000368   0.000295  -0.001983  -0.031867   0.336038
    22  H   -0.000565  -0.000123  -0.000117   0.000885  -0.009120  -0.004155
    23  H    0.013750   0.002827   0.000467  -0.008324   0.027105   0.044798
    24  H    0.045966   0.016960  -0.000926  -0.000212  -0.019154  -0.007417
    25  H    0.045966   0.016960  -0.000926  -0.000212  -0.019154  -0.007417
               7          8          9         10         11         12
     1  C   -0.111119   0.405068  -0.733289  -0.540945   0.861487  -1.215012
     2  C   -0.032533   0.054574  -1.600111  -0.280265  -0.452486   0.479799
     3  C   -0.005057  -0.123914   0.179570   0.298856   0.276165  -1.827833
     4  C    0.229479  -0.278291   1.094999  -2.576025  -1.180718  -1.523863
     5  C   -1.605891   2.592541  -0.914162  -1.189213  -1.304096   0.406401
     6  C   -1.765948   1.257996   0.357198  -1.077695   0.370209  -0.892454
     7  C    9.945348  -3.381022  -0.833927   0.896590  -0.908939   0.728147
     8  C   -3.381022  12.309035  -1.096237  -1.155655   0.541268  -0.744553
     9  C   -0.833927  -1.096237  10.285054  -0.065014   1.090702  -2.729160
    10  C    0.896590  -1.155655  -0.065014   8.612153   0.103633   1.803492
    11  C   -0.908939   0.541268   1.090702   0.103633  15.701051  -5.391970
    12  C    0.728147  -0.744553  -2.729160   1.803492  -5.391970  18.762746
    13  C   -0.261767  -1.176149   0.565088  -0.910296  -0.653193  -2.198248
    14  C    3.321563  -3.686714  -0.103387   1.700052  -2.567350   0.056804
    15  H   -0.004511  -0.000548   0.051162   0.009475  -0.039775   0.044311
    16  H    0.000487   0.002970  -0.006759  -0.023856   0.025275  -0.014451
    17  H   -0.000209  -0.001910   0.000048   0.017969   0.003485   0.025196
    18  H    0.003270   0.004418  -0.002987  -0.027611  -0.012793  -0.066134
    19  H   -0.015907  -0.040985   0.054189   0.401509   0.139578  -0.253197
    20  H    0.003407   0.065927  -0.030670   0.077323  -0.030284   0.056384
    21  H    0.042004  -0.059329  -0.002824   0.002659  -0.000915  -0.005372
    22  H    0.350370  -0.013986  -0.002714   0.002162  -0.007159   0.003730
    23  H   -0.159317   0.404556   0.109056  -0.019398   0.056587  -0.023485
    24  H    0.012305  -0.017506   0.374245   0.010993   0.039881  -0.037041
    25  H    0.012305  -0.017506   0.374245   0.010993   0.039881  -0.037041
              13         14         15         16         17         18
     1  C    0.056843  -1.363382   0.385486  -0.016749  -0.005911   0.026574
     2  C   -0.404040  -0.630099  -0.094675   0.384471  -0.033033   0.012326
     3  C   -0.390185   0.442229   0.000854  -0.042443   0.403184  -0.055479
     4  C   -0.658243  -2.299565   0.001089   0.040344  -0.071197   0.570887
     5  C   -0.772331  -0.797409   0.005568  -0.002190   0.000002   0.004648
     6  C    1.101032  -1.841484   0.002662  -0.000606   0.000566  -0.006115
     7  C   -0.261767   3.321563  -0.004511   0.000487  -0.000209   0.003270
     8  C   -1.176149  -3.686714  -0.000548   0.002970  -0.001910   0.004418
     9  C    0.565088  -0.103387   0.051162  -0.006759   0.000048  -0.002987
    10  C   -0.910296   1.700052   0.009475  -0.023856   0.017969  -0.027611
    11  C   -0.653193  -2.567350  -0.039775   0.025275   0.003485  -0.012793
    12  C   -2.198248   0.056804   0.044311  -0.014451   0.025196  -0.066134
    13  C   11.355184   0.552495  -0.031505   0.007813  -0.007787  -0.003350
    14  C    0.552495  12.754993   0.009710  -0.022461   0.010578  -0.100760
    15  H   -0.031505   0.009710   0.419923  -0.004809   0.001840  -0.000192
    16  H    0.007813  -0.022461  -0.004809   0.391681  -0.005755   0.002863
    17  H   -0.007787   0.010578   0.001840  -0.005755   0.409885  -0.012048
    18  H   -0.003350  -0.100760  -0.000192   0.002863  -0.012048   0.431579
    19  H    0.082609   0.146534   0.001239  -0.000821   0.003616  -0.008800
    20  H   -0.016376  -0.149718  -0.000307   0.000066  -0.000306   0.001811
    21  H    0.002942   0.064838   0.000053  -0.000009   0.000009  -0.000095
    22  H    0.020243   0.002384  -0.000144   0.000006  -0.000003   0.000012
    23  H   -0.074618  -0.075826   0.000540  -0.000120  -0.000014  -0.000124
    24  H   -0.058394  -0.025389  -0.000981   0.000545  -0.000065   0.000083
    25  H   -0.058394  -0.025389  -0.000981   0.000545  -0.000065   0.000083
              19         20         21         22         23         24
     1  C   -0.013084   0.003110  -0.001003  -0.000565   0.013750   0.045966
     2  C   -0.012259   0.002102  -0.000368  -0.000123   0.002827   0.016960
     3  C    0.044313  -0.006562   0.000295  -0.000117   0.000467  -0.000926
     4  C   -0.202140   0.023366  -0.001983   0.000885  -0.008324  -0.000212
     5  C   -0.031105   0.432304  -0.031867  -0.009120   0.027105  -0.019154
     6  C    0.066097  -0.101652   0.336038  -0.004155   0.044798  -0.007417
     7  C   -0.015907   0.003407   0.042004   0.350370  -0.159317   0.012305
     8  C   -0.040985   0.065927  -0.059329  -0.013986   0.404556  -0.017506
     9  C    0.054189  -0.030670  -0.002824  -0.002714   0.109056   0.374245
    10  C    0.401509   0.077323   0.002659   0.002162  -0.019398   0.010993
    11  C    0.139578  -0.030284  -0.000915  -0.007159   0.056587   0.039881
    12  C   -0.253197   0.056384  -0.005372   0.003730  -0.023485  -0.037041
    13  C    0.082609  -0.016376   0.002942   0.020243  -0.074618  -0.058394
    14  C    0.146534  -0.149718   0.064838   0.002384  -0.075826  -0.025389
    15  H    0.001239  -0.000307   0.000053  -0.000144   0.000540  -0.000981
    16  H   -0.000821   0.000066  -0.000009   0.000006  -0.000120   0.000545
    17  H    0.003616  -0.000306   0.000009  -0.000003  -0.000014  -0.000065
    18  H   -0.008800   0.001811  -0.000095   0.000012  -0.000124   0.000083
    19  H    0.487024  -0.014423   0.000535  -0.000360   0.000306   0.000474
    20  H   -0.014423   0.482488  -0.005746   0.001627  -0.001333   0.000525
    21  H    0.000535  -0.005746   0.423606  -0.001292   0.000482  -0.000179
    22  H   -0.000360   0.001627  -0.001292   0.428257  -0.006155   0.000757
    23  H    0.000306  -0.001333   0.000482  -0.006155   0.478248  -0.000287
    24  H    0.000474   0.000525  -0.000179   0.000757  -0.000287   0.469300
    25  H    0.000474   0.000525  -0.000179   0.000757  -0.000287  -0.066123
              25
     1  C    0.045966
     2  C    0.016960
     3  C   -0.000926
     4  C   -0.000212
     5  C   -0.019154
     6  C   -0.007417
     7  C    0.012305
     8  C   -0.017506
     9  C    0.374245
    10  C    0.010993
    11  C    0.039881
    12  C   -0.037041
    13  C   -0.058394
    14  C   -0.025389
    15  H   -0.000981
    16  H    0.000545
    17  H   -0.000065
    18  H    0.000083
    19  H    0.000474
    20  H    0.000525
    21  H   -0.000179
    22  H    0.000757
    23  H   -0.000287
    24  H   -0.066123
    25  H    0.469300
 Mulliken charges:
               1
     1  C    0.000121
     2  C   -0.406544
     3  C   -0.395539
     4  C    0.019694
     5  C   -0.076395
     6  C   -0.418217
     7  C   -0.459127
     8  C    0.155950
     9  C   -0.414315
    10  C   -0.081886
    11  C   -0.699525
    12  C    0.592805
    13  C   -0.069371
    14  C    0.626755
    15  H    0.244521
    16  H    0.283964
    17  H    0.261925
    18  H    0.237935
    19  H    0.164586
    20  H    0.206411
    21  H    0.237699
    22  H    0.234703
    23  H    0.230568
    24  H    0.261641
    25  H    0.261641
 Sum of Mulliken charges =   1.00000
 Mulliken charges with hydrogens summed into heavy atoms:
               1
     1  C    0.244642
     2  C   -0.122579
     3  C   -0.133614
     4  C    0.257629
     5  C    0.130016
     6  C   -0.180518
     7  C   -0.224424
     8  C    0.386518
     9  C    0.108967
    10  C    0.082700
    11  C   -0.699525
    12  C    0.592805
    13  C   -0.069371
    14  C    0.626755
 Electronic spatial extent (au):  <R**2>=           2864.1369
 Charge=              1.0000 electrons
 Dipole moment (field-independent basis, Debye):
    X=              2.4160    Y=             -5.1633    Z=              0.0000  Tot=              5.7006
 Quadrupole moment (field-independent basis, Debye-Ang):
   XX=            -46.9194   YY=            -36.6691   ZZ=            -83.4457
   XY=            -14.3318   XZ=             -0.0000   YZ=             -0.0000
 Traceless Quadrupole moment (field-independent basis, Debye-Ang):
   XX=              8.7586   YY=             19.0090   ZZ=            -27.7676
   XY=            -14.3318   XZ=             -0.0000   YZ=             -0.0000
 Octapole moment (field-independent basis, Debye-Ang**2):
  XXX=             20.0070  YYY=            -55.5804  ZZZ=             -0.0000  XYY=             14.0239
  XXY=             -7.9988  XXZ=              0.0000  XZZ=              2.3365  YZZ=             -9.8842
  YYZ=              0.0000  XYZ=              0.0000
 Hexadecapole moment (field-independent basis, Debye-Ang**3):
 XXXX=          -1149.9000 YYYY=          -1678.7095 ZZZZ=            -98.0875 XXXY=            374.2539
 XXXZ=             -0.0000 YYYX=            311.8980 YYYZ=             -0.0000 ZZZX=             -0.0000
 ZZZY=             -0.0000 XXYY=           -436.6904 XXZZ=           -283.0023 YYZZ=           -448.7379
 XXYZ=             -0.0000 YYXZ=             -0.0000 ZZXY=            204.4871
 N-N= 7.844366970954D+02 E-N=-2.806192050172D+03  KE= 5.391795165493D+02
 Symmetry A'   KE= 5.241490542918D+02
 Symmetry A"   KE= 1.503046225748D+01
 Unable to Open any file for archive entry.
 1\1\GINC-GADI-CPU-CLX-0240\SP\RM062X TD-FC\6-311++G(d,p)\C14H11(1+)\TS
 1578\02-Aug-2022\0\\#n M062X/6-311++G(d,p) TD(NStates=1) EmpiricalDisp
 ersion=GD3 SP\\SP_10\\1,1\C,0,0.,2.306655,1.338431\C,0,0.,3.511508,0.6
 01989\C,0,0.,3.609861,-0.86183\C,0,0.,2.687156,-1.505538\C,0,0.,-2.239
 156,-1.309538\C,0,0.,-3.757861,-0.56583\C,0,0.,-3.891508,0.741989\C,0,
 0.,-2.678655,1.382431\C,0,0.,-0.072,1.453369\C,0,0.,0.278,-1.429189\C,
 0,0.,1.340055,0.745065\C,0,0.,1.335471,-0.778804\C,0,0.,-1.184055,0.60
 9065\C,0,0.,-1.139471,-0.682804\H,0,0.,2.384071,2.421647\H,0,0.,4.4327
 53,1.175689\H,0,0.,4.627262,-1.262349\H,0,0.,2.60955,-2.588059\H,0,0.,
 0.188,-2.510266\H,0,0.,-2.32555,-2.392059\H,0,0.,-4.591262,-1.282349\H
 ,0,0.,-4.840753,1.247689\H,0,0.,-2.592071,2.465647\H,0,-0.859585,-0.39
 2,2.145787\H,0,0.859585,-0.392,2.145787\\Version=ES64L-G16RevC.01\Stat
 e=1-A'\HF=-539.373672\RMSD=9.839e-09\PG=CS [SG(C14H9),X(H2)]\\@
 The archive entry for this job was punched.


 IT CANNOT BE MY BEAUTY, FOR I HAVE NONE; AND IT CANNOT BE MY WIT,
 FOR HE HAS NOT ENOUGH TO KNOW THAT I HAVE ANY.
 -- CATHARINE SEDLEY, PUZZLED ABOUT WHY SHE WAS MISTRESS TO JAMES II
 Job cpu time:       0 days  0 hours 53 minutes 37.9 seconds.
 Elapsed time:       0 days  0 hours  1 minutes  7.2 seconds.
 File lengths (MBytes):  RWF=    460 Int=      0 D2E=      0 Chk=     15 Scr=      1
 Normal termination of Gaussian 16 at Tue Aug  2 13:17:38 2022.
