 Entering Gaussian System, Link 0=g16
 Initial command:
 /apps/gaussian/g16c01/g16/l1.exe "/jobfs/53803565.gadi-pbs/Gau-1041061.inp" -scrdir="/jobfs/53803565.gadi-pbs/"
 Entering Link 1 = /apps/gaussian/g16c01/g16/l1.exe PID=   1041062.
  
 Copyright (c) 1988-2019, Gaussian, Inc.  All Rights Reserved.
  
 This is part of the Gaussian(R) 16 program.  It is based on
 the Gaussian(R) 09 system (copyright 2009, Gaussian, Inc.),
 the Gaussian(R) 03 system (copyright 2003, Gaussian, Inc.),
 the Gaussian(R) 98 system (copyright 1998, Gaussian, Inc.),
 the Gaussian(R) 94 system (copyright 1995, Gaussian, Inc.),
 the Gaussian 92(TM) system (copyright 1992, Gaussian, Inc.),
 the Gaussian 90(TM) system (copyright 1990, Gaussian, Inc.),
 the Gaussian 88(TM) system (copyright 1988, Gaussian, Inc.),
 the Gaussian 86(TM) system (copyright 1986, Carnegie Mellon
 University), and the Gaussian 82(TM) system (copyright 1983,
 Carnegie Mellon University). Gaussian is a federally registered
 trademark of Gaussian, Inc.
  
 This software contains proprietary and confidential information,
 including trade secrets, belonging to Gaussian, Inc.
  
 This software is provided under written license and may be
 used, copied, transmitted, or stored only in accord with that
 written license.
  
 The following legend is applicable only to US Government
 contracts under FAR:
  
                    RESTRICTED RIGHTS LEGEND
  
 Use, reproduction and disclosure by the US Government is
 subject to restrictions as set forth in subparagraphs (a)
 and (c) of the Commercial Computer Software - Restricted
 Rights clause in FAR 52.227-19.
  
 Gaussian, Inc.
 340 Quinnipiac St., Bldg. 40, Wallingford CT 06492
  
  
 ---------------------------------------------------------------
 Warning -- This program may not be used in any manner that
 competes with the business of Gaussian, Inc. or will provide
 assistance to any competitor of Gaussian, Inc.  The licensee
 of this program is prohibited from giving any competitor of
 Gaussian, Inc. access to this program.  By using this program,
 the user acknowledges that Gaussian, Inc. is engaged in the
 business of creating and licensing software in the field of
 computational chemistry and represents and warrants to the
 licensee that it is not a competitor of Gaussian, Inc. and that
 it will not use this program in any manner prohibited above.
 ---------------------------------------------------------------
  

 Cite this work as:
 Gaussian 16, Revision C.01,
 M. J. Frisch, G. W. Trucks, H. B. Schlegel, G. E. Scuseria, 
 M. A. Robb, J. R. Cheeseman, G. Scalmani, V. Barone, 
 G. A. Petersson, H. Nakatsuji, X. Li, M. Caricato, A. V. Marenich, 
 J. Bloino, B. G. Janesko, R. Gomperts, B. Mennucci, H. P. Hratchian, 
 J. V. Ortiz, A. F. Izmaylov, J. L. Sonnenberg, D. Williams-Young, 
 F. Ding, F. Lipparini, F. Egidi, J. Goings, B. Peng, A. Petrone, 
 T. Henderson, D. Ranasinghe, V. G. Zakrzewski, J. Gao, N. Rega, 
 G. Zheng, W. Liang, M. Hada, M. Ehara, K. Toyota, R. Fukuda, 
 J. Hasegawa, M. Ishida, T. Nakajima, Y. Honda, O. Kitao, H. Nakai, 
 T. Vreven, K. Throssell, J. A. Montgomery, Jr., J. E. Peralta, 
 F. Ogliaro, M. J. Bearpark, J. J. Heyd, E. N. Brothers, K. N. Kudin, 
 V. N. Staroverov, T. A. Keith, R. Kobayashi, J. Normand, 
 K. Raghavachari, A. P. Rendell, J. C. Burant, S. S. Iyengar, 
 J. Tomasi, M. Cossi, J. M. Millam, M. Klene, C. Adamo, R. Cammi, 
 J. W. Ochterski, R. L. Martin, K. Morokuma, O. Farkas, 
 J. B. Foresman, and D. J. Fox, Gaussian, Inc., Wallingford CT, 2019.
 
 ******************************************
 Gaussian 16:  ES64L-G16RevC.01  3-Jul-2019
                 2-Aug-2022 
 ******************************************
 %NProcShared=48
 Will use up to   48 processors via shared memory.
 %mem = 190GB
 ---------------------------------------------------------------
 #n M062X/6-311++G(d,p) TD(NStates=1) EmpiricalDispersion=GD3 SP
 ---------------------------------------------------------------
 1/38=1,172=1/1;
 2/12=2,17=6,18=5,40=1/2;
 3/5=4,6=6,7=1111,11=9,25=1,30=1,74=-55,124=31/1,2,3,8;
 4//1;
 5/5=2,38=5/2;
 8/6=1,10=2,108=1/1;
 9/41=1,42=1,70=2/14;
 6/7=2,8=2,9=2,10=2/1;
 99/5=1,9=1/99;
 -----
 SP_-2
 -----
 Symbolic Z-matrix:
 Charge =  1 Multiplicity = 1
 C                     0.        2.55066   1.38243 
 C                     0.        3.74751   0.67799 
 C                     0.        3.68586  -0.69383 
 C                     0.        2.39916  -1.37354 
 C                     0.       -2.52716  -1.44154 
 C                     0.       -3.68186  -0.73383 
 C                     0.       -3.65551   0.66599 
 C                     0.       -2.43466   1.33843 
 C                     0.        0.008     1.45337 
 C                     0.       -0.046    -1.42919 
 C                     0.        1.25606   0.69707 
 C                     0.        1.21147  -0.6908 
 C                     0.       -1.26806   0.65707 
 C                     0.       -1.26347  -0.7708 
 H                     0.        2.55207   2.46565 
 H                     0.        4.69675   1.19169 
 H                     0.        4.58326  -1.29835 
 H                     0.        2.39755  -2.45606 
 H                     0.        0.012    -2.51027 
 H                     0.       -2.53755  -2.52406 
 H                     0.       -4.63526  -1.24635 
 H                     0.       -4.57675   1.23169 
 H                     0.       -2.42407   2.42165 
 H                    -0.85959   0.04      2.14579 
 H                     0.85959   0.04      2.14579 
 
                          Input orientation:                          
 ---------------------------------------------------------------------
 Center     Atomic      Atomic             Coordinates (Angstroms)
 Number     Number       Type             X           Y           Z
 ---------------------------------------------------------------------
      1          6           0        0.000000    2.550655    1.382431
      2          6           0        0.000000    3.747508    0.677989
      3          6           0        0.000000    3.685861   -0.693830
      4          6           0        0.000000    2.399156   -1.373538
      5          6           0        0.000000   -2.527156   -1.441538
      6          6           0        0.000000   -3.681861   -0.733830
      7          6           0        0.000000   -3.655508    0.665989
      8          6           0        0.000000   -2.434655    1.338431
      9          6           0        0.000000    0.008000    1.453369
     10          6           0        0.000000   -0.046000   -1.429189
     11          6           0        0.000000    1.256055    0.697065
     12          6           0        0.000000    1.211471   -0.690804
     13          6           0        0.000000   -1.268055    0.657065
     14          6           0        0.000000   -1.263471   -0.770804
     15          1           0        0.000000    2.552071    2.465647
     16          1           0        0.000000    4.696753    1.191689
     17          1           0        0.000000    4.583262   -1.298349
     18          1           0        0.000000    2.397550   -2.456059
     19          1           0        0.000000    0.012000   -2.510266
     20          1           0        0.000000   -2.537550   -2.524059
     21          1           0        0.000000   -4.635262   -1.246349
     22          1           0        0.000000   -4.576753    1.231689
     23          1           0        0.000000   -2.424071    2.421647
     24          1           0       -0.859585    0.040000    2.145787
     25          1           0        0.859585    0.040000    2.145787
 ---------------------------------------------------------------------
                    Distance matrix (angstroms):
                    1          2          3          4          5
     1  C    0.000000
     2  C    1.388775   0.000000
     3  C    2.366337   1.373203   0.000000
     4  C    2.760130   2.454957   1.455202   0.000000
     5  C    5.810247   6.622975   6.257847   4.926781   0.000000
     6  C    6.582007   7.562325   7.367831   6.114572   1.354324
     7  C    6.247379   7.403026   7.466244   6.388946   2.390575
     8  C    4.985504   6.217341   6.449093   5.542608   2.781508
     9  C    2.543644   3.819049   4.258770   3.702571   3.848052
    10  C    3.827248   4.339459   3.803622   2.445789   2.481187
    11  C    1.464826   2.491526   2.799740   2.365180   4.345838
    12  C    2.468140   2.881853   2.474392   1.369935   3.813258
    13  C    3.886991   5.015607   5.134803   4.191871   2.447339
    14  C    4.379952   5.216216   4.949931   3.711890   1.430659
    15  H    1.083217   2.150533   3.356751   3.842229   6.408170
    16  H    2.154558   1.079330   2.139412   3.443739   7.688872
    17  H    3.364234   2.145786   1.082022   2.185400   7.111860
    18  H    3.841542   3.412425   2.182933   1.082522   5.028119
    19  H    4.647350   4.911109   4.098377   2.643986   2.754903
    20  H    6.414865   7.053727   6.486955   5.069000   1.082571
    21  H    7.651659   8.600809   8.339446   7.035568   2.117123
    22  H    7.129002   8.342656   8.484009   7.446510   3.368529
    23  H    5.082113   6.413169   6.858387   6.137340   3.864560
    24  H    2.761338   4.079085   4.700491   4.323211   4.494227
    25  H    2.761338   4.079085   4.700491   4.323211   4.494227
                    6          7          8          9         10
     6  C    0.000000
     7  C    1.400067   0.000000
     8  C    2.418634   1.393793   0.000000
     9  C    4.289395   3.747167   2.445358   0.000000
    10  C    3.701758   4.173526   3.655871   2.883064   0.000000
    11  C    5.141058   4.911661   3.746023   1.459328   2.493252
    12  C    4.893521   5.052561   4.172772   2.458825   1.458234
    13  C    2.785866   2.387470   1.351005   1.504133   2.417824
    14  C    2.418673   2.790379   2.412580   2.561949   1.384090
    15  H    7.007037   6.463189   5.112539   2.738066   4.681850
    16  H    8.597023   8.368789   7.132918   4.696050   5.418737
    17  H    8.284379   8.469708   7.496917   5.339005   4.631111
    18  H    6.318648   6.810778   6.143969   4.581875   2.650547
    19  H    4.098821   4.851722   4.560547   3.963637   1.082632
    20  H    2.124704   3.380272   3.863860   4.722262   2.721500
    21  H    1.082427   2.148710   3.394666   5.371067   4.592903
    22  H    2.159652   1.081068   2.144756   4.590109   5.254331
    23  H    3.396921   2.144475   1.083268   2.617734   4.525943
    24  H    4.783652   4.072526   2.741282   1.104243   3.677871
    25  H    4.783652   4.072526   2.741282   1.104243   3.677871
                   11         12         13         14         15
    11  C    0.000000
    12  C    1.388585   0.000000
    13  C    2.524427   2.822198   0.000000
    14  C    2.915930   2.476235   1.427876   0.000000
    15  H    2.192610   3.429343   4.226622   5.003296   0.000000
    16  H    3.476069   3.961183   5.988719   6.275002   2.494520
    17  H    3.879689   3.426089   6.169405   5.870485   4.277079
    18  H    3.353387   2.126713   4.809179   4.030280   4.924131
    19  H    3.440152   2.179260   3.416215   2.156978   5.586741
    20  H    4.976653   4.173246   3.425079   2.167298   7.127511
    21  H    6.203586   5.873067   3.867954   3.405160   8.089294
    22  H    5.857258   6.099141   3.358225   3.871410   7.234831
    23  H    4.064174   4.785866   2.109531   3.396871   4.976337
    24  H    2.077612   3.187080   2.160136   3.308236   2.674266
    25  H    2.077612   3.187080   2.160136   3.308236   2.674266
                   16         17         18         19         20
    16  H    0.000000
    17  H    2.492623   0.000000
    18  H    4.311891   2.473384   0.000000
    19  H    5.970878   4.729184   2.386166   0.000000
    20  H    8.132768   7.225533   4.935568   2.549587   0.000000
    21  H    9.645234   9.218671   7.136094   4.816070   2.456204
    22  H    9.273592   9.502998   7.889258   5.921054   4.273639
    23  H    7.226267   7.933542   6.858575   5.500746   4.947008
    24  H    4.830584   5.765604   5.241557   4.734818   5.402787
    25  H    4.830584   5.765604   5.241557   4.734818   5.402787
                   21         22         23         24         25
    21  H    0.000000
    22  H    2.478729   0.000000
    23  H    4.282938   2.459683   0.000000
    24  H    5.839824   4.784231   2.624239   0.000000
    25  H    5.839824   4.784231   2.624239   1.719170   0.000000
 Stoichiometry    C14H11(1+)
 Framework group  CS[SG(C14H9),X(H2)]
 Deg. of freedom    46
 Full point group                 CS      NOp   2
 Largest Abelian subgroup         CS      NOp   2
 Largest concise Abelian subgroup CS      NOp   2
                         Standard orientation:                         
 ---------------------------------------------------------------------
 Center     Atomic      Atomic             Coordinates (Angstroms)
 Number     Number       Type             X           Y           Z
 ---------------------------------------------------------------------
      1          6           0        2.464390    1.530225    0.000000
      2          6           0        2.445510    2.918872    0.000000
      3          6           0        1.223374    3.545028    0.000000
      4          6           0       -0.004567    2.764148    0.000000
      5          6           0       -2.504506   -1.481259    0.000000
      6          6           0       -2.461905   -2.834913    0.000000
      7          6           0       -1.232935   -3.505600    0.000000
      8          6           0       -0.043934   -2.778320    0.000000
      9          6           0        1.266182   -0.713527    0.000000
     10          6           0       -1.264424    0.667808    0.000000
     11          6           0        1.227623    0.745291    0.000000
     12          6           0        0.000000    1.394221    0.000000
     13          6           0       -0.057760   -1.427386    0.000000
     14          6           0       -1.295766   -0.715928    0.000000
     15          1           0        3.405996    0.994747    0.000000
     16          1           0        3.362049    3.488880    0.000000
     17          1           0        1.142917    4.624055    0.000000
     18          1           0       -0.945663    3.299117    0.000000
     19          1           0       -2.174733    1.253836    0.000000
     20          1           0       -3.449957   -0.953923    0.000000
     21          1           0       -3.379478   -3.409116    0.000000
     22          1           0       -1.198012   -4.586104    0.000000
     23          1           0        0.902215   -3.305835    0.000000
     24          1           0        1.883487   -1.028808    0.859585
     25          1           0        1.883487   -1.028808   -0.859585
 ---------------------------------------------------------------------
 Rotational constants (GHZ):           2.1373580           0.4444189           0.3687176
 Standard basis: 6-311++G(d,p) (5D, 7F)
 There are   299 symmetry adapted cartesian basis functions of A'  symmetry.
 There are   100 symmetry adapted cartesian basis functions of A"  symmetry.
 There are   285 symmetry adapted basis functions of A'  symmetry.
 There are   100 symmetry adapted basis functions of A"  symmetry.
   385 basis functions,   603 primitive gaussians,   399 cartesian basis functions
    47 alpha electrons       47 beta electrons
       nuclear repulsion energy       781.2732128652 Hartrees.
 NAtoms=   25 NActive=   25 NUniq=   24 SFac= 1.09D+00 NAtFMM=   60 NAOKFM=F Big=F
 Integral buffers will be    131072 words long.
 Regular integral format.
 Two-electron integral symmetry is turned on.
 Nuclear repulsion after empirical dispersion term =      781.2722339922 Hartrees.
 One-electron integrals computed using PRISM.
 NBasis=   385 RedAO= T EigKep=  1.13D-06  NBF=   285   100
 NBsUse=   379 1.00D-06 EigRej=  8.34D-07 NBFU=   279   100
 ExpMin= 3.60D-02 ExpMax= 4.56D+03 ExpMxC= 6.82D+02 IAcc=3 IRadAn=         5 AccDes= 0.00D+00
 Harris functional with IExCor= 1009 and IRadAn=       5 diagonalized for initial guess.
 HarFok:  IExCor= 1009 AccDes= 0.00D+00 IRadAn=         5 IDoV= 1 UseB2=F ITyADJ=14
 ICtDFT=  3500011 ScaDFX=  1.000000  1.000000  1.000000  1.000000
 FoFCou: FMM=F IPFlag=           0 FMFlag=      100000 FMFlg1=           0
         NFxFlg=           0 DoJE=T BraDBF=F KetDBF=T FulRan=T
         wScrn=  0.000000 ICntrl=       500 IOpCl=  0 I1Cent=   200000004 NGrid=           0
         NMat0=    1 NMatS0=      1 NMatT0=    0 NMatD0=    1 NMtDS0=    0 NMtDT0=    0
 Petite list used in FoFCou.
 Initial guess orbital symmetries:
       Occupied  (A') (A') (A') (A') (A') (A') (A') (A') (A') (A')
                 (A') (A') (A') (A') (A') (A') (A') (A') (A') (A')
                 (A') (A') (A') (A') (A') (A') (A') (A') (A') (A')
                 (A') (A') (A") (A') (A') (A') (A') (A') (A") (A')
                 (A") (A') (A') (A") (A") (A") (A")
       Virtual   (A") (A") (A") (A") (A") (A') (A') (A') (A') (A")
                 (A") (A') (A') (A') (A") (A') (A') (A') (A') (A")
                 (A') (A") (A') (A') (A') (A") (A') (A") (A') (A')
                 (A') (A') (A') (A') (A") (A') (A") (A') (A') (A')
                 (A") (A') (A') (A") (A') (A') (A') (A') (A") (A')
                 (A') (A') (A") (A") (A') (A') (A') (A") (A") (A')
                 (A') (A') (A') (A') (A') (A') (A") (A') (A') (A")
                 (A') (A') (A') (A') (A') (A') (A') (A') (A') (A')
                 (A') (A') (A') (A') (A') (A') (A') (A') (A') (A')
                 (A') (A') (A') (A') (A') (A') (A') (A") (A') (A")
                 (A') (A") (A') (A") (A') (A") (A') (A") (A") (A')
                 (A') (A") (A') (A') (A") (A') (A') (A") (A") (A")
                 (A') (A") (A') (A') (A') (A") (A') (A') (A') (A")
                 (A') (A') (A') (A') (A') (A') (A") (A') (A') (A')
                 (A') (A') (A') (A') (A') (A') (A') (A') (A') (A")
                 (A") (A') (A") (A") (A') (A') (A") (A') (A") (A')
                 (A") (A') (A") (A") (A") (A') (A') (A') (A') (A')
                 (A') (A") (A') (A') (A") (A') (A') (A') (A') (A")
                 (A') (A') (A') (A') (A") (A") (A') (A') (A") (A")
                 (A") (A') (A') (A") (A') (A') (A') (A") (A') (A')
                 (A") (A") (A") (A') (A') (A") (A') (A") (A') (A')
                 (A") (A") (A') (A') (A") (A') (A") (A') (A') (A")
                 (A') (A') (A') (A') (A") (A') (A') (A') (A") (A")
                 (A') (A') (A') (A") (A') (A') (A") (A') (A") (A')
                 (A") (A') (A') (A') (A') (A") (A') (A') (A') (A")
                 (A') (A') (A') (A") (A") (A') (A') (A") (A') (A')
                 (A') (A") (A') (A") (A') (A') (A') (A") (A') (A")
                 (A') (A') (A') (A') (A") (A') (A") (A') (A") (A")
                 (A') (A') (A") (A") (A") (A') (A') (A') (A') (A')
                 (A') (A') (A') (A') (A') (A') (A') (A') (A') (A')
                 (A') (A') (A') (A') (A") (A') (A') (A') (A') (A')
                 (A') (A') (A') (A') (A') (A') (A') (A') (A') (A')
                 (A') (A') (A') (A') (A') (A') (A') (A') (A') (A')
                 (A') (A')
 The electronic state of the initial guess is 1-A'.
 Requested convergence on RMS density matrix=1.00D-08 within 128 cycles.
 Requested convergence on MAX density matrix=1.00D-06.
 Requested convergence on             energy=1.00D-06.
 No special actions if energy rises.
 SCF Done:  E(RM062X) =  -539.746353721     A.U. after   16 cycles
            NFock= 16  Conv=0.38D-08     -V/T= 2.0041
 DoSCS=F DFT=T ScalE2(SS,OS)=  1.000000  1.000000
 ExpMin= 3.60D-02 ExpMax= 4.56D+03 ExpMxC= 6.82D+02 IAcc=3 IRadAn=         5 AccDes= 0.00D+00
 HarFok:  IExCor=  205 AccDes= 0.00D+00 IRadAn=         5 IDoV=-2 UseB2=F ITyADJ=14
 ICtDFT= 12500011 ScaDFX=  1.000000  1.000000  1.000000  1.000000
 Range of M.O.s used for correlation:    15   379
 NBasis=   385 NAE=    47 NBE=    47 NFC=    14 NFV=     0
 NROrb=    365 NOA=    33 NOB=    33 NVA=   332 NVB=   332

 **** Warning!!: The largest alpha MO coefficient is  0.15409091D+03

 Orbital symmetries:
       Occupied  (A') (A') (A') (A') (A') (A') (A') (A') (A') (A')
                 (A') (A') (A') (A') (A') (A') (A') (A') (A') (A')
                 (A') (A') (A') (A') (A') (A') (A') (A') (A') (A')
                 (A') (A") (A') (A') (A') (A') (A') (A") (A') (A")
                 (A') (A') (A') (A") (A") (A") (A")
       Virtual   (A") (A") (A") (A") (A') (A') (A') (A') (A") (A')
                 (A') (A") (A') (A') (A") (A') (A") (A') (A') (A')
                 (A") (A") (A') (A') (A') (A") (A') (A") (A') (A')
                 (A") (A') (A") (A') (A') (A') (A') (A') (A") (A')
                 (A") (A') (A') (A") (A") (A') (A") (A') (A") (A')
                 (A') (A') (A') (A') (A") (A') (A') (A') (A') (A')
                 (A") (A') (A') (A') (A') (A") (A') (A') (A') (A')
                 (A') (A') (A') (A') (A') (A') (A') (A') (A') (A')
                 (A') (A') (A') (A') (A') (A') (A') (A') (A') (A')
                 (A') (A') (A') (A') (A") (A') (A") (A") (A') (A")
                 (A') (A') (A') (A') (A") (A") (A') (A") (A") (A')
                 (A') (A") (A') (A') (A") (A') (A') (A") (A') (A")
                 (A") (A') (A") (A') (A') (A') (A") (A') (A') (A')
                 (A') (A') (A') (A') (A') (A') (A') (A') (A') (A')
                 (A') (A') (A') (A") (A') (A') (A') (A') (A') (A')
                 (A') (A") (A') (A') (A") (A') (A") (A") (A') (A")
                 (A") (A') (A') (A") (A') (A") (A") (A") (A') (A')
                 (A') (A') (A') (A") (A") (A') (A') (A') (A') (A")
                 (A') (A') (A') (A") (A') (A") (A') (A") (A") (A')
                 (A") (A') (A') (A") (A') (A") (A') (A') (A') (A')
                 (A") (A") (A") (A') (A") (A') (A') (A") (A') (A')
                 (A') (A") (A") (A') (A") (A') (A') (A") (A') (A")
                 (A') (A') (A') (A') (A") (A') (A') (A') (A") (A")
                 (A') (A') (A') (A") (A') (A') (A') (A") (A") (A')
                 (A") (A') (A') (A") (A') (A') (A') (A') (A') (A')
                 (A") (A') (A') (A') (A') (A") (A") (A") (A') (A')
                 (A') (A') (A') (A') (A') (A') (A") (A') (A') (A')
                 (A') (A") (A') (A") (A") (A") (A') (A") (A") (A')
                 (A') (A") (A") (A') (A") (A") (A') (A') (A') (A')
                 (A') (A') (A') (A') (A') (A') (A') (A') (A') (A')
                 (A') (A') (A') (A") (A') (A') (A') (A') (A') (A')
                 (A') (A') (A') (A') (A') (A') (A') (A') (A') (A')
                 (A') (A') (A') (A') (A') (A') (A') (A') (A') (A')
                 (A') (A')
     4 initial guesses have been made.
 Convergence on wavefunction:    0.001000000000000
 Iteration     1 Dimension     4 NMult     0 NNew      4
 CISAX will form     4 AO SS matrices at one time.
 Iteration     2 Dimension     6 NMult     4 NNew      2
 Iteration     3 Dimension     8 NMult     6 NNew      2
 Iteration     4 Dimension    10 NMult     8 NNew      2
 Iteration     5 Dimension    12 NMult    10 NNew      2
 Iteration     6 Dimension    14 NMult    12 NNew      2
 ***********************************************************************
 Excited states from <AA,BB:AA,BB> singles matrix:
 ***********************************************************************
 
 Ground to excited state transition densities written to RWF  633
 Ground to excited state transition electric dipole moments (Au):
       state          X           Y           Z        Dip. S.      Osc.
         1         0.5031     -0.1447     -0.0000      0.2740      0.0172
 Ground to excited state transition velocity dipole moments (Au):
       state          X           Y           Z        Dip. S.      Osc.
         1        -0.0511      0.0202     -0.0000      0.0030      0.0213
 Ground to excited state transition magnetic dipole moments (Au):
       state          X           Y           Z
         1         0.0000     -0.0000      0.1732
 Ground to excited state transition velocity quadrupole moments (Au):
       state          XX          YY          ZZ          XY          XZ          YZ
         1        -0.0038      0.2370     -0.0077      0.0435     -0.0000     -0.0000
 <0|del|b> * <b|rxdel|0> + <0|del|b> * <b|delr+rdel|0>
 Rotatory Strengths (R) in cgs (10**-40 erg-esu-cm/Gauss)
       state          XX          YY          ZZ    R(velocity)    E-M Angle
         1        -0.0000     -0.0000     -0.0000     -0.0000       90.00
 1/2[<0|r|b>*<b|rxdel|0> + (<0|rxdel|b>*<b|r|0>)*]
 Rotatory Strengths (R) in cgs (10**-40 erg-esu-cm/Gauss)
       state          XX          YY          ZZ     R(length)
         1        -0.0000     -0.0000      0.0000     -0.0000
  1/2[<0|del|b>*<b|r|0> + (<0|r|b>*<b|del|0>)*] (Au)
       state          X           Y           Z        Dip. S.   Osc.(frdel)
         1        -0.0257     -0.0029      0.0000      0.0286      0.0191

 Excitation energies and oscillator strengths:
 
 Excited State   1:      Singlet-A'     2.5682 eV  482.77 nm  f=0.0172  <S**2>=0.000
      47 -> 48         0.70332
 This state for optimization and/or second-order correction.
 Total Energy, E(TD-HF/TD-DFT) =  -539.651974121    
 Copying the excited state density for this state as the 1-particle RhoCI density.
 SavETr:  write IOETrn=   770 NScale= 10 NData=  16 NLR=1 NState=    1 LETran=      28.

 **********************************************************************

            Population analysis using the SCF Density.

 **********************************************************************

 Orbital symmetries:
       Occupied  (A') (A') (A') (A') (A') (A') (A') (A') (A') (A')
                 (A') (A') (A') (A') (A') (A') (A') (A') (A') (A')
                 (A') (A') (A') (A') (A') (A') (A') (A') (A') (A')
                 (A') (A") (A') (A') (A') (A') (A') (A") (A') (A")
                 (A') (A') (A') (A") (A") (A") (A")
       Virtual   (A") (A") (A") (A") (A') (A') (A') (A') (A") (A')
                 (A') (A") (A') (A') (A") (A') (A") (A') (A') (A')
                 (A") (A") (A') (A') (A') (A") (A') (A") (A') (A')
                 (A") (A') (A") (A') (A') (A') (A') (A') (A") (A')
                 (A") (A') (A') (A") (A") (A') (A") (A') (A") (A')
                 (A') (A') (A') (A') (A") (A') (A') (A') (A') (A')
                 (A") (A') (A') (A') (A') (A") (A') (A') (A') (A')
                 (A') (A') (A') (A') (A') (A') (A') (A') (A') (A')
                 (A') (A') (A') (A') (A') (A') (A') (A') (A') (A')
                 (A') (A') (A') (A') (A") (A') (A") (A") (A') (A")
                 (A') (A') (A') (A') (A") (A") (A') (A") (A") (A')
                 (A') (A") (A') (A') (A") (A') (A') (A") (A') (A")
                 (A") (A') (A") (A') (A') (A') (A") (A') (A') (A')
                 (A') (A') (A') (A') (A') (A') (A') (A') (A') (A')
                 (A') (A') (A') (A") (A') (A') (A') (A') (A') (A')
                 (A') (A") (A') (A') (A") (A') (A") (A") (A') (A")
                 (A") (A') (A') (A") (A') (A") (A") (A") (A') (A')
                 (A') (A') (A') (A") (A") (A') (A') (A') (A') (A")
                 (A') (A') (A') (A") (A') (A") (A') (A") (A") (A')
                 (A") (A') (A') (A") (A') (A") (A') (A') (A') (A')
                 (A") (A") (A") (A') (A") (A') (A') (A") (A') (A')
                 (A') (A") (A") (A') (A") (A') (A') (A") (A') (A")
                 (A') (A') (A') (A') (A") (A') (A') (A') (A") (A")
                 (A') (A') (A') (A") (A') (A') (A') (A") (A") (A')
                 (A") (A') (A') (A") (A') (A') (A') (A') (A') (A')
                 (A") (A') (A') (A') (A') (A") (A") (A") (A') (A')
                 (A') (A') (A') (A') (A') (A') (A") (A') (A') (A')
                 (A') (A") (A') (A") (A") (A") (A') (A") (A") (A')
                 (A') (A") (A") (A') (A") (A") (A') (A') (A') (A')
                 (A') (A') (A') (A') (A') (A') (A') (A') (A') (A')
                 (A') (A') (A') (A") (A') (A') (A') (A') (A') (A')
                 (A') (A') (A') (A') (A') (A') (A') (A') (A') (A')
                 (A') (A') (A') (A') (A') (A') (A') (A') (A') (A')
                 (A') (A')
 The electronic state is 1-A'.
 Alpha  occ. eigenvalues --  -10.77510 -10.73815 -10.73048 -10.72555 -10.72457
 Alpha  occ. eigenvalues --  -10.72141 -10.71660 -10.70954 -10.70515 -10.70106
 Alpha  occ. eigenvalues --  -10.70103 -10.69843 -10.69702 -10.69174  -1.16652
 Alpha  occ. eigenvalues --   -1.12471  -1.06902  -1.05992  -1.01251  -1.00620
 Alpha  occ. eigenvalues --   -0.95413  -0.91018  -0.86583  -0.85734  -0.83719
 Alpha  occ. eigenvalues --   -0.78282  -0.76245  -0.74295  -0.70015  -0.69186
 Alpha  occ. eigenvalues --   -0.68291  -0.68124  -0.67920  -0.65521  -0.64123
 Alpha  occ. eigenvalues --   -0.62576  -0.61518  -0.60656  -0.59253  -0.59082
 Alpha  occ. eigenvalues --   -0.56892  -0.55435  -0.54166  -0.52434  -0.47739
 Alpha  occ. eigenvalues --   -0.46150  -0.43365
 Alpha virt. eigenvalues --   -0.26133  -0.14712  -0.14016  -0.12705  -0.11203
 Alpha virt. eigenvalues --   -0.10097  -0.09285  -0.07947  -0.07897  -0.07501
 Alpha virt. eigenvalues --   -0.07211  -0.07127  -0.05659  -0.05571  -0.05364
 Alpha virt. eigenvalues --   -0.03862  -0.03675  -0.03268  -0.03136  -0.02152
 Alpha virt. eigenvalues --   -0.01323  -0.00976   0.00190   0.00521   0.00687
 Alpha virt. eigenvalues --    0.01072   0.01492   0.01905   0.02069   0.02314
 Alpha virt. eigenvalues --    0.02472   0.02698   0.02836   0.03144   0.03507
 Alpha virt. eigenvalues --    0.04189   0.04445   0.04747   0.05059   0.05435
 Alpha virt. eigenvalues --    0.06014   0.06290   0.06570   0.07075   0.07264
 Alpha virt. eigenvalues --    0.07892   0.08023   0.08316   0.08739   0.08888
 Alpha virt. eigenvalues --    0.09424   0.09627   0.09764   0.10582   0.11134
 Alpha virt. eigenvalues --    0.11152   0.11971   0.12273   0.12597   0.13009
 Alpha virt. eigenvalues --    0.13445   0.13532   0.13975   0.14300   0.15550
 Alpha virt. eigenvalues --    0.16441   0.16681   0.17243   0.17336   0.17763
 Alpha virt. eigenvalues --    0.18211   0.19052   0.19290   0.19720   0.20035
 Alpha virt. eigenvalues --    0.21542   0.21629   0.22615   0.23057   0.23635
 Alpha virt. eigenvalues --    0.24189   0.24505   0.25443   0.26990   0.27644
 Alpha virt. eigenvalues --    0.28996   0.29108   0.30148   0.31301   0.35967
 Alpha virt. eigenvalues --    0.36432   0.38215   0.39237   0.41009   0.41159
 Alpha virt. eigenvalues --    0.41815   0.42011   0.42983   0.43753   0.44473
 Alpha virt. eigenvalues --    0.44876   0.45291   0.45906   0.46272   0.47882
 Alpha virt. eigenvalues --    0.48245   0.48657   0.49000   0.50635   0.50926
 Alpha virt. eigenvalues --    0.51191   0.52188   0.52233   0.52453   0.54149
 Alpha virt. eigenvalues --    0.54431   0.54534   0.55662   0.56220   0.57555
 Alpha virt. eigenvalues --    0.58257   0.59460   0.61522   0.62272   0.62485
 Alpha virt. eigenvalues --    0.63041   0.63413   0.64860   0.65195   0.67727
 Alpha virt. eigenvalues --    0.70279   0.70548   0.71285   0.72544   0.73025
 Alpha virt. eigenvalues --    0.75331   0.75873   0.76616   0.76691   0.77185
 Alpha virt. eigenvalues --    0.77874   0.78155   0.78319   0.79922   0.80335
 Alpha virt. eigenvalues --    0.81297   0.81770   0.82574   0.83012   0.85315
 Alpha virt. eigenvalues --    0.86605   0.87671   0.88173   0.89878   0.90726
 Alpha virt. eigenvalues --    0.91164   0.92008   0.93345   0.94653   0.96277
 Alpha virt. eigenvalues --    0.97031   1.00054   1.01253   1.01419   1.02826
 Alpha virt. eigenvalues --    1.02940   1.03362   1.04970   1.06412   1.07921
 Alpha virt. eigenvalues --    1.19868   1.22585   1.23569   1.23639   1.29588
 Alpha virt. eigenvalues --    1.30066   1.33172   1.34292   1.35154   1.35897
 Alpha virt. eigenvalues --    1.38931   1.39710   1.40795   1.42823   1.43272
 Alpha virt. eigenvalues --    1.43369   1.44931   1.46318   1.46658   1.47281
 Alpha virt. eigenvalues --    1.47774   1.48276   1.51801   1.53815   1.55649
 Alpha virt. eigenvalues --    1.55843   1.56433   1.56844   1.57669   1.61737
 Alpha virt. eigenvalues --    1.62608   1.63319   1.64445   1.66078   1.68212
 Alpha virt. eigenvalues --    1.68453   1.68740   1.69828   1.74546   1.75715
 Alpha virt. eigenvalues --    1.77083   1.78310   1.79498   1.79649   1.81354
 Alpha virt. eigenvalues --    1.82985   1.83166   1.83292   1.83736   1.84167
 Alpha virt. eigenvalues --    1.84874   1.85660   1.86464   1.88449   1.91521
 Alpha virt. eigenvalues --    1.92584   1.94158   1.95614   1.97765   1.98365
 Alpha virt. eigenvalues --    1.99960   2.02402   2.04673   2.07339   2.11604
 Alpha virt. eigenvalues --    2.12297   2.14270   2.15252   2.19124   2.21320
 Alpha virt. eigenvalues --    2.22789   2.28620   2.30257   2.34349   2.34529
 Alpha virt. eigenvalues --    2.36407   2.38362   2.39835   2.42307   2.44457
 Alpha virt. eigenvalues --    2.46123   2.46504   2.49357   2.53079   2.53710
 Alpha virt. eigenvalues --    2.54343   2.56787   2.58056   2.58325   2.59226
 Alpha virt. eigenvalues --    2.60061   2.61094   2.62026   2.63457   2.63947
 Alpha virt. eigenvalues --    2.64537   2.65078   2.65216   2.65936   2.67868
 Alpha virt. eigenvalues --    2.68713   2.70844   2.71187   2.73392   2.74883
 Alpha virt. eigenvalues --    2.76264   2.77705   2.79587   2.83349   2.83691
 Alpha virt. eigenvalues --    2.84861   2.86303   2.92154   2.96914   2.99399
 Alpha virt. eigenvalues --    3.00199   3.04975   3.07388   3.10826   3.15394
 Alpha virt. eigenvalues --    3.19901   3.20642   3.25728   3.29087   3.31123
 Alpha virt. eigenvalues --    3.33040   3.35543   3.44417   3.46581   3.46972
 Alpha virt. eigenvalues --    3.48465   3.50286   3.56847   3.65959   3.67210
 Alpha virt. eigenvalues --    3.68299   3.93410   3.93802   3.95086   3.96499
 Alpha virt. eigenvalues --    4.03817   4.06315   4.07496   4.12229   4.35019
 Alpha virt. eigenvalues --    4.60392   4.68458   4.70609  23.45097  23.59539
 Alpha virt. eigenvalues --   23.77701  23.80141  23.82659  23.89674  23.91558
 Alpha virt. eigenvalues --   23.95077  23.96277  23.99659  24.06856  24.10732
 Alpha virt. eigenvalues --   24.11951  24.16185
          Condensed to atoms (all electrons):
               1          2          3          4          5          6
     1  C    8.828008   0.013589  -0.238477   2.049402  -0.125255  -0.096910
     2  C    0.013589   6.980862   0.117959  -1.148364   0.019348  -0.011247
     3  C   -0.238477   0.117959   6.802069   0.979997  -0.158680   0.018218
     4  C    2.049402  -1.148364   0.979997   9.960634  -0.345479  -0.109069
     5  C   -0.125255   0.019348  -0.158680  -0.345479  12.447890   0.435602
     6  C   -0.096910  -0.011247   0.018218  -0.109069   0.435602   6.592417
     7  C    0.011531  -0.001551  -0.016212  -0.032283  -1.094085   0.446407
     8  C    0.427293  -0.043321  -0.090802   0.072556   1.946918  -0.785857
     9  C   -1.132576  -0.614658   0.343978  -0.610022   0.249204   0.256816
    10  C   -1.295181   0.392200  -0.648867  -2.347974  -2.789301  -0.070963
    11  C    0.369404  -0.909955   1.224045  -0.348699  -1.644764  -0.189169
    12  C   -2.513638   1.681082  -1.756548  -1.043315  -0.579378  -0.107416
    13  C    0.309162  -0.318470  -0.112368  -1.288199  -0.412602   0.891856
    14  C   -1.041746  -0.032886  -0.328827  -0.195112  -2.280133  -1.146598
    15  H    0.364450  -0.096966   0.000959   0.027060   0.004448   0.000542
    16  H   -0.023486   0.377249  -0.009605   0.004569  -0.001506  -0.000253
    17  H   -0.030392  -0.005353   0.357871  -0.055625   0.000408   0.000344
    18  H    0.049432   0.007578  -0.091879   0.439073   0.006725  -0.005922
    19  H   -0.044981  -0.005964   0.056708  -0.039052  -0.111304   0.050237
    20  H    0.006037   0.001558  -0.004939   0.008008   0.494292  -0.083755
    21  H   -0.001443  -0.000323   0.000449  -0.000159  -0.076673   0.390460
    22  H    0.001280   0.000353  -0.000406  -0.001288   0.021815  -0.025995
    23  H    0.002151  -0.003200   0.001830   0.006157   0.027423  -0.001344
    24  H    0.026930   0.012123  -0.002822  -0.011516  -0.012339  -0.000437
    25  H    0.026930   0.012123  -0.002822  -0.011516  -0.012339  -0.000437
               7          8          9         10         11         12
     1  C    0.011531   0.427293  -1.132576  -1.295181   0.369404  -2.513638
     2  C   -0.001551  -0.043321  -0.614658   0.392200  -0.909955   1.681082
     3  C   -0.016212  -0.090802   0.343978  -0.648867   1.224045  -1.756548
     4  C   -0.032283   0.072556  -0.610022  -2.347974  -0.348699  -1.043315
     5  C   -1.094085   1.946918   0.249204  -2.789301  -1.644764  -0.579378
     6  C    0.446407  -0.785857   0.256816  -0.070963  -0.189169  -0.107416
     7  C    7.540904   0.451800  -1.118925   0.151771  -0.217773  -0.309593
     8  C    0.451800   8.472142  -1.198827  -1.265226   0.169062  -1.151146
     9  C   -1.118925  -1.198827   9.774507   0.258496   1.536985  -1.660651
    10  C    0.151771  -1.265226   0.258496   9.163985  -0.541571   2.299653
    11  C   -0.217773   0.169062   1.536985  -0.541571  13.832760  -3.340095
    12  C   -0.309593  -1.151146  -1.660651   2.299653  -3.340095  16.020758
    13  C   -0.968125   0.232780   1.592254  -0.346004   1.050381  -5.151654
    14  C    1.277721  -1.792706  -2.233482   2.509362  -4.413316   3.072707
    15  H   -0.001955   0.008826   0.079865  -0.012181  -0.031208  -0.024686
    16  H    0.000339   0.000271   0.005172  -0.007212   0.029402  -0.030695
    17  H   -0.000437  -0.001141  -0.007438   0.020995  -0.035744   0.101084
    18  H    0.002877   0.008311  -0.029817   0.029637  -0.017809  -0.056026
    19  H   -0.010816  -0.044386   0.072357   0.416424   0.096692  -0.049254
    20  H   -0.000239   0.051652  -0.019469  -0.005740  -0.015502  -0.028789
    21  H   -0.023019  -0.022477  -0.003253   0.018334  -0.006010   0.003890
    22  H    0.381962  -0.016645   0.000487  -0.011351   0.003945  -0.010209
    23  H   -0.117185   0.371070   0.100882  -0.005919  -0.002582   0.007753
    24  H    0.017096   0.039637   0.355186   0.005530   0.001865  -0.061093
    25  H    0.017096   0.039637   0.355186   0.005530   0.001865  -0.061093
              13         14         15         16         17         18
     1  C    0.309162  -1.041746   0.364450  -0.023486  -0.030392   0.049432
     2  C   -0.318470  -0.032886  -0.096966   0.377249  -0.005353   0.007578
     3  C   -0.112368  -0.328827   0.000959  -0.009605   0.357871  -0.091879
     4  C   -1.288199  -0.195112   0.027060   0.004569  -0.055625   0.439073
     5  C   -0.412602  -2.280133   0.004448  -0.001506   0.000408   0.006725
     6  C    0.891856  -1.146598   0.000542  -0.000253   0.000344  -0.005922
     7  C   -0.968125   1.277721  -0.001955   0.000339  -0.000437   0.002877
     8  C    0.232780  -1.792706   0.008826   0.000271  -0.001141   0.008311
     9  C    1.592254  -2.233482   0.079865   0.005172  -0.007438  -0.029817
    10  C   -0.346004   2.509362  -0.012181  -0.007212   0.020995   0.029637
    11  C    1.050381  -4.413316  -0.031208   0.029402  -0.035744  -0.017809
    12  C   -5.151654   3.072707  -0.024686  -0.030695   0.101084  -0.056026
    13  C   15.060977  -3.985691   0.005233   0.002086  -0.006306  -0.009165
    14  C   -3.985691  16.185139   0.004304  -0.007727   0.005620   0.000739
    15  H    0.005233   0.004304   0.443939  -0.008764   0.001319  -0.000020
    16  H    0.002086  -0.007727  -0.008764   0.424670  -0.006063   0.001851
    17  H   -0.006306   0.005620   0.001319  -0.006063   0.424989  -0.010517
    18  H   -0.009165   0.000739  -0.000020   0.001851  -0.010517   0.465736
    19  H    0.068619  -0.080164   0.000053  -0.000408   0.000894  -0.006193
    20  H   -0.000157  -0.063688  -0.000066   0.000002  -0.000093   0.001322
    21  H   -0.012215   0.075236   0.000004  -0.000006   0.000010  -0.000207
    22  H    0.021880  -0.030143  -0.000107   0.000007  -0.000008   0.000036
    23  H   -0.030923  -0.022647   0.000558  -0.000148   0.000024  -0.000179
    24  H    0.023279  -0.057789  -0.000637   0.000672  -0.000174   0.000279
    25  H    0.023279  -0.057789  -0.000637   0.000672  -0.000174   0.000279
              19         20         21         22         23         24
     1  C   -0.044981   0.006037  -0.001443   0.001280   0.002151   0.026930
     2  C   -0.005964   0.001558  -0.000323   0.000353  -0.003200   0.012123
     3  C    0.056708  -0.004939   0.000449  -0.000406   0.001830  -0.002822
     4  C   -0.039052   0.008008  -0.000159  -0.001288   0.006157  -0.011516
     5  C   -0.111304   0.494292  -0.076673   0.021815   0.027423  -0.012339
     6  C    0.050237  -0.083755   0.390460  -0.025995  -0.001344  -0.000437
     7  C   -0.010816  -0.000239  -0.023019   0.381962  -0.117185   0.017096
     8  C   -0.044386   0.051652  -0.022477  -0.016645   0.371070   0.039637
     9  C    0.072357  -0.019469  -0.003253   0.000487   0.100882   0.355186
    10  C    0.416424  -0.005740   0.018334  -0.011351  -0.005919   0.005530
    11  C    0.096692  -0.015502  -0.006010   0.003945  -0.002582   0.001865
    12  C   -0.049254  -0.028789   0.003890  -0.010209   0.007753  -0.061093
    13  C    0.068619  -0.000157  -0.012215   0.021880  -0.030923   0.023279
    14  C   -0.080164  -0.063688   0.075236  -0.030143  -0.022647  -0.057789
    15  H    0.000053  -0.000066   0.000004  -0.000107   0.000558  -0.000637
    16  H   -0.000408   0.000002  -0.000006   0.000007  -0.000148   0.000672
    17  H    0.000894  -0.000093   0.000010  -0.000008   0.000024  -0.000174
    18  H   -0.006193   0.001322  -0.000207   0.000036  -0.000179   0.000279
    19  H    0.444265  -0.006930   0.002024  -0.000684   0.000646   0.000586
    20  H   -0.006930   0.444300  -0.009904   0.002069   0.000242   0.000109
    21  H    0.002024  -0.009904   0.418165  -0.007021   0.001619  -0.000110
    22  H   -0.000684   0.002069  -0.007021   0.413934  -0.009284   0.000603
    23  H    0.000646   0.000242   0.001619  -0.009284   0.435000  -0.001256
    24  H    0.000586   0.000109  -0.000110   0.000603  -0.001256   0.493560
    25  H    0.000586   0.000109  -0.000110   0.000603  -0.001256  -0.079170
              25
     1  C    0.026930
     2  C    0.012123
     3  C   -0.002822
     4  C   -0.011516
     5  C   -0.012339
     6  C   -0.000437
     7  C    0.017096
     8  C    0.039637
     9  C    0.355186
    10  C    0.005530
    11  C    0.001865
    12  C   -0.061093
    13  C    0.023279
    14  C   -0.057789
    15  H   -0.000637
    16  H    0.000672
    17  H   -0.000174
    18  H    0.000279
    19  H    0.000586
    20  H    0.000109
    21  H   -0.000110
    22  H    0.000603
    23  H   -0.001256
    24  H   -0.079170
    25  H    0.493560
 Mulliken charges:
               1
     1  C    0.058485
     2  C   -0.423766
     3  C   -0.440830
     4  C    0.040216
     5  C   -0.010233
     6  C   -0.447526
     7  C   -0.387308
     8  C    0.120580
     9  C   -0.352256
    10  C    0.075574
    11  C   -0.602209
    12  C    0.748354
    13  C   -0.639908
    14  C    0.639617
    15  H    0.235666
    16  H    0.248912
    17  H    0.245907
    18  H    0.213860
    19  H    0.190044
    20  H    0.229573
    21  H    0.252740
    22  H    0.264165
    23  H    0.240569
    24  H    0.249887
    25  H    0.249887
 Sum of Mulliken charges =   1.00000
 Mulliken charges with hydrogens summed into heavy atoms:
               1
     1  C    0.294151
     2  C   -0.174855
     3  C   -0.194922
     4  C    0.254076
     5  C    0.219339
     6  C   -0.194785
     7  C   -0.123142
     8  C    0.361148
     9  C    0.147518
    10  C    0.265618
    11  C   -0.602209
    12  C    0.748354
    13  C   -0.639908
    14  C    0.639617
 Electronic spatial extent (au):  <R**2>=           2856.5300
 Charge=              1.0000 electrons
 Dipole moment (field-independent basis, Debye):
    X=             -0.8801    Y=             -1.2055    Z=             -0.0000  Tot=              1.4925
 Quadrupole moment (field-independent basis, Debye-Ang):
   XX=            -49.5670   YY=            -37.5936   ZZ=            -84.1240
   XY=             11.2153   XZ=             -0.0000   YZ=              0.0000
 Traceless Quadrupole moment (field-independent basis, Debye-Ang):
   XX=              7.5279   YY=             19.5013   ZZ=            -27.0291
   XY=             11.2153   XZ=             -0.0000   YZ=              0.0000
 Octapole moment (field-independent basis, Debye-Ang**2):
  XXX=             -5.7976  YYY=            -18.0693  ZZZ=             -0.0000  XYY=             -3.9536
  XXY=              1.0218  XXZ=             -0.0000  XZZ=              1.5592  YZZ=             -3.4958
  YYZ=             -0.0000  XYZ=              0.0000
 Hexadecapole moment (field-independent basis, Debye-Ang**3):
 XXXX=          -1059.6953 YYYY=          -1787.6445 ZZZZ=            -99.2986 XXXY=           -365.0958
 XXXZ=             -0.0000 YYYX=           -297.0138 YYYZ=             -0.0000 ZZZX=             -0.0000
 ZZZY=              0.0000 XXYY=           -448.4337 XXZZ=           -260.7467 YYZZ=           -475.7448
 XXYZ=              0.0000 YYXZ=             -0.0000 ZZXY=           -194.8766
 N-N= 7.812722339922D+02 E-N=-2.798920985753D+03  KE= 5.375601172384D+02
 Symmetry A'   KE= 5.228983022180D+02
 Symmetry A"   KE= 1.466181502053D+01
 Unable to Open any file for archive entry.
 1\1\GINC-GADI-CPU-CLX-0240\SP\RM062X TD-FC\6-311++G(d,p)\C14H11(1+)\TS
 1578\02-Aug-2022\0\\#n M062X/6-311++G(d,p) TD(NStates=1) EmpiricalDisp
 ersion=GD3 SP\\SP_-2\\1,1\C,0,0.,2.550655,1.382431\C,0,0.,3.747508,0.6
 77989\C,0,0.,3.685861,-0.69383\C,0,0.,2.399156,-1.373538\C,0,0.,-2.527
 156,-1.441538\C,0,0.,-3.681861,-0.73383\C,0,0.,-3.655508,0.665989\C,0,
 0.,-2.434655,1.338431\C,0,0.,0.008,1.453369\C,0,0.,-0.046,-1.429189\C,
 0,0.,1.256055,0.697065\C,0,0.,1.211471,-0.690804\C,0,0.,-1.268055,0.65
 7065\C,0,0.,-1.263471,-0.770804\H,0,0.,2.552071,2.465647\H,0,0.,4.6967
 53,1.191689\H,0,0.,4.583262,-1.298349\H,0,0.,2.39755,-2.456059\H,0,0.,
 0.012,-2.510266\H,0,0.,-2.53755,-2.524059\H,0,0.,-4.635262,-1.246349\H
 ,0,0.,-4.576753,1.231689\H,0,0.,-2.424071,2.421647\H,0,-0.859585,0.04,
 2.145787\H,0,0.859585,0.04,2.145787\\Version=ES64L-G16RevC.01\State=1-
 A'\HF=-539.7463537\RMSD=3.847e-09\PG=CS [SG(C14H9),X(H2)]\\@
 The archive entry for this job was punched.


 THERE'S NOTHING SO GREAT AS THE GREAT OUTDOORS.

                                       -- ZIGGY
 Job cpu time:       0 days  0 hours 52 minutes 52.9 seconds.
 Elapsed time:       0 days  0 hours  1 minutes  6.2 seconds.
 File lengths (MBytes):  RWF=    460 Int=      0 D2E=      0 Chk=     15 Scr=      1
 Normal termination of Gaussian 16 at Tue Aug  2 12:33:19 2022.
