 Entering Gaussian System, Link 0=g16
 Initial command:
 /apps/gaussian/g16c01/g16/l1.exe "/jobfs/53803565.gadi-pbs/Gau-1061478.inp" -scrdir="/jobfs/53803565.gadi-pbs/"
 Entering Link 1 = /apps/gaussian/g16c01/g16/l1.exe PID=   1061479.
  
 Copyright (c) 1988-2019, Gaussian, Inc.  All Rights Reserved.
  
 This is part of the Gaussian(R) 16 program.  It is based on
 the Gaussian(R) 09 system (copyright 2009, Gaussian, Inc.),
 the Gaussian(R) 03 system (copyright 2003, Gaussian, Inc.),
 the Gaussian(R) 98 system (copyright 1998, Gaussian, Inc.),
 the Gaussian(R) 94 system (copyright 1995, Gaussian, Inc.),
 the Gaussian 92(TM) system (copyright 1992, Gaussian, Inc.),
 the Gaussian 90(TM) system (copyright 1990, Gaussian, Inc.),
 the Gaussian 88(TM) system (copyright 1988, Gaussian, Inc.),
 the Gaussian 86(TM) system (copyright 1986, Carnegie Mellon
 University), and the Gaussian 82(TM) system (copyright 1983,
 Carnegie Mellon University). Gaussian is a federally registered
 trademark of Gaussian, Inc.
  
 This software contains proprietary and confidential information,
 including trade secrets, belonging to Gaussian, Inc.
  
 This software is provided under written license and may be
 used, copied, transmitted, or stored only in accord with that
 written license.
  
 The following legend is applicable only to US Government
 contracts under FAR:
  
                    RESTRICTED RIGHTS LEGEND
  
 Use, reproduction and disclosure by the US Government is
 subject to restrictions as set forth in subparagraphs (a)
 and (c) of the Commercial Computer Software - Restricted
 Rights clause in FAR 52.227-19.
  
 Gaussian, Inc.
 340 Quinnipiac St., Bldg. 40, Wallingford CT 06492
  
  
 ---------------------------------------------------------------
 Warning -- This program may not be used in any manner that
 competes with the business of Gaussian, Inc. or will provide
 assistance to any competitor of Gaussian, Inc.  The licensee
 of this program is prohibited from giving any competitor of
 Gaussian, Inc. access to this program.  By using this program,
 the user acknowledges that Gaussian, Inc. is engaged in the
 business of creating and licensing software in the field of
 computational chemistry and represents and warrants to the
 licensee that it is not a competitor of Gaussian, Inc. and that
 it will not use this program in any manner prohibited above.
 ---------------------------------------------------------------
  

 Cite this work as:
 Gaussian 16, Revision C.01,
 M. J. Frisch, G. W. Trucks, H. B. Schlegel, G. E. Scuseria, 
 M. A. Robb, J. R. Cheeseman, G. Scalmani, V. Barone, 
 G. A. Petersson, H. Nakatsuji, X. Li, M. Caricato, A. V. Marenich, 
 J. Bloino, B. G. Janesko, R. Gomperts, B. Mennucci, H. P. Hratchian, 
 J. V. Ortiz, A. F. Izmaylov, J. L. Sonnenberg, D. Williams-Young, 
 F. Ding, F. Lipparini, F. Egidi, J. Goings, B. Peng, A. Petrone, 
 T. Henderson, D. Ranasinghe, V. G. Zakrzewski, J. Gao, N. Rega, 
 G. Zheng, W. Liang, M. Hada, M. Ehara, K. Toyota, R. Fukuda, 
 J. Hasegawa, M. Ishida, T. Nakajima, Y. Honda, O. Kitao, H. Nakai, 
 T. Vreven, K. Throssell, J. A. Montgomery, Jr., J. E. Peralta, 
 F. Ogliaro, M. J. Bearpark, J. J. Heyd, E. N. Brothers, K. N. Kudin, 
 V. N. Staroverov, T. A. Keith, R. Kobayashi, J. Normand, 
 K. Raghavachari, A. P. Rendell, J. C. Burant, S. S. Iyengar, 
 J. Tomasi, M. Cossi, J. M. Millam, M. Klene, C. Adamo, R. Cammi, 
 J. W. Ochterski, R. L. Martin, K. Morokuma, O. Farkas, 
 J. B. Foresman, and D. J. Fox, Gaussian, Inc., Wallingford CT, 2019.
 
 ******************************************
 Gaussian 16:  ES64L-G16RevC.01  3-Jul-2019
                 2-Aug-2022 
 ******************************************
 %NProcShared=48
 Will use up to   48 processors via shared memory.
 %mem = 190GB
 ---------------------------------------------------------------
 #n M062X/6-311++G(d,p) TD(NStates=1) EmpiricalDispersion=GD3 SP
 ---------------------------------------------------------------
 1/38=1,172=1/1;
 2/12=2,17=6,18=5,40=1/2;
 3/5=4,6=6,7=1111,11=9,25=1,30=1,74=-55,124=31/1,2,3,8;
 4//1;
 5/5=2,38=5/2;
 8/6=1,10=2,108=1/1;
 9/41=1,42=1,70=2/14;
 6/7=2,8=2,9=2,10=2/1;
 99/5=1,9=1/99;
 ----
 SP_8
 ----
 Symbolic Z-matrix:
 Charge =  1 Multiplicity = 1
 C                     0.        2.33866   1.33843 
 C                     0.        3.54751   0.61799 
 C                     0.        3.62786  -0.82983 
 C                     0.        2.64716  -1.48954 
 C                     0.       -2.27916  -1.32554 
 C                     0.       -3.73986  -0.59783 
 C                     0.       -3.85551   0.72599 
 C                     0.       -2.64665   1.38243 
 C                     0.       -0.056     1.45337 
 C                     0.        0.22     -1.42919 
 C                     0.        1.32206   0.72307 
 C                     0.        1.31747  -0.7768 
 C                     0.       -1.20206   0.63107 
 C                     0.       -1.15747  -0.6848 
 H                     0.        2.39407   2.42165 
 H                     0.        4.46875   1.18969 
 H                     0.        4.62926  -1.25835 
 H                     0.        2.59155  -2.57206 
 H                     0.        0.138    -2.51027 
 H                     0.       -2.34355  -2.40806 
 H                     0.       -4.58926  -1.28635 
 H                     0.       -4.80475   1.23369 
 H                     0.       -2.58207   2.46565 
 H                    -0.85959  -0.304     2.14579 
 H                     0.85959  -0.304     2.14579 
 
                          Input orientation:                          
 ---------------------------------------------------------------------
 Center     Atomic      Atomic             Coordinates (Angstroms)
 Number     Number       Type             X           Y           Z
 ---------------------------------------------------------------------
      1          6           0        0.000000    2.338655    1.338431
      2          6           0        0.000000    3.547508    0.617989
      3          6           0        0.000000    3.627861   -0.829830
      4          6           0        0.000000    2.647156   -1.489538
      5          6           0        0.000000   -2.279156   -1.325538
      6          6           0        0.000000   -3.739861   -0.597830
      7          6           0        0.000000   -3.855508    0.725989
      8          6           0        0.000000   -2.646655    1.382431
      9          6           0        0.000000   -0.056000    1.453369
     10          6           0        0.000000    0.220000   -1.429189
     11          6           0        0.000000    1.322055    0.723065
     12          6           0        0.000000    1.317471   -0.776804
     13          6           0        0.000000   -1.202055    0.631065
     14          6           0        0.000000   -1.157471   -0.684804
     15          1           0        0.000000    2.394071    2.421647
     16          1           0        0.000000    4.468753    1.189689
     17          1           0        0.000000    4.629262   -1.258349
     18          1           0        0.000000    2.591550   -2.572059
     19          1           0        0.000000    0.138000   -2.510266
     20          1           0        0.000000   -2.343550   -2.408059
     21          1           0        0.000000   -4.589262   -1.286349
     22          1           0        0.000000   -4.804753    1.233689
     23          1           0        0.000000   -2.582071    2.465647
     24          1           0       -0.859585   -0.304000    2.145787
     25          1           0        0.859585   -0.304000    2.145787
 ---------------------------------------------------------------------
                    Distance matrix (angstroms):
                    1          2          3          4          5
     1  C    0.000000
     2  C    1.407253   0.000000
     3  C    2.522580   1.450047   0.000000
     4  C    2.844746   2.291791   1.181946   0.000000
     5  C    5.331126   6.142256   5.927780   4.929041   0.000000
     6  C    6.379456   7.388096   7.371374   6.448963   1.631937
     7  C    6.224367   7.403804   7.643388   6.869731   2.587209
     8  C    4.985504   6.241156   6.653093   6.022677   2.732792
     9  C    2.397412   3.699071   4.334032   3.995967   3.558756
    10  C    3.485458   3.906821   3.460166   2.427906   2.501305
    11  C    1.188340   2.227932   2.779968   2.579051   4.143126
    12  C    2.348837   2.630307   2.310998   1.508659   3.638246
    13  C    3.610678   4.749581   5.046019   4.394699   2.233482
    14  C    4.039354   4.882018   4.787529   3.888802   1.291788
    15  H    1.084633   2.140934   3.477692   3.919365   5.990029
    16  H    2.135285   1.084220   2.187591   3.239826   7.201433
    17  H    3.462679   2.165834   1.089235   1.995543   6.908745
    18  H    3.918659   3.330204   2.027141   1.083948   5.027683
    19  H    4.433436   4.627172   3.873370   2.708828   2.691881
    20  H    5.996602   6.622804   6.176452   5.074527   1.084435
    21  H    7.408475   8.356646   8.229795   7.239270   2.310438
    22  H    7.144176   8.374924   8.681422   7.933909   3.595592
    23  H    5.048184   6.401998   7.030180   6.556547   3.803267
    24  H    2.893844   4.231686   5.005269   4.760651   4.085367
    25  H    2.893844   4.231686   5.005269   4.760651   4.085367
                    6          7          8          9         10
     6  C    0.000000
     7  C    1.328861   0.000000
     8  C    2.261975   1.375588   0.000000
     9  C    4.216426   3.868507   2.591626   0.000000
    10  C    4.046190   4.610267   4.015335   2.895741   0.000000
    11  C    5.231420   5.177564   4.023111   1.559609   2.418000
    12  C    5.060498   5.386845   4.514044   2.619178   1.276734
    13  C    2.819688   2.655150   1.628318   1.410541   2.503375
    14  C    2.583854   3.044625   2.547770   2.405207   1.565738
    15  H    6.836839   6.475530   5.146736   2.634466   4.422163
    16  H    8.400986   8.337166   7.118018   4.532429   4.991034
    17  H    8.395148   8.713720   7.740329   5.413418   4.412570
    18  H    6.632069   7.241663   6.563291   4.818049   2.632566
    19  H    4.323797   5.140180   4.786167   3.968380   1.084182
    20  H    2.286179   3.479695   3.802590   4.488152   2.744080
    21  H    1.093408   2.141938   3.300925   5.296840   4.811383
    22  H    2.118598   1.076488   2.163218   4.753832   5.686744
    23  H    3.274961   2.155934   1.085140   2.721349   4.798057
    24  H    4.480118   3.920194   2.609527   1.131297   3.714016
    25  H    4.480118   3.920194   2.609527   1.131297   3.714016
                   11         12         13         14         15
    11  C    0.000000
    12  C    1.499876   0.000000
    13  C    2.525786   2.886192   0.000000
    14  C    2.851341   2.476651   1.316624   0.000000
    15  H    2.008581   3.374782   4.017251   4.718420   0.000000
    16  H    3.181108   3.714522   5.698256   5.930272   2.412887
    17  H    3.855337   3.346617   6.129775   5.815087   4.305630
    18  H    3.531212   2.201413   4.965022   4.197248   4.997609
    19  H    3.443315   2.096674   3.415217   2.238427   5.423433
    20  H    4.820850   4.008000   3.246427   2.091983   6.765435
    21  H    6.243510   5.928670   3.892255   3.484113   7.906717
    22  H    6.148050   6.443889   3.652751   4.121078   7.296185
    23  H    4.275370   5.071481   2.295678   3.457575   4.976337
    24  H    2.325313   3.451028   1.959534   3.078887   2.845096
    25  H    2.325313   3.451028   1.959534   3.078887   2.845096
                   16         17         18         19         20
    16  H    0.000000
    17  H    2.453294   0.000000
    18  H    4.204122   2.424480   0.000000
    19  H    5.696059   4.662481   2.454328   0.000000
    20  H    7.703977   7.066961   4.937824   2.483654   0.000000
    21  H    9.390335   9.218567   7.295006   4.883132   2.510270
    22  H    9.273610   9.757607   8.317994   6.200646   4.395435
    23  H    7.165346   8.116124   7.221138   5.670846   4.879539
    24  H    4.942892   6.055089   5.601890   4.755321   5.063217
    25  H    4.942892   6.055089   5.601890   4.755321   5.063217
                   21         22         23         24         25
    21  H    0.000000
    22  H    2.529235   0.000000
    23  H    4.255149   2.541267   0.000000
    24  H    5.557150   4.672000   2.455770   0.000000
    25  H    5.557150   4.672000   2.455770   1.719170   0.000000
 Stoichiometry    C14H11(1+)
 Framework group  CS[SG(C14H9),X(H2)]
 Deg. of freedom    46
 Full point group                 CS      NOp   2
 Largest Abelian subgroup         CS      NOp   2
 Largest concise Abelian subgroup CS      NOp   2
                         Standard orientation:                         
 ---------------------------------------------------------------------
 Center     Atomic      Atomic             Coordinates (Angstroms)
 Number     Number       Type             X           Y           Z
 ---------------------------------------------------------------------
      1          6           0        0.042163   -2.696085    0.000000
      2          6           0        1.278296   -3.368645    0.000000
      3          6           0        2.564740   -2.699543    0.000000
      4          6           0        2.632199   -1.519523    0.000000
      5          6           0       -0.020748    2.634670    0.000000
      6          6           0       -1.391548    3.520178    0.000000
      7          6           0       -2.589318    2.944663    0.000000
      8          6           0       -2.537637    1.570047    0.000000
      9          6           0       -1.277717   -0.694711    0.000000
     10          6           0        1.342706    0.537644    0.000000
     11          6           0        0.053174   -1.507797    0.000000
     12          6           0        1.341085   -0.739088    0.000000
     13          6           0       -1.154697    0.710455    0.000000
     14          6           0        0.000000    1.343048    0.000000
     15          1           0       -0.861407   -3.296075    0.000000
     16          1           0        1.256229   -4.452641    0.000000
     17          1           0        3.443972   -3.342492    0.000000
     18          1           0        3.535074   -0.919724    0.000000
     19          1           0        2.230882    1.159412    0.000000
     20          1           0        0.877647    3.242029    0.000000
     21          1           0       -1.232355    4.601935    0.000000
     22          1           0       -3.510071    3.502372    0.000000
     23          1           0       -3.436533    0.962170    0.000000
     24          1           0       -1.999815   -0.834427    0.859585
     25          1           0       -1.999815   -0.834427   -0.859585
 ---------------------------------------------------------------------
 Rotational constants (GHZ):           2.1485297           0.4425887           0.3677857
 Standard basis: 6-311++G(d,p) (5D, 7F)
 There are   299 symmetry adapted cartesian basis functions of A'  symmetry.
 There are   100 symmetry adapted cartesian basis functions of A"  symmetry.
 There are   285 symmetry adapted basis functions of A'  symmetry.
 There are   100 symmetry adapted basis functions of A"  symmetry.
   385 basis functions,   603 primitive gaussians,   399 cartesian basis functions
    47 alpha electrons       47 beta electrons
       nuclear repulsion energy       783.2528341365 Hartrees.
 NAtoms=   25 NActive=   25 NUniq=   24 SFac= 1.09D+00 NAtFMM=   60 NAOKFM=F Big=F
 Integral buffers will be    131072 words long.
 Regular integral format.
 Two-electron integral symmetry is turned on.
 Nuclear repulsion after empirical dispersion term =      783.2518648374 Hartrees.
 One-electron integrals computed using PRISM.
 NBasis=   385 RedAO= T EigKep=  1.15D-06  NBF=   285   100
 NBsUse=   379 1.00D-06 EigRej=  7.58D-07 NBFU=   279   100
 ExpMin= 3.60D-02 ExpMax= 4.56D+03 ExpMxC= 6.82D+02 IAcc=3 IRadAn=         5 AccDes= 0.00D+00
 Harris functional with IExCor= 1009 and IRadAn=       5 diagonalized for initial guess.
 HarFok:  IExCor= 1009 AccDes= 0.00D+00 IRadAn=         5 IDoV= 1 UseB2=F ITyADJ=14
 ICtDFT=  3500011 ScaDFX=  1.000000  1.000000  1.000000  1.000000
 FoFCou: FMM=F IPFlag=           0 FMFlag=      100000 FMFlg1=           0
         NFxFlg=           0 DoJE=T BraDBF=F KetDBF=T FulRan=T
         wScrn=  0.000000 ICntrl=       500 IOpCl=  0 I1Cent=   200000004 NGrid=           0
         NMat0=    1 NMatS0=      1 NMatT0=    0 NMatD0=    1 NMtDS0=    0 NMtDT0=    0
 Petite list used in FoFCou.
 Initial guess orbital symmetries:
       Occupied  (A') (A') (A') (A') (A') (A') (A') (A') (A') (A')
                 (A') (A') (A') (A') (A') (A') (A') (A') (A') (A')
                 (A') (A') (A') (A') (A') (A') (A') (A') (A') (A')
                 (A') (A') (A") (A') (A') (A') (A") (A') (A') (A')
                 (A") (A') (A") (A") (A') (A") (A")
       Virtual   (A") (A") (A") (A") (A") (A') (A') (A') (A') (A')
                 (A") (A') (A") (A') (A') (A') (A") (A') (A') (A')
                 (A') (A") (A') (A') (A") (A') (A") (A') (A') (A")
                 (A') (A') (A') (A') (A") (A') (A') (A') (A") (A')
                 (A") (A') (A') (A") (A') (A') (A') (A') (A') (A")
                 (A') (A") (A') (A") (A') (A') (A") (A') (A") (A')
                 (A') (A') (A') (A') (A') (A") (A') (A') (A') (A")
                 (A') (A') (A') (A') (A') (A') (A') (A') (A') (A')
                 (A') (A') (A') (A') (A') (A') (A') (A') (A') (A')
                 (A') (A') (A') (A') (A") (A') (A') (A") (A') (A')
                 (A") (A') (A") (A') (A') (A") (A") (A') (A") (A")
                 (A') (A') (A") (A") (A') (A') (A') (A") (A') (A")
                 (A") (A') (A') (A') (A") (A') (A') (A") (A') (A')
                 (A') (A') (A') (A') (A') (A') (A') (A") (A') (A')
                 (A') (A') (A') (A') (A') (A') (A") (A') (A') (A')
                 (A") (A') (A") (A') (A') (A") (A') (A") (A') (A")
                 (A') (A") (A') (A") (A") (A") (A') (A') (A') (A')
                 (A") (A') (A') (A') (A') (A') (A') (A") (A') (A')
                 (A") (A') (A") (A') (A") (A') (A") (A") (A') (A')
                 (A") (A') (A') (A') (A") (A') (A") (A') (A') (A")
                 (A') (A") (A") (A') (A') (A") (A") (A') (A") (A')
                 (A') (A') (A') (A') (A") (A") (A') (A') (A') (A")
                 (A") (A') (A') (A') (A") (A') (A') (A') (A") (A')
                 (A") (A') (A") (A') (A') (A') (A") (A') (A") (A')
                 (A") (A') (A') (A') (A") (A') (A') (A') (A') (A')
                 (A") (A') (A') (A") (A") (A') (A') (A") (A') (A')
                 (A") (A') (A") (A') (A') (A') (A') (A") (A') (A")
                 (A') (A') (A') (A') (A") (A") (A') (A') (A") (A')
                 (A") (A') (A") (A') (A") (A') (A") (A') (A') (A')
                 (A') (A') (A') (A') (A') (A') (A') (A') (A') (A')
                 (A') (A') (A") (A') (A') (A') (A') (A') (A') (A')
                 (A') (A') (A') (A') (A') (A') (A') (A') (A') (A')
                 (A') (A') (A') (A') (A') (A') (A') (A') (A') (A')
                 (A') (A')
 The electronic state of the initial guess is 1-A'.
 Requested convergence on RMS density matrix=1.00D-08 within 128 cycles.
 Requested convergence on MAX density matrix=1.00D-06.
 Requested convergence on             energy=1.00D-06.
 No special actions if energy rises.
 SCF Done:  E(RM062X) =  -539.525030280     A.U. after   16 cycles
            NFock= 16  Conv=0.62D-08     -V/T= 2.0018
 DoSCS=F DFT=T ScalE2(SS,OS)=  1.000000  1.000000
 ExpMin= 3.60D-02 ExpMax= 4.56D+03 ExpMxC= 6.82D+02 IAcc=3 IRadAn=         5 AccDes= 0.00D+00
 HarFok:  IExCor=  205 AccDes= 0.00D+00 IRadAn=         5 IDoV=-2 UseB2=F ITyADJ=14
 ICtDFT= 12500011 ScaDFX=  1.000000  1.000000  1.000000  1.000000
 Range of M.O.s used for correlation:    15   379
 NBasis=   385 NAE=    47 NBE=    47 NFC=    14 NFV=     0
 NROrb=    365 NOA=    33 NOB=    33 NVA=   332 NVB=   332

 **** Warning!!: The largest alpha MO coefficient is  0.18966911D+03

 Orbital symmetries:
       Occupied  (A') (A') (A') (A') (A') (A') (A') (A') (A') (A')
                 (A') (A') (A') (A') (A') (A') (A') (A') (A') (A')
                 (A') (A') (A') (A') (A') (A') (A') (A') (A') (A')
                 (A') (A") (A') (A') (A') (A") (A') (A') (A") (A')
                 (A') (A') (A") (A") (A') (A") (A")
       Virtual   (A") (A") (A") (A') (A") (A') (A') (A') (A') (A")
                 (A') (A") (A') (A") (A') (A') (A") (A') (A') (A')
                 (A") (A") (A') (A') (A') (A') (A') (A") (A') (A")
                 (A') (A") (A') (A') (A") (A') (A') (A') (A') (A")
                 (A") (A') (A') (A') (A") (A") (A') (A") (A') (A')
                 (A') (A') (A") (A') (A') (A') (A") (A') (A') (A')
                 (A') (A') (A") (A') (A') (A') (A") (A') (A') (A')
                 (A') (A') (A') (A') (A') (A') (A') (A') (A') (A')
                 (A') (A') (A') (A') (A') (A') (A') (A') (A') (A')
                 (A') (A') (A") (A') (A') (A") (A') (A") (A') (A')
                 (A") (A') (A') (A") (A') (A') (A") (A") (A') (A')
                 (A") (A') (A") (A') (A") (A") (A') (A') (A") (A')
                 (A") (A') (A') (A") (A") (A') (A') (A') (A') (A')
                 (A') (A') (A') (A') (A') (A') (A') (A') (A') (A')
                 (A') (A') (A') (A') (A") (A') (A') (A') (A") (A')
                 (A') (A') (A') (A') (A") (A') (A") (A") (A') (A")
                 (A') (A") (A") (A') (A') (A") (A") (A") (A') (A')
                 (A") (A') (A') (A') (A') (A') (A') (A") (A') (A")
                 (A') (A') (A') (A") (A") (A') (A") (A') (A") (A")
                 (A') (A') (A') (A") (A') (A") (A') (A') (A') (A")
                 (A') (A") (A") (A') (A") (A') (A') (A") (A') (A')
                 (A") (A') (A') (A') (A") (A') (A') (A") (A") (A')
                 (A") (A') (A') (A') (A") (A') (A') (A') (A") (A")
                 (A') (A') (A') (A") (A') (A') (A") (A') (A") (A")
                 (A') (A') (A') (A") (A') (A') (A') (A') (A') (A')
                 (A") (A') (A') (A') (A') (A") (A') (A") (A') (A")
                 (A') (A') (A') (A') (A') (A") (A') (A') (A') (A')
                 (A') (A") (A') (A") (A") (A') (A") (A") (A') (A")
                 (A') (A") (A") (A') (A") (A') (A") (A') (A') (A')
                 (A') (A') (A') (A') (A') (A') (A') (A') (A') (A')
                 (A') (A") (A') (A') (A') (A') (A') (A') (A') (A')
                 (A') (A') (A') (A') (A') (A') (A') (A') (A') (A')
                 (A') (A') (A') (A') (A') (A') (A') (A') (A') (A')
                 (A') (A')
     4 initial guesses have been made.
 Convergence on wavefunction:    0.001000000000000
 Iteration     1 Dimension     4 NMult     0 NNew      4
 CISAX will form     4 AO SS matrices at one time.
 Iteration     2 Dimension     6 NMult     4 NNew      2
 Iteration     3 Dimension     8 NMult     6 NNew      2
 Iteration     4 Dimension    10 NMult     8 NNew      2
 Iteration     5 Dimension    12 NMult    10 NNew      2
 Iteration     6 Dimension    14 NMult    12 NNew      2
 ***********************************************************************
 Excited states from <AA,BB:AA,BB> singles matrix:
 ***********************************************************************
 
 Ground to excited state transition densities written to RWF  633
 Ground to excited state transition electric dipole moments (Au):
       state          X           Y           Z        Dip. S.      Osc.
         1        -0.6732      0.5462      0.0000      0.7516      0.0256
 Ground to excited state transition velocity dipole moments (Au):
       state          X           Y           Z        Dip. S.      Osc.
         1         0.0356     -0.0213     -0.0000      0.0017      0.0225
 Ground to excited state transition magnetic dipole moments (Au):
       state          X           Y           Z
         1         0.0000     -0.0000      0.2159
 Ground to excited state transition velocity quadrupole moments (Au):
       state          XX          YY          ZZ          XY          XZ          YZ
         1        -0.0235      0.0851     -0.0040     -0.0209      0.0000      0.0000
 <0|del|b> * <b|rxdel|0> + <0|del|b> * <b|delr+rdel|0>
 Rotatory Strengths (R) in cgs (10**-40 erg-esu-cm/Gauss)
       state          XX          YY          ZZ    R(velocity)    E-M Angle
         1         0.0000     -0.0000      0.0000      0.0000       90.00
 1/2[<0|r|b>*<b|rxdel|0> + (<0|rxdel|b>*<b|r|0>)*]
 Rotatory Strengths (R) in cgs (10**-40 erg-esu-cm/Gauss)
       state          XX          YY          ZZ     R(length)
         1         0.0000      0.0000     -0.0000      0.0000
  1/2[<0|del|b>*<b|r|0> + (<0|r|b>*<b|del|0>)*] (Au)
       state          X           Y           Z        Dip. S.   Osc.(frdel)
         1        -0.0240     -0.0117     -0.0000      0.0356      0.0238

 Excitation energies and oscillator strengths:
 
 Excited State   1:      Singlet-A'     1.3915 eV  891.00 nm  f=0.0256  <S**2>=0.000
      47 -> 48         0.70346
 This state for optimization and/or second-order correction.
 Total Energy, E(TD-HF/TD-DFT) =  -539.473892890    
 Copying the excited state density for this state as the 1-particle RhoCI density.
 SavETr:  write IOETrn=   770 NScale= 10 NData=  16 NLR=1 NState=    1 LETran=      28.

 **********************************************************************

            Population analysis using the SCF Density.

 **********************************************************************

 Orbital symmetries:
       Occupied  (A') (A') (A') (A') (A') (A') (A') (A') (A') (A')
                 (A') (A') (A') (A') (A') (A') (A') (A') (A') (A')
                 (A') (A') (A') (A') (A') (A') (A') (A') (A') (A')
                 (A') (A") (A') (A') (A') (A") (A') (A') (A") (A')
                 (A') (A') (A") (A") (A') (A") (A")
       Virtual   (A") (A") (A") (A') (A") (A') (A') (A') (A') (A")
                 (A') (A") (A') (A") (A') (A') (A") (A') (A') (A')
                 (A") (A") (A') (A') (A') (A') (A') (A") (A') (A")
                 (A') (A") (A') (A') (A") (A') (A') (A') (A') (A")
                 (A") (A') (A') (A') (A") (A") (A') (A") (A') (A')
                 (A') (A') (A") (A') (A') (A') (A") (A') (A') (A')
                 (A') (A') (A") (A') (A') (A') (A") (A') (A') (A')
                 (A') (A') (A') (A') (A') (A') (A') (A') (A') (A')
                 (A') (A') (A') (A') (A') (A') (A') (A') (A') (A')
                 (A') (A') (A") (A') (A') (A") (A') (A") (A') (A')
                 (A") (A') (A') (A") (A') (A') (A") (A") (A') (A')
                 (A") (A') (A") (A') (A") (A") (A') (A') (A") (A')
                 (A") (A') (A') (A") (A") (A') (A') (A') (A') (A')
                 (A') (A') (A') (A') (A') (A') (A') (A') (A') (A')
                 (A') (A') (A') (A') (A") (A') (A') (A') (A") (A')
                 (A') (A') (A') (A') (A") (A') (A") (A") (A') (A")
                 (A') (A") (A") (A') (A') (A") (A") (A") (A') (A')
                 (A") (A') (A') (A') (A') (A') (A') (A") (A') (A")
                 (A') (A') (A') (A") (A") (A') (A") (A') (A") (A")
                 (A') (A') (A') (A") (A') (A") (A') (A') (A') (A")
                 (A') (A") (A") (A') (A") (A') (A') (A") (A') (A')
                 (A") (A') (A') (A') (A") (A') (A') (A") (A") (A')
                 (A") (A') (A') (A') (A") (A') (A') (A') (A") (A")
                 (A') (A') (A') (A") (A') (A') (A") (A') (A") (A")
                 (A') (A') (A') (A") (A') (A') (A') (A') (A') (A')
                 (A") (A') (A') (A') (A') (A") (A') (A") (A') (A")
                 (A') (A') (A') (A') (A') (A") (A') (A') (A') (A')
                 (A') (A") (A') (A") (A") (A') (A") (A") (A') (A")
                 (A') (A") (A") (A') (A") (A') (A") (A') (A') (A')
                 (A') (A') (A') (A') (A') (A') (A') (A') (A') (A')
                 (A') (A") (A') (A') (A') (A') (A') (A') (A') (A')
                 (A') (A') (A') (A') (A') (A') (A') (A') (A') (A')
                 (A') (A') (A') (A') (A') (A') (A') (A') (A') (A')
                 (A') (A')
 The electronic state is 1-A'.
 Alpha  occ. eigenvalues --  -10.77224 -10.74988 -10.74873 -10.73201 -10.72417
 Alpha  occ. eigenvalues --  -10.71149 -10.70621 -10.70582 -10.70512 -10.69188
 Alpha  occ. eigenvalues --  -10.69026 -10.68310 -10.68260 -10.66833  -1.19144
 Alpha  occ. eigenvalues --   -1.12767  -1.09884  -1.06702  -1.02478  -1.01072
 Alpha  occ. eigenvalues --   -0.95285  -0.89295  -0.86543  -0.85114  -0.83494
 Alpha  occ. eigenvalues --   -0.77736  -0.76900  -0.74529  -0.72059  -0.69432
 Alpha  occ. eigenvalues --   -0.69067  -0.68208  -0.66717  -0.65457  -0.63770
 Alpha  occ. eigenvalues --   -0.62959  -0.62864  -0.60707  -0.57682  -0.56985
 Alpha  occ. eigenvalues --   -0.55619  -0.54834  -0.53514  -0.52393  -0.50286
 Alpha  occ. eigenvalues --   -0.46799  -0.38357
 Alpha virt. eigenvalues --   -0.26832  -0.14976  -0.12997  -0.11518  -0.11486
 Alpha virt. eigenvalues --   -0.10268  -0.09709  -0.07785  -0.07659  -0.07577
 Alpha virt. eigenvalues --   -0.07319  -0.06362  -0.05754  -0.05577  -0.05450
 Alpha virt. eigenvalues --   -0.04242  -0.03999  -0.03273  -0.03143  -0.02022
 Alpha virt. eigenvalues --   -0.01582  -0.00916  -0.00219   0.00131   0.00681
 Alpha virt. eigenvalues --    0.00971   0.01285   0.01296   0.01884   0.02038
 Alpha virt. eigenvalues --    0.02338   0.02577   0.02993   0.03254   0.03762
 Alpha virt. eigenvalues --    0.03861   0.04235   0.04883   0.05256   0.05340
 Alpha virt. eigenvalues --    0.05846   0.05973   0.06205   0.06723   0.07350
 Alpha virt. eigenvalues --    0.07581   0.07628   0.07811   0.08364   0.08500
 Alpha virt. eigenvalues --    0.08754   0.09574   0.09729   0.09873   0.10031
 Alpha virt. eigenvalues --    0.11089   0.11322   0.11531   0.12084   0.12544
 Alpha virt. eigenvalues --    0.13279   0.13325   0.13413   0.13999   0.14056
 Alpha virt. eigenvalues --    0.14897   0.16313   0.16774   0.16986   0.17392
 Alpha virt. eigenvalues --    0.18196   0.19020   0.19542   0.20329   0.20763
 Alpha virt. eigenvalues --    0.21306   0.22173   0.23168   0.23388   0.24216
 Alpha virt. eigenvalues --    0.24776   0.25633   0.26308   0.27028   0.27862
 Alpha virt. eigenvalues --    0.29467   0.30019   0.31394   0.31604   0.35562
 Alpha virt. eigenvalues --    0.38120   0.38419   0.38596   0.39156   0.39754
 Alpha virt. eigenvalues --    0.40067   0.42102   0.43247   0.43494   0.43781
 Alpha virt. eigenvalues --    0.44642   0.45217   0.45508   0.46639   0.47240
 Alpha virt. eigenvalues --    0.47605   0.47841   0.49013   0.50650   0.51282
 Alpha virt. eigenvalues --    0.51685   0.52370   0.52606   0.53987   0.54531
 Alpha virt. eigenvalues --    0.54912   0.55175   0.56852   0.58323   0.58724
 Alpha virt. eigenvalues --    0.58740   0.61487   0.61962   0.62625   0.63235
 Alpha virt. eigenvalues --    0.63968   0.64111   0.65688   0.66580   0.68156
 Alpha virt. eigenvalues --    0.69780   0.71574   0.72916   0.73323   0.74315
 Alpha virt. eigenvalues --    0.74877   0.75578   0.76789   0.77262   0.77885
 Alpha virt. eigenvalues --    0.79079   0.79468   0.79740   0.80645   0.81002
 Alpha virt. eigenvalues --    0.81824   0.82619   0.84568   0.84688   0.84834
 Alpha virt. eigenvalues --    0.85719   0.89553   0.90544   0.91182   0.91293
 Alpha virt. eigenvalues --    0.92770   0.93999   0.95293   0.96644   0.96911
 Alpha virt. eigenvalues --    0.97197   0.99511   1.01702   1.02341   1.03572
 Alpha virt. eigenvalues --    1.05162   1.05627   1.07092   1.07395   1.11999
 Alpha virt. eigenvalues --    1.16932   1.18637   1.20236   1.21971   1.28901
 Alpha virt. eigenvalues --    1.30261   1.34269   1.34991   1.35298   1.35928
 Alpha virt. eigenvalues --    1.37616   1.38009   1.40116   1.40942   1.41630
 Alpha virt. eigenvalues --    1.45025   1.45523   1.46202   1.47003   1.49176
 Alpha virt. eigenvalues --    1.50104   1.52216   1.53617   1.54287   1.56506
 Alpha virt. eigenvalues --    1.56510   1.56988   1.57687   1.59016   1.60117
 Alpha virt. eigenvalues --    1.62635   1.64284   1.65495   1.66561   1.68026
 Alpha virt. eigenvalues --    1.68863   1.70053   1.71074   1.75423   1.76286
 Alpha virt. eigenvalues --    1.76420   1.77102   1.78205   1.80632   1.80804
 Alpha virt. eigenvalues --    1.82891   1.83232   1.83277   1.85030   1.85307
 Alpha virt. eigenvalues --    1.86544   1.88316   1.88765   1.89802   1.93433
 Alpha virt. eigenvalues --    1.94452   1.95399   1.98854   1.98872   2.00855
 Alpha virt. eigenvalues --    2.01489   2.03654   2.08407   2.09180   2.12571
 Alpha virt. eigenvalues --    2.15352   2.16839   2.18517   2.19603   2.22313
 Alpha virt. eigenvalues --    2.23088   2.26976   2.31486   2.31889   2.32655
 Alpha virt. eigenvalues --    2.36491   2.38608   2.39735   2.41362   2.42156
 Alpha virt. eigenvalues --    2.44388   2.46198   2.48803   2.53201   2.55125
 Alpha virt. eigenvalues --    2.56102   2.57995   2.58506   2.59944   2.60626
 Alpha virt. eigenvalues --    2.61317   2.61754   2.62930   2.63435   2.64815
 Alpha virt. eigenvalues --    2.64902   2.65624   2.66558   2.66792   2.67191
 Alpha virt. eigenvalues --    2.69803   2.70133   2.71454   2.74149   2.74999
 Alpha virt. eigenvalues --    2.75926   2.76081   2.78827   2.84073   2.84928
 Alpha virt. eigenvalues --    2.87456   2.87815   2.92822   2.93723   2.99036
 Alpha virt. eigenvalues --    3.01247   3.01297   3.02798   3.05603   3.09834
 Alpha virt. eigenvalues --    3.11193   3.16890   3.24389   3.27949   3.30975
 Alpha virt. eigenvalues --    3.33562   3.39278   3.40677   3.49490   3.54838
 Alpha virt. eigenvalues --    3.56658   3.59695   3.60620   3.65426   3.72402
 Alpha virt. eigenvalues --    3.74612   3.86177   3.87221   3.89174   3.94294
 Alpha virt. eigenvalues --    4.00425   4.02775   4.08218   4.12803   4.28602
 Alpha virt. eigenvalues --    4.45578   4.56240   4.57665  23.42033  23.51399
 Alpha virt. eigenvalues --   23.59601  23.60813  23.61875  23.86483  23.92089
 Alpha virt. eigenvalues --   23.94506  24.12127  24.25888  24.35501  24.41475
 Alpha virt. eigenvalues --   24.80945  24.85144
          Condensed to atoms (all electrons):
               1          2          3          4          5          6
     1  C    7.563269   0.786138  -0.757221   1.056775   0.043225  -0.050207
     2  C    0.786138   8.274074   0.537221  -0.982298  -0.090632  -0.011717
     3  C   -0.757221   0.537221   6.908121   0.363647  -0.077327   0.019862
     4  C    1.056775  -0.982298   0.363647  13.923342  -0.298890  -0.264592
     5  C    0.043225  -0.090632  -0.077327  -0.298890   8.838557   1.140095
     6  C   -0.050207  -0.011717   0.019862  -0.264592   1.140095   7.510270
     7  C   -0.099951  -0.028269  -0.006808   0.213108  -1.531542  -1.309839
     8  C    0.445406   0.058765  -0.123999  -0.294470   2.616612   0.961553
     9  C   -0.860828  -1.559089   0.218272   1.147421  -0.940642   0.380689
    10  C   -0.773825  -0.168995   0.253385  -2.856117  -1.459522  -1.015943
    11  C    0.725677  -0.479476   0.464011  -1.355003  -1.245753   0.335871
    12  C   -1.318368   0.639111  -1.682417  -2.012294   0.303764  -0.846184
    13  C    0.147747  -0.324535  -0.371251  -1.034948  -0.736725   1.337362
    14  C   -1.411146  -0.543811   0.332583  -1.991111  -0.884202  -2.055822
    15  H    0.378842  -0.106665  -0.001166   0.009926   0.006047   0.002377
    16  H   -0.017639   0.386685  -0.040666   0.036624  -0.001826  -0.000546
    17  H   -0.009715  -0.032380   0.403715  -0.075363  -0.000284   0.000547
    18  H    0.035069   0.007662  -0.068367   0.572854   0.005342  -0.006385
    19  H   -0.021994  -0.011689   0.049135  -0.198781  -0.030984   0.068875
    20  H    0.004719   0.002423  -0.006988   0.020060   0.435256  -0.102998
    21  H   -0.000980  -0.000357   0.000313  -0.001570  -0.037577   0.336543
    22  H   -0.000577  -0.000042  -0.000159   0.000488  -0.006200  -0.003389
    23  H    0.013062   0.001851   0.000506  -0.006094   0.027897   0.033132
    24  H    0.046879   0.017606  -0.000590  -0.003439  -0.016876  -0.005605
    25  H    0.046879   0.017606  -0.000590  -0.003439  -0.016876  -0.005605
               7          8          9         10         11         12
     1  C   -0.099951   0.445406  -0.860828  -0.773825   0.725677  -1.318368
     2  C   -0.028269   0.058765  -1.559089  -0.168995  -0.479476   0.639111
     3  C   -0.006808  -0.123999   0.218272   0.253385   0.464011  -1.682417
     4  C    0.213108  -0.294470   1.147421  -2.856117  -1.355003  -2.012294
     5  C   -1.531542   2.616612  -0.940642  -1.459522  -1.245753   0.303764
     6  C   -1.309839   0.961553   0.380689  -1.015943   0.335871  -0.846184
     7  C    9.010629  -2.514872  -0.795136   0.849314  -0.864752   0.629163
     8  C   -2.514872  11.496796  -1.111807  -1.357120   0.642766  -0.886669
     9  C   -0.795136  -1.111807  10.363736   0.038043   1.056683  -2.769227
    10  C    0.849314  -1.357120   0.038043   8.700532   0.129234   2.021181
    11  C   -0.864752   0.642766   1.056683   0.129234  16.016370  -5.310480
    12  C    0.629163  -0.886669  -2.769227   2.021181  -5.310480  18.496022
    13  C   -0.693199  -0.550871   0.780980  -0.826066  -0.113240  -2.908042
    14  C    3.320761  -3.848949  -0.447427   2.059928  -3.520091   1.304772
    15  H   -0.004094  -0.000295   0.069155   0.005536  -0.037959   0.032184
    16  H    0.000434   0.002750  -0.006780  -0.019504   0.020473  -0.015501
    17  H   -0.000239  -0.001809  -0.000371   0.017906   0.002139   0.036338
    18  H    0.003131   0.004488  -0.004840  -0.027981  -0.013807  -0.067655
    19  H   -0.016353  -0.039972   0.057062   0.404574   0.128431  -0.213779
    20  H    0.006376   0.059830  -0.032052   0.062177  -0.025780   0.045611
    21  H    0.039673  -0.059120  -0.004293   0.007416  -0.002218  -0.002668
    22  H    0.354413  -0.015927  -0.000615   0.000279  -0.005339   0.001522
    23  H   -0.138954   0.394592   0.100429  -0.018085   0.047325  -0.017622
    24  H    0.010261  -0.005121   0.367554   0.009266   0.040708  -0.045077
    25  H    0.010261  -0.005121   0.367554   0.009266   0.040708  -0.045077
              13         14         15         16         17         18
     1  C    0.147747  -1.411146   0.378842  -0.017639  -0.009715   0.035069
     2  C   -0.324535  -0.543811  -0.106665   0.386685  -0.032380   0.007662
     3  C   -0.371251   0.332583  -0.001166  -0.040666   0.403715  -0.068367
     4  C   -1.034948  -1.991111   0.009926   0.036624  -0.075363   0.572854
     5  C   -0.736725  -0.884202   0.006047  -0.001826  -0.000284   0.005342
     6  C    1.337362  -2.055822   0.002377  -0.000546   0.000547  -0.006385
     7  C   -0.693199   3.320761  -0.004094   0.000434  -0.000239   0.003131
     8  C   -0.550871  -3.848949  -0.000295   0.002750  -0.001809   0.004488
     9  C    0.780980  -0.447427   0.069155  -0.006780  -0.000371  -0.004840
    10  C   -0.826066   2.059928   0.005536  -0.019504   0.017906  -0.027981
    11  C   -0.113240  -3.520091  -0.037959   0.020473   0.002139  -0.013807
    12  C   -2.908042   1.304772   0.032184  -0.015501   0.036338  -0.067655
    13  C   11.698947  -0.085914  -0.024453   0.006970  -0.007327  -0.008965
    14  C   -0.085914  13.305496   0.009222  -0.018765   0.008256  -0.086575
    15  H   -0.024453   0.009222   0.421191  -0.006266   0.001919  -0.000012
    16  H    0.006970  -0.018765  -0.006266   0.395386  -0.006495   0.002649
    17  H   -0.007327   0.008256   0.001919  -0.006495   0.410059  -0.011169
    18  H   -0.008965  -0.086575  -0.000012   0.002649  -0.011169   0.433501
    19  H    0.099670   0.095271   0.001100  -0.000816   0.003299  -0.008457
    20  H   -0.018868  -0.122500  -0.000273   0.000062  -0.000291   0.001696
    21  H   -0.007104   0.078706   0.000046  -0.000008   0.000009  -0.000090
    22  H    0.019412  -0.003554  -0.000144   0.000006  -0.000004   0.000010
    23  H   -0.058663  -0.074172   0.000480  -0.000111  -0.000010  -0.000111
    24  H   -0.046165  -0.034217  -0.001114   0.000550  -0.000074   0.000073
    25  H   -0.046165  -0.034217  -0.001114   0.000550  -0.000074   0.000073
              19         20         21         22         23         24
     1  C   -0.021994   0.004719  -0.000980  -0.000577   0.013062   0.046879
     2  C   -0.011689   0.002423  -0.000357  -0.000042   0.001851   0.017606
     3  C    0.049135  -0.006988   0.000313  -0.000159   0.000506  -0.000590
     4  C   -0.198781   0.020060  -0.001570   0.000488  -0.006094  -0.003439
     5  C   -0.030984   0.435256  -0.037577  -0.006200   0.027897  -0.016876
     6  C    0.068875  -0.102998   0.336543  -0.003389   0.033132  -0.005605
     7  C   -0.016353   0.006376   0.039673   0.354413  -0.138954   0.010261
     8  C   -0.039972   0.059830  -0.059120  -0.015927   0.394592  -0.005121
     9  C    0.057062  -0.032052  -0.004293  -0.000615   0.100429   0.367554
    10  C    0.404574   0.062177   0.007416   0.000279  -0.018085   0.009266
    11  C    0.128431  -0.025780  -0.002218  -0.005339   0.047325   0.040708
    12  C   -0.213779   0.045611  -0.002668   0.001522  -0.017622  -0.045077
    13  C    0.099670  -0.018868  -0.007104   0.019412  -0.058663  -0.046165
    14  C    0.095271  -0.122500   0.078706  -0.003554  -0.074172  -0.034217
    15  H    0.001100  -0.000273   0.000046  -0.000144   0.000480  -0.001114
    16  H   -0.000816   0.000062  -0.000008   0.000006  -0.000111   0.000550
    17  H    0.003299  -0.000291   0.000009  -0.000004  -0.000010  -0.000074
    18  H   -0.008457   0.001696  -0.000090   0.000010  -0.000111   0.000073
    19  H    0.473908  -0.012642   0.000562  -0.000400   0.000262   0.000507
    20  H   -0.012642   0.482108  -0.007095   0.001692  -0.001044   0.000475
    21  H    0.000562  -0.007095   0.424434  -0.002148   0.000562  -0.000185
    22  H   -0.000400   0.001692  -0.002148   0.430801  -0.007126   0.000729
    23  H    0.000262  -0.001044   0.000562  -0.007126   0.470508  -0.000267
    24  H    0.000507   0.000475  -0.000185   0.000729  -0.000267   0.477509
    25  H    0.000507   0.000475  -0.000185   0.000729  -0.000267  -0.070191
              25
     1  C    0.046879
     2  C    0.017606
     3  C   -0.000590
     4  C   -0.003439
     5  C   -0.016876
     6  C   -0.005605
     7  C    0.010261
     8  C   -0.005121
     9  C    0.367554
    10  C    0.009266
    11  C    0.040708
    12  C   -0.045077
    13  C   -0.046165
    14  C   -0.034217
    15  H   -0.001114
    16  H    0.000550
    17  H   -0.000074
    18  H    0.000073
    19  H    0.000507
    20  H    0.000475
    21  H   -0.000185
    22  H    0.000729
    23  H   -0.000267
    24  H   -0.070191
    25  H    0.477509
 Mulliken charges:
               1
     1  C    0.028765
     2  C   -0.389187
     3  C   -0.413221
     4  C    0.034164
     5  C   -0.040938
     6  C   -0.448343
     7  C   -0.443517
     8  C    0.132563
     9  C   -0.414472
    10  C   -0.044880
    11  C   -0.676499
    12  C    0.631395
    13  C   -0.228584
    14  C    0.647481
    15  H    0.245527
    16  H    0.281784
    17  H    0.261417
    18  H    0.237867
    19  H    0.172703
    20  H    0.207572
    21  H    0.237334
    22  H    0.235541
    23  H    0.231921
    24  H    0.256804
    25  H    0.256804
 Sum of Mulliken charges =   1.00000
 Mulliken charges with hydrogens summed into heavy atoms:
               1
     1  C    0.274292
     2  C   -0.107403
     3  C   -0.151804
     4  C    0.272032
     5  C    0.166634
     6  C   -0.211009
     7  C   -0.207976
     8  C    0.364485
     9  C    0.099135
    10  C    0.127823
    11  C   -0.676499
    12  C    0.631395
    13  C   -0.228584
    14  C    0.647481
 Electronic spatial extent (au):  <R**2>=           2861.0556
 Charge=              1.0000 electrons
 Dipole moment (field-independent basis, Debye):
    X=              2.3508    Y=             -4.5934    Z=              0.0000  Tot=              5.1600
 Quadrupole moment (field-independent basis, Debye-Ang):
   XX=            -47.6118   YY=            -37.0298   ZZ=            -83.6994
   XY=            -13.4826   XZ=             -0.0000   YZ=             -0.0000
 Traceless Quadrupole moment (field-independent basis, Debye-Ang):
   XX=              8.5019   YY=             19.0839   ZZ=            -27.5858
   XY=            -13.4826   XZ=             -0.0000   YZ=             -0.0000
 Octapole moment (field-independent basis, Debye-Ang**2):
  XXX=             18.7684  YYY=            -51.0615  ZZZ=             -0.0000  XYY=             13.2631
  XXY=             -7.5526  XXZ=              0.0000  XZZ=              1.5757  YZZ=             -8.7405
  YYZ=              0.0000  XYZ=              0.0000
 Hexadecapole moment (field-independent basis, Debye-Ang**3):
 XXXX=          -1126.5869 YYYY=          -1704.9630 ZZZZ=            -98.5561 XXXY=            373.3986
 XXXZ=             -0.0000 YYYX=            308.0616 YYYZ=              0.0000 ZZZX=              0.0000
 ZZZY=              0.0000 XXYY=           -440.2680 XXZZ=           -277.3683 YYZZ=           -455.9657
 XXYZ=             -0.0000 YYXZ=              0.0000 ZZXY=            202.4119
 N-N= 7.832518648374D+02 E-N=-2.803485416490D+03  KE= 5.385572925742D+02
 Symmetry A'   KE= 5.236669510367D+02
 Symmetry A"   KE= 1.489034153748D+01
 Unable to Open any file for archive entry.
 1\1\GINC-GADI-CPU-CLX-0240\SP\RM062X TD-FC\6-311++G(d,p)\C14H11(1+)\TS
 1578\02-Aug-2022\0\\#n M062X/6-311++G(d,p) TD(NStates=1) EmpiricalDisp
 ersion=GD3 SP\\SP_8\\1,1\C,0,0.,2.338655,1.338431\C,0,0.,3.547508,0.61
 7989\C,0,0.,3.627861,-0.82983\C,0,0.,2.647156,-1.489538\C,0,0.,-2.2791
 56,-1.325538\C,0,0.,-3.739861,-0.59783\C,0,0.,-3.855508,0.725989\C,0,0
 .,-2.646655,1.382431\C,0,0.,-0.056,1.453369\C,0,0.,0.22,-1.429189\C,0,
 0.,1.322055,0.723065\C,0,0.,1.317471,-0.776804\C,0,0.,-1.202055,0.6310
 65\C,0,0.,-1.157471,-0.684804\H,0,0.,2.394071,2.421647\H,0,0.,4.468753
 ,1.189689\H,0,0.,4.629262,-1.258349\H,0,0.,2.59155,-2.572059\H,0,0.,0.
 138,-2.510266\H,0,0.,-2.34355,-2.408059\H,0,0.,-4.589262,-1.286349\H,0
 ,0.,-4.804753,1.233689\H,0,0.,-2.582071,2.465647\H,0,-0.859585,-0.304,
 2.145787\H,0,0.859585,-0.304,2.145787\\Version=ES64L-G16RevC.01\State=
 1-A'\HF=-539.5250303\RMSD=6.195e-09\PG=CS [SG(C14H9),X(H2)]\\@
 The archive entry for this job was punched.


 IT IS A PROFOUNDLY ERRONEOUS TRUISM ... THAT WE SHOULD CULTIVATE
 THE HABIT OF THINKING OF WHAT WE ARE DOING.
 THE PRECISE OPPOSITE IS THE CASE.
 CIVILIZATION ADVANCES BY EXTENDING THE NUMBER OF IMPORTANT OPERATIONS
 WHICH WE CAN PERFORM WITHOUT THINKING ABOUT THEM.

                                    -- ALFRED NORTH WHITEHEAD
 Job cpu time:       0 days  0 hours 53 minutes  0.4 seconds.
 Elapsed time:       0 days  0 hours  1 minutes  6.4 seconds.
 File lengths (MBytes):  RWF=    460 Int=      0 D2E=      0 Chk=     15 Scr=      1
 Normal termination of Gaussian 16 at Tue Aug  2 13:09:43 2022.
