 Entering Gaussian System, Link 0=g16
 Initial command:
 /apps/gaussian/g16c01/g16/l1.exe "/jobfs/53803565.gadi-pbs/Gau-1066424.inp" -scrdir="/jobfs/53803565.gadi-pbs/"
 Entering Link 1 = /apps/gaussian/g16c01/g16/l1.exe PID=   1066425.
  
 Copyright (c) 1988-2019, Gaussian, Inc.  All Rights Reserved.
  
 This is part of the Gaussian(R) 16 program.  It is based on
 the Gaussian(R) 09 system (copyright 2009, Gaussian, Inc.),
 the Gaussian(R) 03 system (copyright 2003, Gaussian, Inc.),
 the Gaussian(R) 98 system (copyright 1998, Gaussian, Inc.),
 the Gaussian(R) 94 system (copyright 1995, Gaussian, Inc.),
 the Gaussian 92(TM) system (copyright 1992, Gaussian, Inc.),
 the Gaussian 90(TM) system (copyright 1990, Gaussian, Inc.),
 the Gaussian 88(TM) system (copyright 1988, Gaussian, Inc.),
 the Gaussian 86(TM) system (copyright 1986, Carnegie Mellon
 University), and the Gaussian 82(TM) system (copyright 1983,
 Carnegie Mellon University). Gaussian is a federally registered
 trademark of Gaussian, Inc.
  
 This software contains proprietary and confidential information,
 including trade secrets, belonging to Gaussian, Inc.
  
 This software is provided under written license and may be
 used, copied, transmitted, or stored only in accord with that
 written license.
  
 The following legend is applicable only to US Government
 contracts under FAR:
  
                    RESTRICTED RIGHTS LEGEND
  
 Use, reproduction and disclosure by the US Government is
 subject to restrictions as set forth in subparagraphs (a)
 and (c) of the Commercial Computer Software - Restricted
 Rights clause in FAR 52.227-19.
  
 Gaussian, Inc.
 340 Quinnipiac St., Bldg. 40, Wallingford CT 06492
  
  
 ---------------------------------------------------------------
 Warning -- This program may not be used in any manner that
 competes with the business of Gaussian, Inc. or will provide
 assistance to any competitor of Gaussian, Inc.  The licensee
 of this program is prohibited from giving any competitor of
 Gaussian, Inc. access to this program.  By using this program,
 the user acknowledges that Gaussian, Inc. is engaged in the
 business of creating and licensing software in the field of
 computational chemistry and represents and warrants to the
 licensee that it is not a competitor of Gaussian, Inc. and that
 it will not use this program in any manner prohibited above.
 ---------------------------------------------------------------
  

 Cite this work as:
 Gaussian 16, Revision C.01,
 M. J. Frisch, G. W. Trucks, H. B. Schlegel, G. E. Scuseria, 
 M. A. Robb, J. R. Cheeseman, G. Scalmani, V. Barone, 
 G. A. Petersson, H. Nakatsuji, X. Li, M. Caricato, A. V. Marenich, 
 J. Bloino, B. G. Janesko, R. Gomperts, B. Mennucci, H. P. Hratchian, 
 J. V. Ortiz, A. F. Izmaylov, J. L. Sonnenberg, D. Williams-Young, 
 F. Ding, F. Lipparini, F. Egidi, J. Goings, B. Peng, A. Petrone, 
 T. Henderson, D. Ranasinghe, V. G. Zakrzewski, J. Gao, N. Rega, 
 G. Zheng, W. Liang, M. Hada, M. Ehara, K. Toyota, R. Fukuda, 
 J. Hasegawa, M. Ishida, T. Nakajima, Y. Honda, O. Kitao, H. Nakai, 
 T. Vreven, K. Throssell, J. A. Montgomery, Jr., J. E. Peralta, 
 F. Ogliaro, M. J. Bearpark, J. J. Heyd, E. N. Brothers, K. N. Kudin, 
 V. N. Staroverov, T. A. Keith, R. Kobayashi, J. Normand, 
 K. Raghavachari, A. P. Rendell, J. C. Burant, S. S. Iyengar, 
 J. Tomasi, M. Cossi, J. M. Millam, M. Klene, C. Adamo, R. Cammi, 
 J. W. Ochterski, R. L. Martin, K. Morokuma, O. Farkas, 
 J. B. Foresman, and D. J. Fox, Gaussian, Inc., Wallingford CT, 2019.
 
 ******************************************
 Gaussian 16:  ES64L-G16RevC.01  3-Jul-2019
                 2-Aug-2022 
 ******************************************
 %NProcShared=48
 Will use up to   48 processors via shared memory.
 %mem = 190GB
 ---------------------------------------------------------------
 #n M062X/6-311++G(d,p) TD(NStates=1) EmpiricalDispersion=GD3 SP
 ---------------------------------------------------------------
 1/38=1,172=1/1;
 2/12=2,17=6,18=5,40=1/2;
 3/5=4,6=6,7=1111,11=9,25=1,30=1,74=-55,124=31/1,2,3,8;
 4//1;
 5/5=2,38=5/2;
 8/6=1,10=2,108=1/1;
 9/41=1,42=1,70=2/14;
 6/7=2,8=2,9=2,10=2/1;
 99/5=1,9=1/99;
 -----
 SP_10
 -----
 Symbolic Z-matrix:
 Charge =  1 Multiplicity = 1
 C                     0.        2.33265   1.36043 
 C                     0.        3.52151   0.59199 
 C                     0.        3.59386  -0.87383 
 C                     0.        2.66316  -1.48754 
 C                     0.       -2.26316  -1.32754 
 C                     0.       -3.77386  -0.55383 
 C                     0.       -3.88151   0.75199 
 C                     0.       -2.65266   1.36043 
 C                     0.       -0.08      1.45337 
 C                     0.        0.29     -1.42919 
 C                     0.        1.35206   0.78707 
 C                     0.        1.32747  -0.7408 
 C                     0.       -1.17205   0.56707 
 C                     0.       -1.14747  -0.7208 
 H                     0.        2.43807   2.44365 
 H                     0.        4.45675   1.14169 
 H                     0.        4.59926  -1.29235 
 H                     0.        2.55755  -2.57006 
 H                     0.        0.25     -2.51027 
 H                     0.       -2.37755  -2.41006 
 H                     0.       -4.61926  -1.25235 
 H                     0.       -4.81675   1.28169 
 H                     0.       -2.53807   2.44365 
 H                    -0.85959  -0.44      2.14579 
 H                     0.85959  -0.44      2.14579 
 
                          Input orientation:                          
 ---------------------------------------------------------------------
 Center     Atomic      Atomic             Coordinates (Angstroms)
 Number     Number       Type             X           Y           Z
 ---------------------------------------------------------------------
      1          6           0        0.000000    2.332655    1.360431
      2          6           0        0.000000    3.521508    0.591989
      3          6           0        0.000000    3.593861   -0.873830
      4          6           0        0.000000    2.663156   -1.487538
      5          6           0        0.000000   -2.263156   -1.327538
      6          6           0        0.000000   -3.773861   -0.553830
      7          6           0        0.000000   -3.881508    0.751989
      8          6           0        0.000000   -2.652655    1.360431
      9          6           0        0.000000   -0.080000    1.453369
     10          6           0        0.000000    0.290000   -1.429189
     11          6           0        0.000000    1.352055    0.787065
     12          6           0        0.000000    1.327471   -0.740804
     13          6           0        0.000000   -1.172055    0.567065
     14          6           0        0.000000   -1.147471   -0.720804
     15          1           0        0.000000    2.438071    2.443647
     16          1           0        0.000000    4.456753    1.141689
     17          1           0        0.000000    4.599262   -1.292349
     18          1           0        0.000000    2.557550   -2.570059
     19          1           0        0.000000    0.250000   -2.510266
     20          1           0        0.000000   -2.377550   -2.410059
     21          1           0        0.000000   -4.619262   -1.252349
     22          1           0        0.000000   -4.816753    1.281689
     23          1           0        0.000000   -2.538071    2.443647
     24          1           0       -0.859585   -0.440000    2.145787
     25          1           0        0.859585   -0.440000    2.145787
 ---------------------------------------------------------------------
                    Distance matrix (angstroms):
                    1          2          3          4          5
     1  C    0.000000
     2  C    1.415583   0.000000
     3  C    2.565651   1.467604   0.000000
     4  C    2.867082   2.249711   1.114832   0.000000
     5  C    5.324158   6.094827   5.874564   4.928910   0.000000
     6  C    6.399526   7.384803   7.374668   6.504383   1.697308
     7  C    6.243879   7.404745   7.650126   6.917233   2.635051
     8  C    4.985310   6.221800   6.634070   6.030653   2.716042
     9  C    2.414444   3.703085   4.348921   4.021671   3.535479
    10  C    3.457516   3.811536   3.350212   2.373873   2.555179
    11  C    1.135925   2.178206   2.790030   2.625415   4.188233
    12  C    2.329288   2.567126   2.270291   1.530250   3.638249
    13  C    3.593386   4.693629   4.978969   4.350889   2.186326
    14  C    4.054974   4.850030   4.743801   3.886999   1.269992
    15  H    1.088333   2.145338   3.513048   3.937623   6.026887
    16  H    2.135331   1.084829   2.192464   3.182739   7.159208
    17  H    3.489233   2.170779   1.089031   1.945920   6.862508
    18  H    3.936919   3.305717   1.987746   1.087660   4.978259
    19  H    4.395423   4.508520   3.722812   2.620934   2.777553
    20  H    6.033459   6.619001   6.165853   5.124428   1.088548
    21  H    7.426693   8.347078   8.221841   7.286215   2.357305
    22  H    7.149842   8.366737   8.682436   7.976068   3.650880
    23  H    4.989722   6.336177   6.971818   6.519738   3.781192
    24  H    3.007206   4.341281   5.111654   4.854844   4.015815
    25  H    3.007206   4.341281   5.111654   4.854844   4.015815
                    6          7          8          9         10
     6  C    0.000000
     7  C    1.310249   0.000000
     8  C    2.218445   1.371234   0.000000
     9  C    4.203981   3.865669   2.574333   0.000000
    10  C    4.157069   4.707336   4.054775   2.906207   0.000000
    11  C    5.298397   5.233681   4.045547   1.579475   2.457589
    12  C    5.104757   5.418662   4.500732   2.606793   1.245078
    13  C    2.832984   2.715756   1.679764   1.406456   2.474396
    14  C    2.631692   3.105492   2.568486   2.422091   1.602539
    15  H    6.897316   6.542078   5.204695   2.705796   4.428664
    16  H    8.403439   8.347363   7.112772   4.547447   4.896044
    17  H    8.405629   8.723691   7.721887   5.425353   4.311434
    18  H    6.644693   7.245514   6.526484   4.810888   2.538379
    19  H    4.474271   5.264187   4.838151   3.977349   1.081817
    20  H    2.322772   3.501491   3.780513   4.494976   2.842170
    21  H    1.096646   2.135802   3.270193   5.284488   4.912446
    22  H    2.111102   1.074833   2.165530   4.739863   5.781677
    23  H    3.242228   2.160215   1.089260   2.650050   4.795503
    24  H    4.375094   3.811238   2.500302   1.161003   3.748632
    25  H    4.375094   3.811238   2.500302   1.161003   3.748632
                   11         12         13         14         15
    11  C    0.000000
    12  C    1.528067   0.000000
    13  C    2.533679   2.821020   0.000000
    14  C    2.919126   2.475023   1.288104   0.000000
    15  H    1.980832   3.372560   4.068731   4.782244   0.000000
    16  H    3.124885   3.651874   5.658063   5.905608   2.402118
    17  H    3.855946   3.317954   6.063458   5.775085   4.316064
    18  H    3.567002   2.204375   4.873551   4.140885   5.015129
    19  H    3.476624   2.071700   3.390016   2.270484   5.415617
    20  H    4.912388   4.063692   3.211929   2.089659   6.837300
    21  H    6.309979   5.968694   3.897884   3.512246   7.966576
    22  H    6.188606   6.468537   3.714096   4.180145   7.347286
    23  H    4.228161   5.008307   2.321112   3.456518   4.976142
    24  H    2.407587   3.492169   1.940916   3.075182   3.018427
    25  H    2.407587   3.492169   1.940916   3.075182   3.018427
                   16         17         18         19         20
    16  H    0.000000
    17  H    2.438206   0.000000
    18  H    4.169418   2.408554   0.000000
    19  H    5.570776   4.516570   2.308325   0.000000
    20  H    7.702117   7.065775   4.937693   2.629460   0.000000
    21  H    9.386451   9.218611   7.296779   5.029122   2.523007
    22  H    9.274563   9.761507   8.319634   6.328579   4.424784
    23  H    7.114960   8.056003   7.148608   5.684593   4.856360
    24  H    5.072010   6.160668   5.653618   4.784748   5.024810
    25  H    5.072010   6.160668   5.653618   4.784748   5.024810
                   21         22         23         24         25
    21  H    0.000000
    22  H    2.541722   0.000000
    23  H    4.241667   2.557839   0.000000
    24  H    5.454580   4.543294   2.286812   0.000000
    25  H    5.454580   4.543294   2.286812   1.719170   0.000000
 Stoichiometry    C14H11(1+)
 Framework group  CS[SG(C14H9),X(H2)]
 Deg. of freedom    46
 Full point group                 CS      NOp   2
 Largest Abelian subgroup         CS      NOp   2
 Largest concise Abelian subgroup CS      NOp   2
                         Standard orientation:                         
 ---------------------------------------------------------------------
 Center     Atomic      Atomic             Coordinates (Angstroms)
 Number     Number       Type             X           Y           Z
 ---------------------------------------------------------------------
      1          6           0       -2.243232   -1.507723    0.000000
      2          6           0       -2.070611   -2.912742    0.000000
      3          6           0       -0.783297   -3.617499    0.000000
      4          6           0        0.175036   -3.047897    0.000000
      5          6           0        2.180828    1.454430    0.000000
      6          6           0        2.143919    3.151337    0.000000
      7          6           0        1.015969    3.818029    0.000000
      8          6           0       -0.067733    2.977867    0.000000
      9          6           0       -1.274015    0.703648    0.000000
     10          6           0        1.158138   -0.887160    0.000000
     11          6           0       -1.299423   -0.875623    0.000000
     12          6           0        0.086022   -1.520238    0.000000
     13          6           0        0.000000    1.299470    0.000000
     14          6           0        1.148047    0.715347    0.000000
     15          1           0       -3.263870   -1.129877    0.000000
     16          1           0       -2.973334   -3.514360    0.000000
     17          1           0       -0.845469   -4.704754    0.000000
     18          1           0        1.195132   -3.425270    0.000000
     19          1           0        2.148305   -1.322932    0.000000
     20          1           0        3.204758    1.084965    0.000000
     21          1           0        3.141337    3.607175    0.000000
     22          1           0        0.947489    4.890678    0.000000
     23          1           0       -1.092372    3.347465    0.000000
     24          1           0       -1.739929    1.329720    0.859585
     25          1           0       -1.739929    1.329720   -0.859585
 ---------------------------------------------------------------------
 Rotational constants (GHZ):           2.1477477           0.4418792           0.3672728
 Standard basis: 6-311++G(d,p) (5D, 7F)
 There are   299 symmetry adapted cartesian basis functions of A'  symmetry.
 There are   100 symmetry adapted cartesian basis functions of A"  symmetry.
 There are   285 symmetry adapted basis functions of A'  symmetry.
 There are   100 symmetry adapted basis functions of A"  symmetry.
   385 basis functions,   603 primitive gaussians,   399 cartesian basis functions
    47 alpha electrons       47 beta electrons
       nuclear repulsion energy       784.3232447691 Hartrees.
 NAtoms=   25 NActive=   25 NUniq=   24 SFac= 1.09D+00 NAtFMM=   60 NAOKFM=F Big=F
 Integral buffers will be    131072 words long.
 Regular integral format.
 Two-electron integral symmetry is turned on.
 Nuclear repulsion after empirical dispersion term =      784.3222820764 Hartrees.
 One-electron integrals computed using PRISM.
 NBasis=   385 RedAO= T EigKep=  1.13D-06  NBF=   285   100
 NBsUse=   379 1.00D-06 EigRej=  7.11D-07 NBFU=   279   100
 ExpMin= 3.60D-02 ExpMax= 4.56D+03 ExpMxC= 6.82D+02 IAcc=3 IRadAn=         5 AccDes= 0.00D+00
 Harris functional with IExCor= 1009 and IRadAn=       5 diagonalized for initial guess.
 HarFok:  IExCor= 1009 AccDes= 0.00D+00 IRadAn=         5 IDoV= 1 UseB2=F ITyADJ=14
 ICtDFT=  3500011 ScaDFX=  1.000000  1.000000  1.000000  1.000000
 FoFCou: FMM=F IPFlag=           0 FMFlag=      100000 FMFlg1=           0
         NFxFlg=           0 DoJE=T BraDBF=F KetDBF=T FulRan=T
         wScrn=  0.000000 ICntrl=       500 IOpCl=  0 I1Cent=   200000004 NGrid=           0
         NMat0=    1 NMatS0=      1 NMatT0=    0 NMatD0=    1 NMtDS0=    0 NMtDT0=    0
 Petite list used in FoFCou.
 Initial guess orbital symmetries:
       Occupied  (A') (A') (A') (A') (A') (A') (A') (A') (A') (A')
                 (A') (A') (A') (A') (A') (A') (A') (A') (A') (A')
                 (A') (A') (A') (A') (A') (A') (A') (A') (A') (A')
                 (A') (A') (A") (A') (A') (A') (A") (A') (A') (A")
                 (A') (A') (A") (A") (A') (A") (A")
       Virtual   (A") (A") (A") (A") (A") (A') (A') (A') (A') (A')
                 (A') (A") (A') (A') (A") (A') (A') (A") (A') (A')
                 (A') (A") (A') (A') (A') (A") (A') (A") (A') (A")
                 (A') (A') (A') (A') (A") (A') (A') (A') (A") (A')
                 (A") (A') (A") (A') (A') (A') (A') (A') (A') (A')
                 (A") (A") (A') (A") (A') (A') (A") (A') (A") (A')
                 (A') (A') (A') (A') (A') (A") (A') (A') (A") (A')
                 (A') (A') (A') (A') (A') (A') (A') (A') (A') (A')
                 (A') (A') (A') (A') (A') (A') (A') (A') (A') (A')
                 (A') (A') (A') (A') (A") (A") (A') (A') (A") (A')
                 (A') (A') (A") (A') (A") (A') (A") (A') (A") (A')
                 (A") (A') (A") (A") (A') (A') (A") (A') (A') (A")
                 (A") (A') (A') (A') (A") (A') (A') (A") (A') (A')
                 (A') (A') (A') (A') (A') (A') (A') (A') (A") (A')
                 (A') (A') (A') (A') (A') (A") (A') (A') (A') (A')
                 (A") (A') (A") (A') (A") (A') (A') (A') (A") (A")
                 (A') (A") (A') (A") (A") (A') (A") (A') (A') (A')
                 (A") (A') (A') (A') (A') (A') (A') (A") (A') (A")
                 (A') (A') (A") (A') (A") (A') (A") (A') (A") (A')
                 (A") (A') (A') (A") (A') (A') (A') (A") (A') (A")
                 (A') (A") (A") (A') (A') (A") (A") (A') (A") (A')
                 (A') (A') (A') (A') (A") (A') (A") (A') (A') (A")
                 (A') (A") (A') (A') (A") (A') (A') (A") (A') (A')
                 (A") (A') (A") (A') (A') (A') (A") (A") (A') (A")
                 (A') (A') (A') (A') (A') (A") (A') (A') (A') (A")
                 (A') (A') (A') (A") (A") (A') (A') (A") (A') (A")
                 (A') (A') (A") (A') (A') (A') (A') (A") (A") (A')
                 (A') (A') (A") (A') (A') (A") (A') (A') (A") (A')
                 (A") (A') (A") (A') (A') (A") (A") (A') (A') (A')
                 (A') (A') (A') (A') (A') (A') (A') (A') (A') (A')
                 (A") (A') (A') (A') (A') (A') (A') (A') (A') (A')
                 (A') (A') (A') (A') (A') (A') (A') (A') (A') (A')
                 (A') (A') (A') (A') (A') (A') (A') (A') (A') (A')
                 (A') (A')
 The electronic state of the initial guess is 1-A'.
 Requested convergence on RMS density matrix=1.00D-08 within 128 cycles.
 Requested convergence on MAX density matrix=1.00D-06.
 Requested convergence on             energy=1.00D-06.
 No special actions if energy rises.
 SCF Done:  E(RM062X) =  -539.361548470     A.U. after   16 cycles
            NFock= 16  Conv=0.10D-07     -V/T= 2.0003
 DoSCS=F DFT=T ScalE2(SS,OS)=  1.000000  1.000000
 ExpMin= 3.60D-02 ExpMax= 4.56D+03 ExpMxC= 6.82D+02 IAcc=3 IRadAn=         5 AccDes= 0.00D+00
 HarFok:  IExCor=  205 AccDes= 0.00D+00 IRadAn=         5 IDoV=-2 UseB2=F ITyADJ=14
 ICtDFT= 12500011 ScaDFX=  1.000000  1.000000  1.000000  1.000000
 Range of M.O.s used for correlation:    15   379
 NBasis=   385 NAE=    47 NBE=    47 NFC=    14 NFV=     0
 NROrb=    365 NOA=    33 NOB=    33 NVA=   332 NVB=   332

 **** Warning!!: The largest alpha MO coefficient is  0.19152222D+03


 **** Warning!!: The smallest alpha delta epsilon is  0.98955319D-01

 Orbital symmetries:
       Occupied  (A') (A') (A') (A') (A') (A') (A') (A') (A') (A')
                 (A') (A') (A') (A') (A') (A') (A') (A') (A') (A')
                 (A') (A') (A') (A') (A') (A') (A') (A') (A') (A')
                 (A') (A") (A') (A') (A') (A') (A") (A') (A") (A')
                 (A') (A") (A') (A") (A') (A") (A")
       Virtual   (A") (A") (A") (A') (A") (A') (A') (A') (A') (A")
                 (A') (A") (A') (A') (A") (A') (A") (A') (A') (A')
                 (A") (A") (A') (A') (A') (A') (A') (A") (A') (A')
                 (A") (A") (A') (A') (A') (A') (A') (A") (A") (A')
                 (A") (A') (A') (A') (A') (A") (A") (A") (A') (A')
                 (A') (A') (A') (A") (A') (A') (A') (A") (A') (A')
                 (A') (A') (A') (A") (A') (A') (A") (A') (A') (A')
                 (A') (A') (A') (A') (A') (A') (A') (A') (A') (A')
                 (A') (A') (A') (A') (A') (A') (A') (A') (A') (A')
                 (A") (A') (A') (A") (A') (A') (A') (A') (A") (A')
                 (A") (A') (A') (A") (A') (A") (A') (A") (A') (A")
                 (A') (A") (A') (A") (A') (A") (A') (A') (A") (A")
                 (A') (A') (A') (A") (A') (A") (A') (A') (A') (A')
                 (A') (A') (A') (A') (A') (A') (A') (A') (A') (A')
                 (A') (A') (A') (A") (A') (A') (A') (A") (A') (A')
                 (A') (A') (A') (A") (A') (A") (A') (A") (A") (A')
                 (A') (A") (A") (A') (A') (A") (A") (A") (A') (A')
                 (A") (A') (A') (A') (A') (A') (A') (A') (A") (A")
                 (A') (A') (A") (A') (A") (A") (A') (A') (A") (A')
                 (A") (A') (A") (A') (A') (A") (A') (A') (A') (A")
                 (A') (A") (A") (A') (A") (A') (A") (A') (A') (A")
                 (A') (A') (A') (A') (A") (A') (A') (A") (A') (A")
                 (A') (A") (A') (A') (A") (A') (A') (A") (A') (A')
                 (A") (A') (A') (A") (A') (A') (A") (A") (A') (A")
                 (A') (A') (A') (A') (A") (A') (A') (A') (A') (A')
                 (A") (A') (A') (A') (A') (A") (A') (A") (A') (A')
                 (A") (A') (A') (A') (A") (A') (A') (A') (A') (A')
                 (A") (A') (A') (A") (A") (A") (A') (A") (A') (A")
                 (A') (A") (A') (A") (A') (A") (A") (A') (A') (A')
                 (A') (A') (A') (A') (A') (A') (A') (A') (A') (A")
                 (A') (A') (A') (A') (A') (A') (A') (A') (A') (A')
                 (A') (A') (A') (A') (A') (A') (A') (A') (A') (A')
                 (A') (A') (A') (A') (A') (A') (A') (A') (A') (A')
                 (A') (A')
     4 initial guesses have been made.
 Convergence on wavefunction:    0.001000000000000
 Iteration     1 Dimension     4 NMult     0 NNew      4
 CISAX will form     4 AO SS matrices at one time.
 Iteration     2 Dimension     6 NMult     4 NNew      2
 Iteration     3 Dimension     8 NMult     6 NNew      2
 Iteration     4 Dimension    10 NMult     8 NNew      2
 Iteration     5 Dimension    12 NMult    10 NNew      2
 Iteration     6 Dimension    14 NMult    12 NNew      2
 ***********************************************************************
 Excited states from <AA,BB:AA,BB> singles matrix:
 ***********************************************************************
 
 Ground to excited state transition densities written to RWF  633
 Ground to excited state transition electric dipole moments (Au):
       state          X           Y           Z        Dip. S.      Osc.
         1         0.3589      1.3023      0.0000      1.8248      0.0510
 Ground to excited state transition velocity dipole moments (Au):
       state          X           Y           Z        Dip. S.      Osc.
         1        -0.0091     -0.0521     -0.0000      0.0028      0.0444
 Ground to excited state transition magnetic dipole moments (Au):
       state          X           Y           Z
         1        -0.0000     -0.0000      0.3277
 Ground to excited state transition velocity quadrupole moments (Au):
       state          XX          YY          ZZ          XY          XZ          YZ
         1         0.0232      0.0231     -0.0043      0.0528      0.0000     -0.0000
 <0|del|b> * <b|rxdel|0> + <0|del|b> * <b|delr+rdel|0>
 Rotatory Strengths (R) in cgs (10**-40 erg-esu-cm/Gauss)
       state          XX          YY          ZZ    R(velocity)    E-M Angle
         1         0.0000     -0.0000     -0.0000     -0.0000       90.00
 1/2[<0|r|b>*<b|rxdel|0> + (<0|rxdel|b>*<b|r|0>)*]
 Rotatory Strengths (R) in cgs (10**-40 erg-esu-cm/Gauss)
       state          XX          YY          ZZ     R(length)
         1         0.0000      0.0000     -0.0000      0.0000
  1/2[<0|del|b>*<b|r|0> + (<0|r|b>*<b|del|0>)*] (Au)
       state          X           Y           Z        Dip. S.   Osc.(frdel)
         1        -0.0033     -0.0678     -0.0000      0.0711      0.0474

 Excitation energies and oscillator strengths:
 
 Excited State   1:      Singlet-A'     1.1416 eV 1086.03 nm  f=0.0510  <S**2>=0.000
      47 -> 48         0.70563
 This state for optimization and/or second-order correction.
 Total Energy, E(TD-HF/TD-DFT) =  -539.319594460    
 Copying the excited state density for this state as the 1-particle RhoCI density.
 SavETr:  write IOETrn=   770 NScale= 10 NData=  16 NLR=1 NState=    1 LETran=      28.

 **********************************************************************

            Population analysis using the SCF Density.

 **********************************************************************

 Orbital symmetries:
       Occupied  (A') (A') (A') (A') (A') (A') (A') (A') (A') (A')
                 (A') (A') (A') (A') (A') (A') (A') (A') (A') (A')
                 (A') (A') (A') (A') (A') (A') (A') (A') (A') (A')
                 (A') (A") (A') (A') (A') (A') (A") (A') (A") (A')
                 (A') (A") (A') (A") (A') (A") (A")
       Virtual   (A") (A") (A") (A') (A") (A') (A') (A') (A') (A")
                 (A') (A") (A') (A') (A") (A') (A") (A') (A') (A')
                 (A") (A") (A') (A') (A') (A') (A') (A") (A') (A')
                 (A") (A") (A') (A') (A') (A') (A') (A") (A") (A')
                 (A") (A') (A') (A') (A') (A") (A") (A") (A') (A')
                 (A') (A') (A') (A") (A') (A') (A') (A") (A') (A')
                 (A') (A') (A') (A") (A') (A') (A") (A') (A') (A')
                 (A') (A') (A') (A') (A') (A') (A') (A') (A') (A')
                 (A') (A') (A') (A') (A') (A') (A') (A') (A') (A')
                 (A") (A') (A') (A") (A') (A') (A') (A') (A") (A')
                 (A") (A') (A') (A") (A') (A") (A') (A") (A') (A")
                 (A') (A") (A') (A") (A') (A") (A') (A') (A") (A")
                 (A') (A') (A') (A") (A') (A") (A') (A') (A') (A')
                 (A') (A') (A') (A') (A') (A') (A') (A') (A') (A')
                 (A') (A') (A') (A") (A') (A') (A') (A") (A') (A')
                 (A') (A') (A') (A") (A') (A") (A') (A") (A") (A')
                 (A') (A") (A") (A') (A') (A") (A") (A") (A') (A')
                 (A") (A') (A') (A') (A') (A') (A') (A') (A") (A")
                 (A') (A') (A") (A') (A") (A") (A') (A') (A") (A')
                 (A") (A') (A") (A') (A') (A") (A') (A') (A') (A")
                 (A') (A") (A") (A') (A") (A') (A") (A') (A') (A")
                 (A') (A') (A') (A') (A") (A') (A') (A") (A') (A")
                 (A') (A") (A') (A') (A") (A') (A') (A") (A') (A')
                 (A") (A') (A') (A") (A') (A') (A") (A") (A') (A")
                 (A') (A') (A') (A') (A") (A') (A') (A') (A') (A')
                 (A") (A') (A') (A') (A') (A") (A') (A") (A') (A')
                 (A") (A') (A') (A') (A") (A') (A') (A') (A') (A')
                 (A") (A') (A') (A") (A") (A") (A') (A") (A') (A")
                 (A') (A") (A') (A") (A') (A") (A") (A') (A') (A')
                 (A') (A') (A') (A') (A') (A') (A') (A') (A') (A")
                 (A') (A') (A') (A') (A') (A') (A') (A') (A') (A')
                 (A') (A') (A') (A') (A') (A') (A') (A') (A') (A')
                 (A') (A') (A') (A') (A') (A') (A') (A') (A') (A')
                 (A') (A')
 The electronic state is 1-A'.
 Alpha  occ. eigenvalues --  -10.78344 -10.74894 -10.73642 -10.72614 -10.71731
 Alpha  occ. eigenvalues --  -10.71462 -10.70655 -10.70518 -10.69914 -10.69314
 Alpha  occ. eigenvalues --  -10.68435 -10.68353 -10.67973 -10.66450  -1.20114
 Alpha  occ. eigenvalues --   -1.12997  -1.11556  -1.06755  -1.02716  -1.01305
 Alpha  occ. eigenvalues --   -0.95751  -0.88493  -0.86351  -0.84641  -0.83690
 Alpha  occ. eigenvalues --   -0.77799  -0.76636  -0.74636  -0.72852  -0.69755
 Alpha  occ. eigenvalues --   -0.69130  -0.68242  -0.66552  -0.64777  -0.63648
 Alpha  occ. eigenvalues --   -0.63414  -0.63319  -0.60038  -0.57941  -0.56311
 Alpha  occ. eigenvalues --   -0.55418  -0.54805  -0.53390  -0.52450  -0.48885
 Alpha  occ. eigenvalues --   -0.47412  -0.37008
 Alpha virt. eigenvalues --   -0.27112  -0.15402  -0.12500  -0.11588  -0.10416
 Alpha virt. eigenvalues --   -0.10345  -0.09813  -0.07802  -0.07710  -0.07554
 Alpha virt. eigenvalues --   -0.07330  -0.06143  -0.05814  -0.05427  -0.05419
 Alpha virt. eigenvalues --   -0.04404  -0.04066  -0.03411  -0.03166  -0.01998
 Alpha virt. eigenvalues --   -0.01829  -0.00869  -0.00640  -0.00401   0.00469
 Alpha virt. eigenvalues --    0.00699   0.01245   0.01443   0.01552   0.01794
 Alpha virt. eigenvalues --    0.02095   0.02683   0.02986   0.03095   0.03769
 Alpha virt. eigenvalues --    0.03893   0.03953   0.04016   0.05355   0.05370
 Alpha virt. eigenvalues --    0.05794   0.05831   0.06064   0.06435   0.07330
 Alpha virt. eigenvalues --    0.07389   0.07830   0.08018   0.08076   0.08211
 Alpha virt. eigenvalues --    0.08560   0.09157   0.09523   0.09933   0.10017
 Alpha virt. eigenvalues --    0.10563   0.11258   0.11334   0.11662   0.12290
 Alpha virt. eigenvalues --    0.12993   0.13087   0.13549   0.13550   0.14115
 Alpha virt. eigenvalues --    0.14394   0.16046   0.16806   0.17090   0.17355
 Alpha virt. eigenvalues --    0.18139   0.18917   0.19805   0.20515   0.20759
 Alpha virt. eigenvalues --    0.21370   0.22156   0.22978   0.23794   0.24323
 Alpha virt. eigenvalues --    0.24873   0.25835   0.26295   0.26993   0.28262
 Alpha virt. eigenvalues --    0.29667   0.30390   0.31484   0.31976   0.35584
 Alpha virt. eigenvalues --    0.37699   0.37918   0.38356   0.39348   0.39460
 Alpha virt. eigenvalues --    0.39699   0.42305   0.42550   0.43397   0.43704
 Alpha virt. eigenvalues --    0.44113   0.44911   0.46032   0.46563   0.47214
 Alpha virt. eigenvalues --    0.48080   0.48150   0.48975   0.51025   0.51563
 Alpha virt. eigenvalues --    0.51607   0.52447   0.52631   0.54034   0.54392
 Alpha virt. eigenvalues --    0.55276   0.55329   0.57981   0.58364   0.59096
 Alpha virt. eigenvalues --    0.59214   0.61853   0.61999   0.62852   0.63661
 Alpha virt. eigenvalues --    0.63768   0.64900   0.66312   0.66715   0.67720
 Alpha virt. eigenvalues --    0.69732   0.72012   0.73405   0.73615   0.74271
 Alpha virt. eigenvalues --    0.75007   0.75603   0.76998   0.77329   0.78081
 Alpha virt. eigenvalues --    0.79268   0.80045   0.80344   0.81383   0.81756
 Alpha virt. eigenvalues --    0.82242   0.82810   0.84363   0.84658   0.85620
 Alpha virt. eigenvalues --    0.86861   0.89508   0.90232   0.90798   0.92172
 Alpha virt. eigenvalues --    0.94251   0.94680   0.95566   0.97952   0.98612
 Alpha virt. eigenvalues --    0.99396   1.00578   1.02711   1.03261   1.04980
 Alpha virt. eigenvalues --    1.06295   1.07069   1.07817   1.08331   1.11806
 Alpha virt. eigenvalues --    1.15513   1.18812   1.19233   1.20718   1.27837
 Alpha virt. eigenvalues --    1.29791   1.32589   1.34694   1.34732   1.36716
 Alpha virt. eigenvalues --    1.37507   1.38733   1.39680   1.39812   1.40542
 Alpha virt. eigenvalues --    1.44988   1.45768   1.46706   1.47193   1.49359
 Alpha virt. eigenvalues --    1.49944   1.52923   1.53678   1.54615   1.56440
 Alpha virt. eigenvalues --    1.56707   1.57249   1.58657   1.59438   1.59907
 Alpha virt. eigenvalues --    1.63292   1.64074   1.65320   1.66292   1.68379
 Alpha virt. eigenvalues --    1.69166   1.71324   1.71425   1.74730   1.75462
 Alpha virt. eigenvalues --    1.76606   1.77219   1.78808   1.79951   1.80124
 Alpha virt. eigenvalues --    1.82556   1.83396   1.84150   1.85072   1.87016
 Alpha virt. eigenvalues --    1.87818   1.87978   1.88960   1.92259   1.93608
 Alpha virt. eigenvalues --    1.95224   1.95945   1.98983   1.99770   2.01796
 Alpha virt. eigenvalues --    2.01881   2.05247   2.09617   2.10538   2.14078
 Alpha virt. eigenvalues --    2.16917   2.17898   2.19702   2.20301   2.22218
 Alpha virt. eigenvalues --    2.24996   2.26301   2.31075   2.31727   2.31809
 Alpha virt. eigenvalues --    2.35798   2.38355   2.39372   2.41302   2.42689
 Alpha virt. eigenvalues --    2.43476   2.45310   2.49229   2.52999   2.54648
 Alpha virt. eigenvalues --    2.56669   2.57885   2.59359   2.59874   2.61402
 Alpha virt. eigenvalues --    2.62392   2.62455   2.62635   2.64386   2.65035
 Alpha virt. eigenvalues --    2.65433   2.66293   2.66895   2.67462   2.69227
 Alpha virt. eigenvalues --    2.70234   2.71793   2.73803   2.73919   2.74998
 Alpha virt. eigenvalues --    2.76360   2.78351   2.78679   2.83442   2.84764
 Alpha virt. eigenvalues --    2.88256   2.89133   2.92141   2.92986   2.97515
 Alpha virt. eigenvalues --    2.98959   3.01506   3.04968   3.05155   3.08343
 Alpha virt. eigenvalues --    3.09506   3.16941   3.21056   3.26927   3.28840
 Alpha virt. eigenvalues --    3.34444   3.36878   3.40221   3.50898   3.50914
 Alpha virt. eigenvalues --    3.56213   3.59401   3.62920   3.71256   3.73283
 Alpha virt. eigenvalues --    3.74780   3.81143   3.83583   3.88402   3.90670
 Alpha virt. eigenvalues --    3.98252   4.02464   4.07132   4.15559   4.26265
 Alpha virt. eigenvalues --    4.36751   4.49655   4.52606  23.41844  23.48526
 Alpha virt. eigenvalues --   23.54882  23.57596  23.58268  23.83212  23.90182
 Alpha virt. eigenvalues --   23.96041  24.19699  24.32684  24.51027  24.54253
 Alpha virt. eigenvalues --   25.09033  25.20524
          Condensed to atoms (all electrons):
               1          2          3          4          5          6
     1  C    7.251213   0.992005  -0.614804   0.771573  -0.064008  -0.054596
     2  C    0.992005   8.263143   0.593136  -0.645711  -0.133799  -0.014063
     3  C   -0.614804   0.593136   6.907952   0.641173  -0.047067   0.015161
     4  C    0.771573  -0.645711   0.641173  12.915669  -0.434629  -0.243783
     5  C   -0.064008  -0.133799  -0.047067  -0.434629   8.545144   1.329396
     6  C   -0.054596  -0.014063   0.015161  -0.243783   1.329396   7.466053
     7  C   -0.086636  -0.029472  -0.006964   0.258466  -1.788775  -1.754425
     8  C    0.342020   0.051380  -0.131050  -0.390618   2.802188   1.433192
     9  C   -0.500620  -1.293568   0.157872   0.985047  -0.676608   0.365787
    10  C   -0.573310  -0.378972   0.228087  -2.768523  -1.160110  -0.908443
    11  C    0.789288  -0.187186   0.053119  -1.161196  -1.168731   0.325022
    12  C   -1.352279  -0.037505  -1.848023  -1.600197   0.199788  -0.841288
    13  C    0.038341  -0.396778  -0.429430  -0.702522  -0.658435   0.713537
    14  C   -1.373320  -0.669976   0.506000  -1.973306  -0.957515  -1.760695
    15  H    0.379079  -0.087931  -0.001088   0.000405   0.005734   0.002194
    16  H   -0.014190   0.382399  -0.037765   0.038978  -0.002724  -0.000571
    17  H   -0.004048  -0.034184   0.396729  -0.067071   0.000606   0.000523
    18  H    0.027863   0.017270  -0.048009   0.559957  -0.000067  -0.005896
    19  H   -0.018044  -0.012197   0.043152  -0.167881  -0.026717   0.055796
    20  H    0.002451   0.001454  -0.005211   0.017265   0.421366  -0.080195
    21  H   -0.001232  -0.000399   0.000307  -0.001679  -0.033550   0.337194
    22  H   -0.000483  -0.000142  -0.000131   0.001194  -0.007622  -0.008492
    23  H    0.012058   0.003147   0.000838  -0.011224   0.030412   0.051814
    24  H    0.042739   0.015126  -0.001394   0.002792  -0.020421  -0.006932
    25  H    0.042739   0.015126  -0.001394   0.002792  -0.020421  -0.006932
               7          8          9         10         11         12
     1  C   -0.086636   0.342020  -0.500620  -0.573310   0.789288  -1.352279
     2  C   -0.029472   0.051380  -1.293568  -0.378972  -0.187186  -0.037505
     3  C   -0.006964  -0.131050   0.157872   0.228087   0.053119  -1.848023
     4  C    0.258466  -0.390618   0.985047  -2.768523  -1.161196  -1.600197
     5  C   -1.788775   2.802188  -0.676608  -1.160110  -1.168731   0.199788
     6  C   -1.754425   1.433192   0.365787  -0.908443   0.325022  -0.841288
     7  C   10.640948  -4.272001  -1.135534   0.829942  -0.962216   0.776954
     8  C   -4.272001  13.728706  -0.739292  -1.162794   0.812601  -1.025614
     9  C   -1.135534  -0.739292  10.023448  -0.104828   0.937314  -2.635749
    10  C    0.829942  -1.162794  -0.104828   8.538118   0.273927   1.751530
    11  C   -0.962216   0.812601   0.937314   0.273927  15.123213  -4.856630
    12  C    0.776954  -1.025614  -2.635749   1.751530  -4.856630  18.934029
    13  C    0.213025  -1.682815   0.218042  -0.659388  -0.969598  -1.752688
    14  C    3.564129  -4.341804  -0.105586   1.735552  -2.494331  -0.014419
    15  H   -0.004212   0.000903   0.041624   0.007828  -0.041241   0.060448
    16  H    0.000612   0.002855  -0.004684  -0.024795   0.029457  -0.020883
    17  H   -0.000244  -0.001947  -0.000289   0.019917  -0.005805   0.032935
    18  H    0.003960   0.003812  -0.005077  -0.025887  -0.014374  -0.065560
    19  H   -0.013595  -0.041417   0.061681   0.423481   0.114259  -0.261508
    20  H   -0.013294   0.076062  -0.024576   0.062467  -0.022354   0.041771
    21  H    0.045447  -0.064645  -0.002717   0.002581  -0.001266  -0.004943
    22  H    0.354308  -0.014514  -0.006415   0.002293  -0.008458   0.005377
    23  H   -0.193245   0.433046   0.129740  -0.018163   0.068002  -0.031141
    24  H    0.013938  -0.023014   0.376690   0.009769   0.036634  -0.033123
    25  H    0.013938  -0.023014   0.376690   0.009769   0.036634  -0.033123
              13         14         15         16         17         18
     1  C    0.038341  -1.373320   0.379079  -0.014190  -0.004048   0.027863
     2  C   -0.396778  -0.669976  -0.087931   0.382399  -0.034184   0.017270
     3  C   -0.429430   0.506000  -0.001088  -0.037765   0.396729  -0.048009
     4  C   -0.702522  -1.973306   0.000405   0.038978  -0.067071   0.559957
     5  C   -0.658435  -0.957515   0.005734  -0.002724   0.000606  -0.000067
     6  C    0.713537  -1.760695   0.002194  -0.000571   0.000523  -0.005896
     7  C    0.213025   3.564129  -0.004212   0.000612  -0.000244   0.003960
     8  C   -1.682815  -4.341804   0.000903   0.002855  -0.001947   0.003812
     9  C    0.218042  -0.105586   0.041624  -0.004684  -0.000289  -0.005077
    10  C   -0.659388   1.735552   0.007828  -0.024795   0.019917  -0.025887
    11  C   -0.969598  -2.494331  -0.041241   0.029457  -0.005805  -0.014374
    12  C   -1.752688  -0.014419   0.060448  -0.020883   0.032935  -0.065560
    13  C   11.362814   0.849177  -0.031846   0.007461  -0.007842  -0.002963
    14  C    0.849177  12.587030   0.009671  -0.023046   0.011940  -0.098406
    15  H   -0.031846   0.009671   0.417603  -0.004253   0.001762  -0.000147
    16  H    0.007461  -0.023046  -0.004253   0.390596  -0.005018   0.002793
    17  H   -0.007842   0.011940   0.001762  -0.005018   0.409617  -0.012096
    18  H   -0.002963  -0.098406  -0.000147   0.002793  -0.012096   0.433444
    19  H    0.057477   0.150082   0.001053  -0.000761   0.003366  -0.006868
    20  H    0.009510  -0.155657  -0.000246   0.000046  -0.000262   0.001557
    21  H    0.007217   0.062794   0.000047  -0.000009   0.000009  -0.000098
    22  H    0.017708   0.007790  -0.000126   0.000007  -0.000003   0.000017
    23  H   -0.096932  -0.087242   0.000566  -0.000154  -0.000009  -0.000169
    24  H   -0.058997  -0.020311  -0.000708   0.000526  -0.000083   0.000101
    25  H   -0.058997  -0.020311  -0.000708   0.000526  -0.000083   0.000101
              19         20         21         22         23         24
     1  C   -0.018044   0.002451  -0.001232  -0.000483   0.012058   0.042739
     2  C   -0.012197   0.001454  -0.000399  -0.000142   0.003147   0.015126
     3  C    0.043152  -0.005211   0.000307  -0.000131   0.000838  -0.001394
     4  C   -0.167881   0.017265  -0.001679   0.001194  -0.011224   0.002792
     5  C   -0.026717   0.421366  -0.033550  -0.007622   0.030412  -0.020421
     6  C    0.055796  -0.080195   0.337194  -0.008492   0.051814  -0.006932
     7  C   -0.013595  -0.013294   0.045447   0.354308  -0.193245   0.013938
     8  C   -0.041417   0.076062  -0.064645  -0.014514   0.433046  -0.023014
     9  C    0.061681  -0.024576  -0.002717  -0.006415   0.129740   0.376690
    10  C    0.423481   0.062467   0.002581   0.002293  -0.018163   0.009769
    11  C    0.114259  -0.022354  -0.001266  -0.008458   0.068002   0.036634
    12  C   -0.261508   0.041771  -0.004943   0.005377  -0.031141  -0.033123
    13  C    0.057477   0.009510   0.007217   0.017708  -0.096932  -0.058997
    14  C    0.150082  -0.155657   0.062794   0.007790  -0.087242  -0.020311
    15  H    0.001053  -0.000246   0.000047  -0.000126   0.000566  -0.000708
    16  H   -0.000761   0.000046  -0.000009   0.000007  -0.000154   0.000526
    17  H    0.003366  -0.000262   0.000009  -0.000003  -0.000009  -0.000083
    18  H   -0.006868   0.001557  -0.000098   0.000017  -0.000169   0.000101
    19  H    0.485298  -0.013038   0.000485  -0.000361   0.000410   0.000443
    20  H   -0.013038   0.473006  -0.004979   0.001531  -0.001351   0.000481
    21  H    0.000485  -0.004979   0.424319  -0.001204   0.000333  -0.000130
    22  H   -0.000361   0.001531  -0.001204   0.427294  -0.006569   0.000692
    23  H    0.000410  -0.001351   0.000333  -0.006569   0.486710  -0.000615
    24  H    0.000443   0.000481  -0.000130   0.000692  -0.000615   0.468428
    25  H    0.000443   0.000481  -0.000130   0.000692  -0.000615  -0.067104
              25
     1  C    0.042739
     2  C    0.015126
     3  C   -0.001394
     4  C    0.002792
     5  C   -0.020421
     6  C   -0.006932
     7  C    0.013938
     8  C   -0.023014
     9  C    0.376690
    10  C    0.009769
    11  C    0.036634
    12  C   -0.033123
    13  C   -0.058997
    14  C   -0.020311
    15  H   -0.000708
    16  H    0.000526
    17  H   -0.000083
    18  H    0.000101
    19  H    0.000443
    20  H    0.000481
    21  H   -0.000130
    22  H    0.000692
    23  H   -0.000615
    24  H   -0.067104
    25  H    0.468428
 Mulliken charges:
               1
     1  C   -0.033796
     2  C   -0.412301
     3  C   -0.371196
     4  C   -0.026972
     5  C   -0.133436
     6  C   -0.409358
     7  C   -0.455052
     8  C    0.227774
     9  C   -0.438392
    10  C   -0.110049
    11  C   -0.706082
    12  C    0.611839
    13  C    0.014921
    14  C    0.611760
    15  H    0.243588
    16  H    0.282598
    17  H    0.261579
    18  H    0.234743
    19  H    0.164959
    20  H    0.211717
    21  H    0.236249
    22  H    0.235615
    23  H    0.230355
    24  H    0.264470
    25  H    0.264470
 Sum of Mulliken charges =   1.00000
 Mulliken charges with hydrogens summed into heavy atoms:
               1
     1  C    0.209791
     2  C   -0.129703
     3  C   -0.109617
     4  C    0.207771
     5  C    0.078280
     6  C   -0.173109
     7  C   -0.219437
     8  C    0.458130
     9  C    0.090547
    10  C    0.054910
    11  C   -0.706082
    12  C    0.611839
    13  C    0.014921
    14  C    0.611760
 Electronic spatial extent (au):  <R**2>=           2863.9169
 Charge=              1.0000 electrons
 Dipole moment (field-independent basis, Debye):
    X=             -3.0156    Y=             -4.6992    Z=              0.0000  Tot=              5.5836
 Quadrupole moment (field-independent basis, Debye-Ang):
   XX=            -52.8293   YY=            -30.7301   ZZ=            -83.4647
   XY=             10.5827   XZ=             -0.0000   YZ=              0.0000
 Traceless Quadrupole moment (field-independent basis, Debye-Ang):
   XX=              2.8454   YY=             24.9446   ZZ=            -27.7900
   XY=             10.5827   XZ=             -0.0000   YZ=              0.0000
 Octapole moment (field-independent basis, Debye-Ang**2):
  XXX=            -19.3906  YYY=            -38.6821  ZZZ=              0.0000  XYY=            -15.3369
  XXY=            -22.5513  XXZ=              0.0000  XZZ=             -6.9154  YZZ=             -7.2525
  YYZ=              0.0000  XYZ=             -0.0000
 Hexadecapole moment (field-independent basis, Debye-Ang**3):
 XXXX=           -878.5678 YYYY=          -1909.3115 ZZZZ=            -98.1581 XXXY=           -300.7387
 XXXZ=             -0.0000 YYYX=           -219.8279 YYYZ=              0.0000 ZZZX=             -0.0000
 ZZZY=              0.0000 XXYY=           -456.7008 XXZZ=           -214.0666 YYZZ=           -517.0722
 XXYZ=              0.0000 YYXZ=             -0.0000 ZZXY=           -159.3909
 N-N= 7.843222820764D+02 E-N=-2.805939900574D+03  KE= 5.391759581429D+02
 Symmetry A'   KE= 5.241461827746D+02
 Symmetry A"   KE= 1.502977536832D+01
 Unable to Open any file for archive entry.
 1\1\GINC-GADI-CPU-CLX-0240\SP\RM062X TD-FC\6-311++G(d,p)\C14H11(1+)\TS
 1578\02-Aug-2022\0\\#n M062X/6-311++G(d,p) TD(NStates=1) EmpiricalDisp
 ersion=GD3 SP\\SP_10\\1,1\C,0,0.,2.332655,1.360431\C,0,0.,3.521508,0.5
 91989\C,0,0.,3.593861,-0.87383\C,0,0.,2.663156,-1.487538\C,0,0.,-2.263
 156,-1.327538\C,0,0.,-3.773861,-0.55383\C,0,0.,-3.881508,0.751989\C,0,
 0.,-2.652655,1.360431\C,0,0.,-0.08,1.453369\C,0,0.,0.29,-1.429189\C,0,
 0.,1.352055,0.787065\C,0,0.,1.327471,-0.740804\C,0,0.,-1.172055,0.5670
 65\C,0,0.,-1.147471,-0.720804\H,0,0.,2.438071,2.443647\H,0,0.,4.456753
 ,1.141689\H,0,0.,4.599262,-1.292349\H,0,0.,2.55755,-2.570059\H,0,0.,0.
 25,-2.510266\H,0,0.,-2.37755,-2.410059\H,0,0.,-4.619262,-1.252349\H,0,
 0.,-4.816753,1.281689\H,0,0.,-2.538071,2.443647\H,0,-0.859585,-0.44,2.
 145787\H,0,0.859585,-0.44,2.145787\\Version=ES64L-G16RevC.01\State=1-A
 '\HF=-539.3615485\RMSD=9.952e-09\PG=CS [SG(C14H9),X(H2)]\\@
 The archive entry for this job was punched.


 A MAN SHOULD NEVER BE ASHAMED TO OWN HE HAS BEEN IN THE WRONG
 WHICH IS BUT SAYING IN OTHER WORDS,
 THAT HE IS WISER TODAY THAN HE WAS YESTERDAY.

                          -- JONATHAN SWIFT
 Job cpu time:       0 days  0 hours 54 minutes 12.8 seconds.
 Elapsed time:       0 days  0 hours  1 minutes  8.0 seconds.
 File lengths (MBytes):  RWF=    460 Int=      0 D2E=      0 Chk=     15 Scr=      1
 Normal termination of Gaussian 16 at Tue Aug  2 13:18:46 2022.
