 Entering Gaussian System, Link 0=g16
 Initial command:
 /apps/gaussian/g16c01/g16/l1.exe "/jobfs/53803565.gadi-pbs/Gau-1068898.inp" -scrdir="/jobfs/53803565.gadi-pbs/"
 Entering Link 1 = /apps/gaussian/g16c01/g16/l1.exe PID=   1068899.
  
 Copyright (c) 1988-2019, Gaussian, Inc.  All Rights Reserved.
  
 This is part of the Gaussian(R) 16 program.  It is based on
 the Gaussian(R) 09 system (copyright 2009, Gaussian, Inc.),
 the Gaussian(R) 03 system (copyright 2003, Gaussian, Inc.),
 the Gaussian(R) 98 system (copyright 1998, Gaussian, Inc.),
 the Gaussian(R) 94 system (copyright 1995, Gaussian, Inc.),
 the Gaussian 92(TM) system (copyright 1992, Gaussian, Inc.),
 the Gaussian 90(TM) system (copyright 1990, Gaussian, Inc.),
 the Gaussian 88(TM) system (copyright 1988, Gaussian, Inc.),
 the Gaussian 86(TM) system (copyright 1986, Carnegie Mellon
 University), and the Gaussian 82(TM) system (copyright 1983,
 Carnegie Mellon University). Gaussian is a federally registered
 trademark of Gaussian, Inc.
  
 This software contains proprietary and confidential information,
 including trade secrets, belonging to Gaussian, Inc.
  
 This software is provided under written license and may be
 used, copied, transmitted, or stored only in accord with that
 written license.
  
 The following legend is applicable only to US Government
 contracts under FAR:
  
                    RESTRICTED RIGHTS LEGEND
  
 Use, reproduction and disclosure by the US Government is
 subject to restrictions as set forth in subparagraphs (a)
 and (c) of the Commercial Computer Software - Restricted
 Rights clause in FAR 52.227-19.
  
 Gaussian, Inc.
 340 Quinnipiac St., Bldg. 40, Wallingford CT 06492
  
  
 ---------------------------------------------------------------
 Warning -- This program may not be used in any manner that
 competes with the business of Gaussian, Inc. or will provide
 assistance to any competitor of Gaussian, Inc.  The licensee
 of this program is prohibited from giving any competitor of
 Gaussian, Inc. access to this program.  By using this program,
 the user acknowledges that Gaussian, Inc. is engaged in the
 business of creating and licensing software in the field of
 computational chemistry and represents and warrants to the
 licensee that it is not a competitor of Gaussian, Inc. and that
 it will not use this program in any manner prohibited above.
 ---------------------------------------------------------------
  

 Cite this work as:
 Gaussian 16, Revision C.01,
 M. J. Frisch, G. W. Trucks, H. B. Schlegel, G. E. Scuseria, 
 M. A. Robb, J. R. Cheeseman, G. Scalmani, V. Barone, 
 G. A. Petersson, H. Nakatsuji, X. Li, M. Caricato, A. V. Marenich, 
 J. Bloino, B. G. Janesko, R. Gomperts, B. Mennucci, H. P. Hratchian, 
 J. V. Ortiz, A. F. Izmaylov, J. L. Sonnenberg, D. Williams-Young, 
 F. Ding, F. Lipparini, F. Egidi, J. Goings, B. Peng, A. Petrone, 
 T. Henderson, D. Ranasinghe, V. G. Zakrzewski, J. Gao, N. Rega, 
 G. Zheng, W. Liang, M. Hada, M. Ehara, K. Toyota, R. Fukuda, 
 J. Hasegawa, M. Ishida, T. Nakajima, Y. Honda, O. Kitao, H. Nakai, 
 T. Vreven, K. Throssell, J. A. Montgomery, Jr., J. E. Peralta, 
 F. Ogliaro, M. J. Bearpark, J. J. Heyd, E. N. Brothers, K. N. Kudin, 
 V. N. Staroverov, T. A. Keith, R. Kobayashi, J. Normand, 
 K. Raghavachari, A. P. Rendell, J. C. Burant, S. S. Iyengar, 
 J. Tomasi, M. Cossi, J. M. Millam, M. Klene, C. Adamo, R. Cammi, 
 J. W. Ochterski, R. L. Martin, K. Morokuma, O. Farkas, 
 J. B. Foresman, and D. J. Fox, Gaussian, Inc., Wallingford CT, 2019.
 
 ******************************************
 Gaussian 16:  ES64L-G16RevC.01  3-Jul-2019
                 2-Aug-2022 
 ******************************************
 %NProcShared=48
 Will use up to   48 processors via shared memory.
 %mem = 190GB
 ---------------------------------------------------------------
 #n M062X/6-311++G(d,p) TD(NStates=1) EmpiricalDispersion=GD3 SP
 ---------------------------------------------------------------
 1/38=1,172=1/1;
 2/12=2,17=6,18=5,40=1/2;
 3/5=4,6=6,7=1111,11=9,25=1,30=1,74=-55,124=31/1,2,3,8;
 4//1;
 5/5=2,38=5/2;
 8/6=1,10=2,108=1/1;
 9/41=1,42=1,70=2/14;
 6/7=2,8=2,9=2,10=2/1;
 99/5=1,9=1/99;
 -----
 SP_12
 -----
 Symbolic Z-matrix:
 Charge =  1 Multiplicity = 1
 C                     0.        2.22266   1.29443 
 C                     0.        3.45551   0.60599 
 C                     0.        3.62386  -0.86983 
 C                     0.        2.77516  -1.55754 
 C                     0.       -2.15116  -1.25754 
 C                     0.       -3.74386  -0.55783 
 C                     0.       -3.94751   0.73799 
 C                     0.       -2.76266   1.42643 
 C                     0.       -0.072     1.45337 
 C                     0.        0.312    -1.42919 
 C                     0.        1.33406   0.68307 
 C                     0.        1.36947  -0.8568 
 C                     0.       -1.19006   0.67107 
 C                     0.       -1.10547  -0.6048 
 H                     0.        2.26607   2.37765 
 H                     0.        4.34875   1.22969 
 H                     0.        4.68126  -1.20635 
 H                     0.        2.73155  -2.64006 
 H                     0.        0.114    -2.51027 
 H                     0.       -2.20355  -2.34006 
 H                     0.       -4.53726  -1.33835 
 H                     0.       -4.92475   1.19369 
 H                     0.       -2.71007   2.50965 
 H                    -0.85959  -0.384     2.14579 
 H                     0.85959  -0.384     2.14579 
 
                          Input orientation:                          
 ---------------------------------------------------------------------
 Center     Atomic      Atomic             Coordinates (Angstroms)
 Number     Number       Type             X           Y           Z
 ---------------------------------------------------------------------
      1          6           0        0.000000    2.222655    1.294431
      2          6           0        0.000000    3.455508    0.605989
      3          6           0        0.000000    3.623861   -0.869830
      4          6           0        0.000000    2.775156   -1.557538
      5          6           0        0.000000   -2.151156   -1.257538
      6          6           0        0.000000   -3.743861   -0.557830
      7          6           0        0.000000   -3.947508    0.737989
      8          6           0        0.000000   -2.762655    1.426431
      9          6           0        0.000000   -0.072000    1.453369
     10          6           0        0.000000    0.312000   -1.429189
     11          6           0        0.000000    1.334055    0.683065
     12          6           0        0.000000    1.369471   -0.856804
     13          6           0        0.000000   -1.190055    0.671065
     14          6           0        0.000000   -1.105471   -0.604804
     15          1           0        0.000000    2.266071    2.377647
     16          1           0        0.000000    4.348753    1.229689
     17          1           0        0.000000    4.681262   -1.206349
     18          1           0        0.000000    2.731550   -2.640059
     19          1           0        0.000000    0.114000   -2.510266
     20          1           0        0.000000   -2.203550   -2.340059
     21          1           0        0.000000   -4.537262   -1.338349
     22          1           0        0.000000   -4.924753    1.193689
     23          1           0        0.000000   -2.710071    2.509647
     24          1           0       -0.859585   -0.384000    2.145787
     25          1           0        0.859585   -0.384000    2.145787
 ---------------------------------------------------------------------
                    Distance matrix (angstroms):
                    1          2          3          4          5
     1  C    0.000000
     2  C    1.412048   0.000000
     3  C    2.578256   1.485390   0.000000
     4  C    2.904993   2.267979   1.092356   0.000000
     5  C    5.063869   5.908250   5.788017   4.935438   0.000000
     6  C    6.247414   7.292831   7.374325   6.595225   1.739627
     7  C    6.195203   7.404193   7.740201   7.103778   2.684960
     8  C    4.987057   6.272055   6.786781   6.290582   2.752748
     9  C    2.300153   3.627860   4.365391   4.143894   3.416417
    10  C    3.326967   3.744809   3.358766   2.466498   2.469130
    11  C    1.078600   2.122853   2.766712   2.664033   3.989065
    12  C    2.314246   2.547806   2.254428   1.570662   3.543360
    13  C    3.469175   4.646019   5.054517   4.548579   2.154814
    14  C    3.831908   4.718956   4.736752   3.995869   1.232688
    15  H    1.084086   2.133901   3.519901   3.967978   5.720705
    16  H    2.127084   1.089444   2.221137   3.200756   6.959534
    17  H    3.506943   2.187931   1.109658   1.938188   6.832610
    18  H    3.967264   3.325800   1.982405   1.083399   5.074661
    19  H    4.349959   4.569105   3.874294   2.826560   2.588486
    20  H    5.727199   6.379979   6.010016   5.039827   1.083788
    21  H    7.254516   8.225863   8.174560   7.315702   2.387474
    22  H    7.148118   8.400843   8.794141   8.176665   3.701534
    23  H    5.080210   6.452773   7.179106   6.828595   3.808421
    24  H    2.873733   4.225126   5.088790   4.943053   3.929930
    25  H    2.873733   4.225126   5.088790   4.943053   3.929930
                    6          7          8          9         10
     6  C    0.000000
     7  C    1.311724   0.000000
     8  C    2.213607   1.370339   0.000000
     9  C    4.186584   3.940981   2.690790   0.000000
    10  C    4.148406   4.779128   4.196197   2.908023   0.000000
    11  C    5.227337   5.281849   4.163607   1.603234   2.346532
    12  C    5.122065   5.551003   4.720977   2.723002   1.202443
    13  C    2.834097   2.758265   1.744606   1.364568   2.582099
    14  C    2.638808   3.143289   2.621483   2.303072   1.639767
    15  H    6.688521   6.426277   5.117900   2.514133   4.279065
    16  H    8.287679   8.310819   7.114129   4.426408   4.833736
    17  H    8.450046   8.845119   7.895786   5.446797   4.374941
    18  H    6.801957   7.484719   6.835395   4.961456   2.705629
    19  H    4.323783   5.200674   4.875728   3.967997   1.099059
    20  H    2.355610   3.537763   3.807761   4.351276   2.675383
    21  H    1.112967   2.158469   3.285306   5.266142   4.850113
    22  H    2.112422   1.078272   2.174589   4.859696   5.856882
    23  H    3.236995   2.161023   1.084492   2.841679   4.964609
    24  H    4.397397   3.926751   2.629517   1.147028   3.742159
    25  H    4.397397   3.926751   2.629517   1.147028   3.742159
                   11         12         13         14         15
    11  C    0.000000
    12  C    1.540276   0.000000
    13  C    2.524139   2.980865   0.000000
    14  C    2.758604   2.487738   1.278670   0.000000
    15  H    1.933976   3.356421   3.854508   4.501368   0.000000
    16  H    3.063854   3.637248   5.566907   5.754470   2.378103
    17  H    3.843655   3.330186   6.164174   5.817915   4.321825
    18  H    3.605017   2.243938   5.132497   4.343385   5.039250
    19  H    3.418464   2.076089   3.438230   2.262276   5.340702
    20  H    4.653378   3.868659   3.177112   2.053506   6.498789
    21  H    6.209547   5.926329   3.904041   3.509313   7.752030
    22  H    6.279603   6.619802   3.771088   4.221551   7.287641
    23  H    4.437494   5.289202   2.385547   3.503505   4.977892
    24  H    2.414571   3.581773   1.887701   2.970717   2.795625
    25  H    2.414571   3.581773   1.887701   2.970717   2.795625
                   16         17         18         19         20
    16  H    0.000000
    17  H    2.458626   0.000000
    18  H    4.194079   2.420104   0.000000
    19  H    5.649814   4.749745   2.620766   0.000000
    20  H    7.461620   6.977531   4.944210   2.323792   0.000000
    21  H    9.249653   9.219469   7.384448   4.796627   2.539613
    22  H    9.273576   9.901298   8.562511   6.253664   4.460081
    23  H    7.173931   8.272873   7.492043   5.759766   4.876086
    24  H    4.896639   6.134540   5.774934   4.760853   4.916550
    25  H    4.896639   6.134540   5.774934   4.760853   4.916550
                   21         22         23         24         25
    21  H    0.000000
    22  H    2.561516   0.000000
    23  H    4.259777   2.576153   0.000000
    24  H    5.488868   4.718455   2.506369   0.000000
    25  H    5.488868   4.718455   2.506369   1.719170   0.000000
 Stoichiometry    C14H11(1+)
 Framework group  CS[SG(C14H9),X(H2)]
 Deg. of freedom    46
 Full point group                 CS      NOp   2
 Largest Abelian subgroup         CS      NOp   2
 Largest concise Abelian subgroup CS      NOp   2
                         Standard orientation:                         
 ---------------------------------------------------------------------
 Center     Atomic      Atomic             Coordinates (Angstroms)
 Number     Number       Type             X           Y           Z
 ---------------------------------------------------------------------
      1          6           0       -0.064451   -2.573868    0.000000
      2          6           0        1.132087   -3.323652    0.000000
      3          6           0        2.506972   -2.761447    0.000000
      4          6           0        2.701724   -1.686591    0.000000
      5          6           0        0.069349    2.488233    0.000000
      6          6           0       -1.310140    3.548096    0.000000
      7          6           0       -2.544187    3.103407    0.000000
      8          6           0       -2.577908    1.733483    0.000000
      9          6           0       -1.307433   -0.638487    0.000000
     10          6           0        1.404519    0.411234    0.000000
     11          6           0        0.044180   -1.500752    0.000000
     12          6           0        1.411284   -0.791190    0.000000
     13          6           0       -1.159291    0.718016    0.000000
     14          6           0        0.000000    1.257497    0.000000
     15          1           0       -0.993273   -3.132915    0.000000
     16          1           0        1.014875   -4.406772    0.000000
     17          1           0        3.310579   -3.526664    0.000000
     18          1           0        3.629844   -1.127712    0.000000
     19          1           0        2.257116    1.104782    0.000000
     20          1           0        0.993243    3.054816    0.000000
     21          1           0       -1.007418    4.619102    0.000000
     22          1           0       -3.413733    3.741027    0.000000
     23          1           0       -3.502320    1.166398    0.000000
     24          1           0       -2.064565   -0.697967    0.859585
     25          1           0       -2.064565   -0.697967   -0.859585
 ---------------------------------------------------------------------
 Rotational constants (GHZ):           2.1715341           0.4393126           0.3661805
 Standard basis: 6-311++G(d,p) (5D, 7F)
 There are   299 symmetry adapted cartesian basis functions of A'  symmetry.
 There are   100 symmetry adapted cartesian basis functions of A"  symmetry.
 There are   285 symmetry adapted basis functions of A'  symmetry.
 There are   100 symmetry adapted basis functions of A"  symmetry.
   385 basis functions,   603 primitive gaussians,   399 cartesian basis functions
    47 alpha electrons       47 beta electrons
       nuclear repulsion energy       785.6587776292 Hartrees.
 NAtoms=   25 NActive=   25 NUniq=   24 SFac= 1.09D+00 NAtFMM=   60 NAOKFM=F Big=F
 Integral buffers will be    131072 words long.
 Regular integral format.
 Two-electron integral symmetry is turned on.
 Nuclear repulsion after empirical dispersion term =      785.6578207430 Hartrees.
 One-electron integrals computed using PRISM.
 NBasis=   385 RedAO= T EigKep=  1.41D-06  NBF=   285   100
 NBsUse=   379 1.00D-06 EigRej=  7.22D-07 NBFU=   279   100
 ExpMin= 3.60D-02 ExpMax= 4.56D+03 ExpMxC= 6.82D+02 IAcc=3 IRadAn=         5 AccDes= 0.00D+00
 Harris functional with IExCor= 1009 and IRadAn=       5 diagonalized for initial guess.
 HarFok:  IExCor= 1009 AccDes= 0.00D+00 IRadAn=         5 IDoV= 1 UseB2=F ITyADJ=14
 ICtDFT=  3500011 ScaDFX=  1.000000  1.000000  1.000000  1.000000
 FoFCou: FMM=F IPFlag=           0 FMFlag=      100000 FMFlg1=           0
         NFxFlg=           0 DoJE=T BraDBF=F KetDBF=T FulRan=T
         wScrn=  0.000000 ICntrl=       500 IOpCl=  0 I1Cent=   200000004 NGrid=           0
         NMat0=    1 NMatS0=      1 NMatT0=    0 NMatD0=    1 NMtDS0=    0 NMtDT0=    0
 Petite list used in FoFCou.
 Initial guess orbital symmetries:
       Occupied  (A') (A') (A') (A') (A') (A') (A') (A') (A') (A')
                 (A') (A') (A') (A') (A') (A') (A') (A') (A') (A')
                 (A') (A') (A') (A') (A') (A') (A') (A') (A') (A')
                 (A') (A') (A") (A') (A") (A') (A') (A") (A') (A')
                 (A") (A') (A') (A") (A") (A') (A")
       Virtual   (A") (A") (A") (A") (A') (A") (A') (A') (A') (A')
                 (A') (A') (A") (A') (A") (A') (A') (A") (A') (A')
                 (A') (A') (A") (A') (A') (A") (A') (A") (A') (A")
                 (A') (A') (A') (A') (A") (A') (A') (A') (A") (A')
                 (A") (A') (A') (A") (A') (A') (A') (A') (A') (A")
                 (A') (A") (A') (A") (A') (A') (A") (A') (A") (A')
                 (A') (A') (A') (A') (A') (A") (A') (A') (A") (A')
                 (A') (A') (A') (A') (A') (A') (A') (A') (A') (A')
                 (A') (A') (A') (A') (A') (A') (A') (A') (A') (A')
                 (A') (A') (A') (A") (A') (A") (A') (A') (A") (A')
                 (A') (A') (A") (A') (A') (A") (A") (A") (A') (A")
                 (A') (A') (A") (A") (A') (A") (A') (A') (A") (A')
                 (A") (A') (A') (A") (A') (A') (A") (A') (A') (A')
                 (A') (A') (A') (A') (A') (A') (A') (A') (A') (A")
                 (A') (A') (A') (A') (A') (A") (A') (A') (A') (A')
                 (A') (A") (A") (A') (A') (A") (A') (A') (A") (A")
                 (A") (A') (A') (A") (A") (A') (A") (A') (A') (A')
                 (A") (A') (A') (A') (A') (A') (A') (A") (A") (A')
                 (A') (A") (A') (A") (A') (A") (A') (A") (A') (A')
                 (A") (A') (A') (A") (A') (A") (A') (A') (A') (A")
                 (A") (A') (A") (A') (A") (A") (A') (A') (A') (A")
                 (A') (A') (A') (A') (A") (A') (A') (A") (A') (A")
                 (A') (A') (A") (A') (A") (A') (A') (A") (A') (A')
                 (A") (A') (A") (A') (A') (A") (A') (A') (A") (A')
                 (A") (A') (A') (A') (A') (A") (A') (A') (A") (A')
                 (A') (A') (A') (A") (A') (A") (A') (A") (A') (A")
                 (A') (A") (A') (A') (A') (A') (A') (A") (A') (A")
                 (A') (A') (A") (A') (A") (A') (A') (A') (A") (A')
                 (A') (A") (A') (A") (A') (A") (A") (A') (A') (A')
                 (A') (A') (A') (A') (A') (A') (A') (A') (A') (A')
                 (A") (A') (A') (A') (A') (A') (A') (A') (A') (A')
                 (A') (A') (A') (A') (A') (A') (A') (A') (A') (A')
                 (A') (A') (A') (A') (A') (A') (A') (A') (A') (A')
                 (A') (A')
 The electronic state of the initial guess is 1-A'.
 Requested convergence on RMS density matrix=1.00D-08 within 128 cycles.
 Requested convergence on MAX density matrix=1.00D-06.
 Requested convergence on             energy=1.00D-06.
 No special actions if energy rises.
 SCF Done:  E(RM062X) =  -539.195731873     A.U. after   17 cycles
            NFock= 17  Conv=0.71D-08     -V/T= 1.9987
 DoSCS=F DFT=T ScalE2(SS,OS)=  1.000000  1.000000
 ExpMin= 3.60D-02 ExpMax= 4.56D+03 ExpMxC= 6.82D+02 IAcc=3 IRadAn=         5 AccDes= 0.00D+00
 HarFok:  IExCor=  205 AccDes= 0.00D+00 IRadAn=         5 IDoV=-2 UseB2=F ITyADJ=14
 ICtDFT= 12500011 ScaDFX=  1.000000  1.000000  1.000000  1.000000
 Range of M.O.s used for correlation:    15   379
 NBasis=   385 NAE=    47 NBE=    47 NFC=    14 NFV=     0
 NROrb=    365 NOA=    33 NOB=    33 NVA=   332 NVB=   332

 **** Warning!!: The largest alpha MO coefficient is  0.16691472D+03


 **** Warning!!: The smallest alpha delta epsilon is  0.85522704D-01

 Orbital symmetries:
       Occupied  (A') (A') (A') (A') (A') (A') (A') (A') (A') (A')
                 (A') (A') (A') (A') (A') (A') (A') (A') (A') (A')
                 (A') (A') (A') (A') (A') (A') (A') (A') (A') (A')
                 (A") (A') (A') (A') (A") (A') (A') (A') (A") (A')
                 (A") (A') (A") (A') (A") (A') (A")
       Virtual   (A") (A") (A') (A") (A') (A') (A") (A') (A') (A")
                 (A') (A') (A") (A") (A') (A') (A") (A') (A') (A')
                 (A") (A') (A') (A") (A') (A') (A') (A') (A") (A')
                 (A") (A') (A') (A") (A') (A') (A') (A") (A') (A")
                 (A") (A') (A') (A') (A') (A') (A") (A") (A') (A")
                 (A') (A') (A') (A') (A') (A") (A') (A") (A') (A')
                 (A') (A') (A") (A') (A') (A') (A') (A") (A') (A')
                 (A') (A') (A') (A') (A') (A') (A') (A') (A') (A')
                 (A') (A') (A') (A') (A') (A') (A') (A') (A') (A')
                 (A") (A') (A") (A') (A') (A') (A') (A') (A") (A")
                 (A') (A') (A') (A") (A') (A") (A') (A") (A') (A')
                 (A") (A') (A") (A') (A") (A") (A') (A') (A") (A")
                 (A') (A') (A") (A') (A") (A') (A') (A') (A') (A')
                 (A') (A') (A') (A') (A') (A') (A') (A') (A') (A')
                 (A') (A') (A') (A') (A") (A') (A') (A') (A") (A')
                 (A') (A') (A') (A") (A') (A") (A") (A') (A") (A')
                 (A") (A') (A') (A") (A') (A") (A") (A') (A") (A')
                 (A") (A') (A') (A') (A') (A') (A') (A") (A") (A')
                 (A') (A') (A") (A") (A') (A") (A') (A") (A') (A')
                 (A") (A") (A') (A') (A') (A") (A') (A') (A") (A')
                 (A") (A') (A") (A') (A") (A') (A') (A") (A') (A")
                 (A') (A') (A') (A') (A") (A') (A') (A") (A') (A")
                 (A') (A') (A") (A') (A') (A") (A') (A") (A') (A')
                 (A") (A') (A') (A") (A') (A") (A') (A') (A") (A")
                 (A') (A') (A') (A') (A") (A') (A') (A') (A') (A")
                 (A') (A') (A') (A') (A') (A") (A') (A') (A") (A')
                 (A') (A") (A') (A') (A') (A') (A") (A') (A') (A")
                 (A') (A') (A") (A") (A") (A') (A") (A') (A') (A")
                 (A') (A") (A') (A") (A') (A") (A') (A") (A') (A')
                 (A') (A') (A') (A') (A') (A') (A') (A') (A') (A')
                 (A") (A') (A') (A') (A') (A') (A') (A') (A') (A')
                 (A') (A') (A') (A') (A') (A') (A') (A') (A') (A')
                 (A') (A') (A') (A') (A') (A') (A') (A') (A') (A')
                 (A') (A')
     4 initial guesses have been made.
 Convergence on wavefunction:    0.001000000000000
 Iteration     1 Dimension     4 NMult     0 NNew      4
 CISAX will form     4 AO SS matrices at one time.
 Iteration     2 Dimension     6 NMult     4 NNew      2
 Iteration     3 Dimension     8 NMult     6 NNew      2
 Iteration     4 Dimension    10 NMult     8 NNew      2
 Iteration     5 Dimension    12 NMult    10 NNew      2
 Iteration     6 Dimension    14 NMult    12 NNew      2
 ***********************************************************************
 Excited states from <AA,BB:AA,BB> singles matrix:
 ***********************************************************************
 
 Ground to excited state transition densities written to RWF  633
 Ground to excited state transition electric dipole moments (Au):
       state          X           Y           Z        Dip. S.      Osc.
         1        -0.9352      1.2697      0.0000      2.4867      0.0558
 Ground to excited state transition velocity dipole moments (Au):
       state          X           Y           Z        Dip. S.      Osc.
         1         0.0324     -0.0369     -0.0000      0.0024      0.0477
 Ground to excited state transition magnetic dipole moments (Au):
       state          X           Y           Z
         1        -0.0000     -0.0000      0.3747
 Ground to excited state transition velocity quadrupole moments (Au):
       state          XX          YY          ZZ          XY          XZ          YZ
         1        -0.0236      0.0547     -0.0032     -0.0160      0.0000      0.0000
 <0|del|b> * <b|rxdel|0> + <0|del|b> * <b|delr+rdel|0>
 Rotatory Strengths (R) in cgs (10**-40 erg-esu-cm/Gauss)
       state          XX          YY          ZZ    R(velocity)    E-M Angle
         1        -0.0000     -0.0000     -0.0000     -0.0000       90.00
 1/2[<0|r|b>*<b|rxdel|0> + (<0|rxdel|b>*<b|r|0>)*]
 Rotatory Strengths (R) in cgs (10**-40 erg-esu-cm/Gauss)
       state          XX          YY          ZZ     R(length)
         1        -0.0000      0.0000     -0.0000     -0.0000
  1/2[<0|del|b>*<b|r|0> + (<0|r|b>*<b|del|0>)*] (Au)
       state          X           Y           Z        Dip. S.   Osc.(frdel)
         1        -0.0303     -0.0469     -0.0000      0.0772      0.0514

 Excitation energies and oscillator strengths:
 
 Excited State   1:      Singlet-A'     0.9165 eV 1352.86 nm  f=0.0558  <S**2>=0.000
      47 -> 48         0.71276
      47 <- 48        -0.12262
 This state for optimization and/or second-order correction.
 Total Energy, E(TD-HF/TD-DFT) =  -539.162052699    
 Copying the excited state density for this state as the 1-particle RhoCI density.
 SavETr:  write IOETrn=   770 NScale= 10 NData=  16 NLR=1 NState=    1 LETran=      28.

 **********************************************************************

            Population analysis using the SCF Density.

 **********************************************************************

 Orbital symmetries:
       Occupied  (A') (A') (A') (A') (A') (A') (A') (A') (A') (A')
                 (A') (A') (A') (A') (A') (A') (A') (A') (A') (A')
                 (A') (A') (A') (A') (A') (A') (A') (A') (A') (A')
                 (A") (A') (A') (A') (A") (A') (A') (A') (A") (A')
                 (A") (A') (A") (A') (A") (A') (A")
       Virtual   (A") (A") (A') (A") (A') (A') (A") (A') (A') (A")
                 (A') (A') (A") (A") (A') (A') (A") (A') (A') (A')
                 (A") (A') (A') (A") (A') (A') (A') (A') (A") (A')
                 (A") (A') (A') (A") (A') (A') (A') (A") (A') (A")
                 (A") (A') (A') (A') (A') (A') (A") (A") (A') (A")
                 (A') (A') (A') (A') (A') (A") (A') (A") (A') (A')
                 (A') (A') (A") (A') (A') (A') (A') (A") (A') (A')
                 (A') (A') (A') (A') (A') (A') (A') (A') (A') (A')
                 (A') (A') (A') (A') (A') (A') (A') (A') (A') (A')
                 (A") (A') (A") (A') (A') (A') (A') (A') (A") (A")
                 (A') (A') (A') (A") (A') (A") (A') (A") (A') (A')
                 (A") (A') (A") (A') (A") (A") (A') (A') (A") (A")
                 (A') (A') (A") (A') (A") (A') (A') (A') (A') (A')
                 (A') (A') (A') (A') (A') (A') (A') (A') (A') (A')
                 (A') (A') (A') (A') (A") (A') (A') (A') (A") (A')
                 (A') (A') (A') (A") (A') (A") (A") (A') (A") (A')
                 (A") (A') (A') (A") (A') (A") (A") (A') (A") (A')
                 (A") (A') (A') (A') (A') (A') (A') (A") (A") (A')
                 (A') (A') (A") (A") (A') (A") (A') (A") (A') (A')
                 (A") (A") (A') (A') (A') (A") (A') (A') (A") (A')
                 (A") (A') (A") (A') (A") (A') (A') (A") (A') (A")
                 (A') (A') (A') (A') (A") (A') (A') (A") (A') (A")
                 (A') (A') (A") (A') (A') (A") (A') (A") (A') (A')
                 (A") (A') (A') (A") (A') (A") (A') (A') (A") (A")
                 (A') (A') (A') (A') (A") (A') (A') (A') (A') (A")
                 (A') (A') (A') (A') (A') (A") (A') (A') (A") (A')
                 (A') (A") (A') (A') (A') (A') (A") (A') (A') (A")
                 (A') (A') (A") (A") (A") (A') (A") (A') (A') (A")
                 (A') (A") (A') (A") (A') (A") (A') (A") (A') (A')
                 (A') (A') (A') (A') (A') (A') (A') (A') (A') (A')
                 (A") (A') (A') (A') (A') (A') (A') (A') (A') (A')
                 (A') (A') (A') (A') (A') (A') (A') (A') (A') (A')
                 (A') (A') (A') (A') (A') (A') (A') (A') (A') (A')
                 (A') (A')
 The electronic state is 1-A'.
 Alpha  occ. eigenvalues --  -10.79101 -10.73989 -10.72499 -10.72159 -10.71728
 Alpha  occ. eigenvalues --  -10.71133 -10.70271 -10.70252 -10.69815 -10.69779
 Alpha  occ. eigenvalues --  -10.68500 -10.67512 -10.67293 -10.66474  -1.20996
 Alpha  occ. eigenvalues --   -1.13598  -1.12386  -1.06993  -1.03428  -1.01543
 Alpha  occ. eigenvalues --   -0.96317  -0.87959  -0.86094  -0.84116  -0.83450
 Alpha  occ. eigenvalues --   -0.77678  -0.76305  -0.74685  -0.73696  -0.70130
 Alpha  occ. eigenvalues --   -0.69119  -0.68656  -0.66550  -0.64483  -0.64075
 Alpha  occ. eigenvalues --   -0.63430  -0.62304  -0.59133  -0.58541  -0.56462
 Alpha  occ. eigenvalues --   -0.55766  -0.55335  -0.52508  -0.52113  -0.47831
 Alpha  occ. eigenvalues --   -0.47817  -0.36034
 Alpha virt. eigenvalues --   -0.27481  -0.15541  -0.11699  -0.11334  -0.10391
 Alpha virt. eigenvalues --   -0.09862  -0.09734  -0.07846  -0.07769  -0.07536
 Alpha virt. eigenvalues --   -0.07356  -0.06045  -0.06040  -0.05563  -0.05466
 Alpha virt. eigenvalues --   -0.04675  -0.04007  -0.03657  -0.03336  -0.02458
 Alpha virt. eigenvalues --   -0.01907  -0.01537  -0.00786  -0.00784   0.00074
 Alpha virt. eigenvalues --    0.00595   0.01091   0.01128   0.01604   0.01675
 Alpha virt. eigenvalues --    0.02176   0.02514   0.02763   0.02886   0.03453
 Alpha virt. eigenvalues --    0.03769   0.03911   0.04256   0.05244   0.05528
 Alpha virt. eigenvalues --    0.05770   0.05836   0.06063   0.06228   0.06999
 Alpha virt. eigenvalues --    0.07356   0.07448   0.07716   0.07914   0.07986
 Alpha virt. eigenvalues --    0.08444   0.08759   0.09274   0.09966   0.10260
 Alpha virt. eigenvalues --    0.10416   0.11168   0.11431   0.11607   0.12113
 Alpha virt. eigenvalues --    0.12765   0.13217   0.13229   0.13434   0.13984
 Alpha virt. eigenvalues --    0.14583   0.16187   0.16288   0.17116   0.17571
 Alpha virt. eigenvalues --    0.18270   0.18479   0.19733   0.20180   0.20434
 Alpha virt. eigenvalues --    0.21091   0.22275   0.22667   0.23445   0.24269
 Alpha virt. eigenvalues --    0.25632   0.25914   0.26484   0.27033   0.28176
 Alpha virt. eigenvalues --    0.29751   0.30200   0.31720   0.33092   0.35279
 Alpha virt. eigenvalues --    0.36882   0.37954   0.38727   0.38918   0.39123
 Alpha virt. eigenvalues --    0.41418   0.42223   0.42463   0.43288   0.43851
 Alpha virt. eigenvalues --    0.44302   0.44786   0.45890   0.46531   0.47546
 Alpha virt. eigenvalues --    0.48366   0.48511   0.48976   0.51025   0.51248
 Alpha virt. eigenvalues --    0.51599   0.52148   0.52529   0.53763   0.54269
 Alpha virt. eigenvalues --    0.55006   0.57209   0.58641   0.58680   0.59037
 Alpha virt. eigenvalues --    0.60632   0.61048   0.61921   0.62310   0.63381
 Alpha virt. eigenvalues --    0.65250   0.65474   0.66486   0.67669   0.67816
 Alpha virt. eigenvalues --    0.70562   0.71424   0.72917   0.73439   0.74257
 Alpha virt. eigenvalues --    0.75159   0.75650   0.76650   0.77556   0.78210
 Alpha virt. eigenvalues --    0.78831   0.80428   0.80712   0.81816   0.82300
 Alpha virt. eigenvalues --    0.82665   0.83893   0.84074   0.84602   0.84616
 Alpha virt. eigenvalues --    0.88592   0.90270   0.90940   0.91158   0.93542
 Alpha virt. eigenvalues --    0.94583   0.96335   0.96794   0.98984   0.99050
 Alpha virt. eigenvalues --    1.01755   1.02717   1.03594   1.04547   1.05318
 Alpha virt. eigenvalues --    1.07105   1.07839   1.07988   1.08157   1.13992
 Alpha virt. eigenvalues --    1.15667   1.16187   1.18218   1.19598   1.25083
 Alpha virt. eigenvalues --    1.28500   1.31994   1.33750   1.35175   1.35843
 Alpha virt. eigenvalues --    1.37872   1.38943   1.39339   1.42268   1.43414
 Alpha virt. eigenvalues --    1.45416   1.47016   1.47421   1.48473   1.49822
 Alpha virt. eigenvalues --    1.50774   1.54234   1.54499   1.56372   1.57064
 Alpha virt. eigenvalues --    1.57303   1.58038   1.59024   1.59654   1.60211
 Alpha virt. eigenvalues --    1.63801   1.64020   1.65482   1.67895   1.68620
 Alpha virt. eigenvalues --    1.70211   1.70998   1.71539   1.74054   1.75042
 Alpha virt. eigenvalues --    1.75645   1.76871   1.77710   1.79092   1.80286
 Alpha virt. eigenvalues --    1.83571   1.83690   1.84260   1.85566   1.88345
 Alpha virt. eigenvalues --    1.88975   1.89433   1.89665   1.91957   1.94549
 Alpha virt. eigenvalues --    1.95429   1.98331   2.00789   2.02098   2.03250
 Alpha virt. eigenvalues --    2.04093   2.05338   2.10249   2.10795   2.14967
 Alpha virt. eigenvalues --    2.17454   2.17616   2.19951   2.20260   2.24195
 Alpha virt. eigenvalues --    2.24801   2.27338   2.31050   2.31821   2.31928
 Alpha virt. eigenvalues --    2.35988   2.37151   2.38721   2.42459   2.42901
 Alpha virt. eigenvalues --    2.42955   2.45084   2.49675   2.52323   2.55710
 Alpha virt. eigenvalues --    2.56947   2.57460   2.59062   2.59793   2.61385
 Alpha virt. eigenvalues --    2.62059   2.62510   2.63554   2.64546   2.64770
 Alpha virt. eigenvalues --    2.65628   2.65722   2.66782   2.67670   2.69409
 Alpha virt. eigenvalues --    2.69587   2.71452   2.74287   2.75249   2.76370
 Alpha virt. eigenvalues --    2.76905   2.78963   2.79685   2.84009   2.85173
 Alpha virt. eigenvalues --    2.85646   2.89647   2.91206   2.93186   2.96555
 Alpha virt. eigenvalues --    2.98760   2.99974   3.01817   3.04305   3.05469
 Alpha virt. eigenvalues --    3.09229   3.15291   3.17069   3.28411   3.31775
 Alpha virt. eigenvalues --    3.32966   3.35081   3.43807   3.50338   3.56418
 Alpha virt. eigenvalues --    3.56829   3.62363   3.63520   3.69064   3.73361
 Alpha virt. eigenvalues --    3.75339   3.77035   3.79314   3.87170   3.88775
 Alpha virt. eigenvalues --    3.96728   4.01418   4.04993   4.16996   4.23644
 Alpha virt. eigenvalues --    4.29693   4.45902   4.50024  23.43042  23.47875
 Alpha virt. eigenvalues --   23.51215  23.56021  23.56724  23.82053  23.96242
 Alpha virt. eigenvalues --   23.98176  24.27651  24.31887  24.68774  24.74706
 Alpha virt. eigenvalues --   25.31023  25.39258
          Condensed to atoms (all electrons):
               1          2          3          4          5          6
     1  C    7.362693   0.589293  -0.589231   0.372761   0.154383  -0.020094
     2  C    0.589293   9.744457   0.436040  -1.227946  -0.105754  -0.016159
     3  C   -0.589231   0.436040   6.881799   0.471839  -0.063448   0.016236
     4  C    0.372761  -1.227946   0.471839  11.786246   0.021495  -0.225583
     5  C    0.154383  -0.105754  -0.063448   0.021495   8.593481   1.112404
     6  C   -0.020094  -0.016159   0.016236  -0.225583   1.112404   8.060270
     7  C   -0.137821  -0.036970   0.004975   0.154338  -1.580412  -1.943682
     8  C    0.435315   0.047262  -0.115046  -0.050867   2.491899   0.931696
     9  C   -1.071770  -2.288918   0.216073   0.936308  -1.305303   0.237558
    10  C   -0.302873  -0.178719   0.356921  -1.807961  -1.050109  -1.327398
    11  C    0.973934  -1.115936   0.379610  -1.000323  -1.522529   0.391386
    12  C   -1.086386   1.345683  -1.950178  -1.038724   0.726208  -0.891579
    13  C   -0.038372  -0.538506  -0.322488   0.004846  -0.999954   1.334119
    14  C   -1.202754  -0.550841   0.349933  -2.801067  -0.811557  -1.570709
    15  H    0.409806  -0.099413   0.006865  -0.001426   0.004405   0.003818
    16  H   -0.029305   0.391387  -0.047082   0.035236  -0.001473  -0.000599
    17  H   -0.004911  -0.031892   0.415951  -0.067995  -0.000618   0.000511
    18  H    0.017700   0.005577  -0.052586   0.561303   0.011060  -0.004569
    19  H    0.005890  -0.006330   0.036925  -0.214746  -0.023965   0.071789
    20  H    0.003013   0.003471  -0.008187   0.033243   0.460211  -0.130372
    21  H   -0.000513  -0.000279   0.000157  -0.002481  -0.027857   0.342619
    22  H   -0.000374  -0.000112   0.000008   0.000517  -0.018289  -0.005587
    23  H    0.014591   0.002554  -0.000538  -0.004374   0.030347   0.039073
    24  H    0.053440   0.021038   0.000456  -0.003477  -0.018490  -0.008781
    25  H    0.053440   0.021038   0.000456  -0.003477  -0.018490  -0.008781
               7          8          9         10         11         12
     1  C   -0.137821   0.435315  -1.071770  -0.302873   0.973934  -1.086386
     2  C   -0.036970   0.047262  -2.288918  -0.178719  -1.115936   1.345683
     3  C    0.004975  -0.115046   0.216073   0.356921   0.379610  -1.950178
     4  C    0.154338  -0.050867   0.936308  -1.807961  -1.000323  -1.038724
     5  C   -1.580412   2.491899  -1.305303  -1.050109  -1.522529   0.726208
     6  C   -1.943682   0.931696   0.237558  -1.327398   0.391386  -0.891579
     7  C    9.457930  -2.529041  -0.280768   0.885681  -0.706166   0.603066
     8  C   -2.529041  10.973983  -1.731153  -0.710420  -0.165245  -0.095191
     9  C   -0.280768  -1.731153  10.753822   0.057918   1.563964  -2.704183
    10  C    0.885681  -0.710420   0.057918   8.614858  -0.242665   1.545456
    11  C   -0.706166  -0.165245   1.563964  -0.242665  16.294550  -5.963730
    12  C    0.603066  -0.095191  -2.704183   1.545456  -5.963730  18.339635
    13  C   -0.326725  -1.469907   0.935436  -1.227945  -0.736502  -1.957234
    14  C    2.600764  -2.307508   0.239426   1.024496  -1.719859  -1.045694
    15  H   -0.005052  -0.004900   0.051181   0.014273  -0.040839   0.020721
    16  H    0.000156   0.003381  -0.014975  -0.022800   0.026829   0.002714
    17  H   -0.000010  -0.001944   0.002657   0.008662   0.024096  -0.003742
    18  H    0.001381   0.005936  -0.004074  -0.024165  -0.004729  -0.068801
    19  H   -0.010528  -0.048048   0.035515   0.342852   0.181155  -0.243853
    20  H    0.017905   0.072091  -0.039569   0.114011  -0.048504   0.087778
    21  H    0.021193  -0.042045  -0.001826  -0.002490   0.001195  -0.008548
    22  H    0.357771  -0.026736   0.002329   0.003136  -0.005914   0.002363
    23  H   -0.115846   0.372233   0.074835  -0.019519   0.035872  -0.013189
    24  H    0.011904  -0.017598   0.370038   0.014256   0.044179  -0.040267
    25  H    0.011904  -0.017598   0.370038   0.014256   0.044179  -0.040267
              13         14         15         16         17         18
     1  C   -0.038372  -1.202754   0.409806  -0.029305  -0.004911   0.017700
     2  C   -0.538506  -0.550841  -0.099413   0.391387  -0.031892   0.005577
     3  C   -0.322488   0.349933   0.006865  -0.047082   0.415951  -0.052586
     4  C    0.004846  -2.801067  -0.001426   0.035236  -0.067995   0.561303
     5  C   -0.999954  -0.811557   0.004405  -0.001473  -0.000618   0.011060
     6  C    1.334119  -1.570709   0.003818  -0.000599   0.000511  -0.004569
     7  C   -0.326725   2.600764  -0.005052   0.000156  -0.000010   0.001381
     8  C   -1.469907  -2.307508  -0.004900   0.003381  -0.001944   0.005936
     9  C    0.935436   0.239426   0.051181  -0.014975   0.002657  -0.004074
    10  C   -1.227945   1.024496   0.014273  -0.022800   0.008662  -0.024165
    11  C   -0.736502  -1.719859  -0.040839   0.026829   0.024096  -0.004729
    12  C   -1.957234  -1.045694   0.020721   0.002714  -0.003742  -0.068801
    13  C   11.277505   0.246459  -0.035703   0.008222  -0.007951   0.007689
    14  C    0.246459  13.011169   0.010240  -0.022593   0.006724  -0.103719
    15  H   -0.035703   0.010240   0.425303  -0.004588   0.001793  -0.000378
    16  H    0.008222  -0.022593  -0.004588   0.391270  -0.006131   0.002837
    17  H   -0.007951   0.006724   0.001793  -0.006131   0.412697  -0.012687
    18  H    0.007689  -0.103719  -0.000378   0.002837  -0.012687   0.428238
    19  H    0.075301   0.163608   0.001589  -0.000694   0.003612  -0.009262
    20  H   -0.054500  -0.185503  -0.000511   0.000104  -0.000381   0.002108
    21  H    0.010113   0.051485   0.000070  -0.000008   0.000007  -0.000081
    22  H    0.031253   0.000474  -0.000177   0.000003  -0.000001   0.000001
    23  H   -0.064145  -0.046326   0.000550  -0.000062  -0.000030  -0.000038
    24  H   -0.065659  -0.026924  -0.001696   0.000565  -0.000009   0.000034
    25  H   -0.065659  -0.026924  -0.001696   0.000565  -0.000009   0.000034
              19         20         21         22         23         24
     1  C    0.005890   0.003013  -0.000513  -0.000374   0.014591   0.053440
     2  C   -0.006330   0.003471  -0.000279  -0.000112   0.002554   0.021038
     3  C    0.036925  -0.008187   0.000157   0.000008  -0.000538   0.000456
     4  C   -0.214746   0.033243  -0.002481   0.000517  -0.004374  -0.003477
     5  C   -0.023965   0.460211  -0.027857  -0.018289   0.030347  -0.018490
     6  C    0.071789  -0.130372   0.342619  -0.005587   0.039073  -0.008781
     7  C   -0.010528   0.017905   0.021193   0.357771  -0.115846   0.011904
     8  C   -0.048048   0.072091  -0.042045  -0.026736   0.372233  -0.017598
     9  C    0.035515  -0.039569  -0.001826   0.002329   0.074835   0.370038
    10  C    0.342852   0.114011  -0.002490   0.003136  -0.019519   0.014256
    11  C    0.181155  -0.048504   0.001195  -0.005914   0.035872   0.044179
    12  C   -0.243853   0.087778  -0.008548   0.002363  -0.013189  -0.040267
    13  C    0.075301  -0.054500   0.010113   0.031253  -0.064145  -0.065659
    14  C    0.163608  -0.185503   0.051485   0.000474  -0.046326  -0.026924
    15  H    0.001589  -0.000511   0.000070  -0.000177   0.000550  -0.001696
    16  H   -0.000694   0.000104  -0.000008   0.000003  -0.000062   0.000565
    17  H    0.003612  -0.000381   0.000007  -0.000001  -0.000030  -0.000009
    18  H   -0.009262   0.002108  -0.000081   0.000001  -0.000038   0.000034
    19  H    0.496092  -0.017004   0.000651  -0.000245  -0.000014   0.000634
    20  H   -0.017004   0.500079  -0.005900   0.001602  -0.001278   0.000593
    21  H    0.000651  -0.005900   0.421711  -0.001576   0.000731  -0.000237
    22  H   -0.000245   0.001602  -0.001576   0.427165  -0.004976   0.000877
    23  H   -0.000014  -0.001278   0.000731  -0.004976   0.468742  -0.000113
    24  H    0.000634   0.000593  -0.000237   0.000877  -0.000113   0.463929
    25  H    0.000634   0.000593  -0.000237   0.000877  -0.000113  -0.060613
              25
     1  C    0.053440
     2  C    0.021038
     3  C    0.000456
     4  C   -0.003477
     5  C   -0.018490
     6  C   -0.008781
     7  C    0.011904
     8  C   -0.017598
     9  C    0.370038
    10  C    0.014256
    11  C    0.044179
    12  C   -0.040267
    13  C   -0.065659
    14  C   -0.026924
    15  H   -0.001696
    16  H    0.000565
    17  H   -0.000009
    18  H    0.000034
    19  H    0.000634
    20  H    0.000593
    21  H   -0.000237
    22  H    0.000877
    23  H   -0.000113
    24  H   -0.060613
    25  H    0.463929
 Mulliken charges:
               1
     1  C    0.038144
     2  C   -0.410024
     3  C   -0.425460
     4  C    0.072315
     5  C   -0.057648
     6  C   -0.387588
     7  C   -0.455946
     8  C   -0.000547
     9  C   -0.404556
    10  C   -0.079714
    11  C   -0.688007
    12  C    0.477941
    13  C   -0.019693
    14  C    0.717199
    15  H    0.245767
    16  H    0.287041
    17  H    0.261603
    18  H    0.241193
    19  H    0.158443
    20  H    0.194905
    21  H    0.244146
    22  H    0.235611
    23  H    0.231032
    24  H    0.261922
    25  H    0.261922
 Sum of Mulliken charges =   1.00000
 Mulliken charges with hydrogens summed into heavy atoms:
               1
     1  C    0.283911
     2  C   -0.122983
     3  C   -0.163857
     4  C    0.313509
     5  C    0.137257
     6  C   -0.143442
     7  C   -0.220336
     8  C    0.230486
     9  C    0.119288
    10  C    0.078729
    11  C   -0.688007
    12  C    0.477941
    13  C   -0.019693
    14  C    0.717199
 Electronic spatial extent (au):  <R**2>=           2870.7743
 Charge=              1.0000 electrons
 Dipole moment (field-independent basis, Debye):
    X=              2.1929    Y=             -5.4871    Z=              0.0000  Tot=              5.9090
 Quadrupole moment (field-independent basis, Debye-Ang):
   XX=            -47.2631   YY=            -35.4078   ZZ=            -83.1810
   XY=            -14.5640   XZ=              0.0000   YZ=             -0.0000
 Traceless Quadrupole moment (field-independent basis, Debye-Ang):
   XX=              8.0208   YY=             19.8762   ZZ=            -27.8970
   XY=            -14.5640   XZ=              0.0000   YZ=             -0.0000
 Octapole moment (field-independent basis, Debye-Ang**2):
  XXX=             20.3216  YYY=            -56.8039  ZZZ=              0.0000  XYY=             12.0227
  XXY=             -7.7989  XXZ=              0.0000  XZZ=              2.4222  YZZ=            -10.8669
  YYZ=              0.0000  XYZ=             -0.0000
 Hexadecapole moment (field-independent basis, Debye-Ang**3):
 XXXX=          -1115.6252 YYYY=          -1705.4163 ZZZZ=            -97.5130 XXXY=            370.0082
 XXXZ=             -0.0000 YYYX=            306.4834 YYYZ=              0.0000 ZZZX=             -0.0000
 ZZZY=             -0.0000 XXYY=           -438.3317 XXZZ=           -275.4539 YYZZ=           -457.3808
 XXYZ=             -0.0000 YYXZ=              0.0000 ZZXY=            202.6618
 N-N= 7.856578207430D+02 E-N=-2.809000247295D+03  KE= 5.398736130461D+02
 Symmetry A'   KE= 5.246760821096D+02
 Symmetry A"   KE= 1.519753093653D+01
 Unable to Open any file for archive entry.
 1\1\GINC-GADI-CPU-CLX-0240\SP\RM062X TD-FC\6-311++G(d,p)\C14H11(1+)\TS
 1578\02-Aug-2022\0\\#n M062X/6-311++G(d,p) TD(NStates=1) EmpiricalDisp
 ersion=GD3 SP\\SP_12\\1,1\C,0,0.,2.222655,1.294431\C,0,0.,3.455508,0.6
 05989\C,0,0.,3.623861,-0.86983\C,0,0.,2.775156,-1.557538\C,0,0.,-2.151
 156,-1.257538\C,0,0.,-3.743861,-0.55783\C,0,0.,-3.947508,0.737989\C,0,
 0.,-2.762655,1.426431\C,0,0.,-0.072,1.453369\C,0,0.,0.312,-1.429189\C,
 0,0.,1.334055,0.683065\C,0,0.,1.369471,-0.856804\C,0,0.,-1.190055,0.67
 1065\C,0,0.,-1.105471,-0.604804\H,0,0.,2.266071,2.377647\H,0,0.,4.3487
 53,1.229689\H,0,0.,4.681262,-1.206349\H,0,0.,2.73155,-2.640059\H,0,0.,
 0.114,-2.510266\H,0,0.,-2.20355,-2.340059\H,0,0.,-4.537262,-1.338349\H
 ,0,0.,-4.924753,1.193689\H,0,0.,-2.710071,2.509647\H,0,-0.859585,-0.38
 4,2.145787\H,0,0.859585,-0.384,2.145787\\Version=ES64L-G16RevC.01\Stat
 e=1-A'\HF=-539.1957319\RMSD=7.086e-09\PG=CS [SG(C14H9),X(H2)]\\@
 The archive entry for this job was punched.


 THOSE WITH THE GOLD MAKE THE RULES.

             -- PETER'S GOLDEN RULE
 Job cpu time:       0 days  0 hours 54 minutes 53.0 seconds.
 Elapsed time:       0 days  0 hours  1 minutes  8.7 seconds.
 File lengths (MBytes):  RWF=    460 Int=      0 D2E=      0 Chk=     15 Scr=      1
 Normal termination of Gaussian 16 at Tue Aug  2 13:23:23 2022.
