 Entering Gaussian System, Link 0=g16
 Initial command:
 /apps/gaussian/g16c01/g16/l1.exe "/jobfs/53803565.gadi-pbs/Gau-1057757.inp" -scrdir="/jobfs/53803565.gadi-pbs/"
 Entering Link 1 = /apps/gaussian/g16c01/g16/l1.exe PID=   1057758.
  
 Copyright (c) 1988-2019, Gaussian, Inc.  All Rights Reserved.
  
 This is part of the Gaussian(R) 16 program.  It is based on
 the Gaussian(R) 09 system (copyright 2009, Gaussian, Inc.),
 the Gaussian(R) 03 system (copyright 2003, Gaussian, Inc.),
 the Gaussian(R) 98 system (copyright 1998, Gaussian, Inc.),
 the Gaussian(R) 94 system (copyright 1995, Gaussian, Inc.),
 the Gaussian 92(TM) system (copyright 1992, Gaussian, Inc.),
 the Gaussian 90(TM) system (copyright 1990, Gaussian, Inc.),
 the Gaussian 88(TM) system (copyright 1988, Gaussian, Inc.),
 the Gaussian 86(TM) system (copyright 1986, Carnegie Mellon
 University), and the Gaussian 82(TM) system (copyright 1983,
 Carnegie Mellon University). Gaussian is a federally registered
 trademark of Gaussian, Inc.
  
 This software contains proprietary and confidential information,
 including trade secrets, belonging to Gaussian, Inc.
  
 This software is provided under written license and may be
 used, copied, transmitted, or stored only in accord with that
 written license.
  
 The following legend is applicable only to US Government
 contracts under FAR:
  
                    RESTRICTED RIGHTS LEGEND
  
 Use, reproduction and disclosure by the US Government is
 subject to restrictions as set forth in subparagraphs (a)
 and (c) of the Commercial Computer Software - Restricted
 Rights clause in FAR 52.227-19.
  
 Gaussian, Inc.
 340 Quinnipiac St., Bldg. 40, Wallingford CT 06492
  
  
 ---------------------------------------------------------------
 Warning -- This program may not be used in any manner that
 competes with the business of Gaussian, Inc. or will provide
 assistance to any competitor of Gaussian, Inc.  The licensee
 of this program is prohibited from giving any competitor of
 Gaussian, Inc. access to this program.  By using this program,
 the user acknowledges that Gaussian, Inc. is engaged in the
 business of creating and licensing software in the field of
 computational chemistry and represents and warrants to the
 licensee that it is not a competitor of Gaussian, Inc. and that
 it will not use this program in any manner prohibited above.
 ---------------------------------------------------------------
  

 Cite this work as:
 Gaussian 16, Revision C.01,
 M. J. Frisch, G. W. Trucks, H. B. Schlegel, G. E. Scuseria, 
 M. A. Robb, J. R. Cheeseman, G. Scalmani, V. Barone, 
 G. A. Petersson, H. Nakatsuji, X. Li, M. Caricato, A. V. Marenich, 
 J. Bloino, B. G. Janesko, R. Gomperts, B. Mennucci, H. P. Hratchian, 
 J. V. Ortiz, A. F. Izmaylov, J. L. Sonnenberg, D. Williams-Young, 
 F. Ding, F. Lipparini, F. Egidi, J. Goings, B. Peng, A. Petrone, 
 T. Henderson, D. Ranasinghe, V. G. Zakrzewski, J. Gao, N. Rega, 
 G. Zheng, W. Liang, M. Hada, M. Ehara, K. Toyota, R. Fukuda, 
 J. Hasegawa, M. Ishida, T. Nakajima, Y. Honda, O. Kitao, H. Nakai, 
 T. Vreven, K. Throssell, J. A. Montgomery, Jr., J. E. Peralta, 
 F. Ogliaro, M. J. Bearpark, J. J. Heyd, E. N. Brothers, K. N. Kudin, 
 V. N. Staroverov, T. A. Keith, R. Kobayashi, J. Normand, 
 K. Raghavachari, A. P. Rendell, J. C. Burant, S. S. Iyengar, 
 J. Tomasi, M. Cossi, J. M. Millam, M. Klene, C. Adamo, R. Cammi, 
 J. W. Ochterski, R. L. Martin, K. Morokuma, O. Farkas, 
 J. B. Foresman, and D. J. Fox, Gaussian, Inc., Wallingford CT, 2019.
 
 ******************************************
 Gaussian 16:  ES64L-G16RevC.01  3-Jul-2019
                 2-Aug-2022 
 ******************************************
 %NProcShared=48
 Will use up to   48 processors via shared memory.
 %mem = 190GB
 ---------------------------------------------------------------
 #n M062X/6-311++G(d,p) TD(NStates=1) EmpiricalDispersion=GD3 SP
 ---------------------------------------------------------------
 1/38=1,172=1/1;
 2/12=2,17=6,18=5,40=1/2;
 3/5=4,6=6,7=1111,11=9,25=1,30=1,74=-55,124=31/1,2,3,8;
 4//1;
 5/5=2,38=5/2;
 8/6=1,10=2,108=1/1;
 9/41=1,42=1,70=2/14;
 6/7=2,8=2,9=2,10=2/1;
 99/5=1,9=1/99;
 ----
 SP_6
 ----
 Symbolic Z-matrix:
 Charge =  1 Multiplicity = 1
 C                     0.        2.39665   1.36043 
 C                     0.        3.59351   0.62399 
 C                     0.        3.62986  -0.80983 
 C                     0.        2.58316  -1.45554 
 C                     0.       -2.34316  -1.35954 
 C                     0.       -3.73786  -0.61783 
 C                     0.       -3.80951   0.71999 
 C                     0.       -2.58866   1.36043 
 C                     0.       -0.048     1.45337 
 C                     0.        0.174    -1.42919 
 C                     0.        1.31606   0.74307 
 C                     0.        1.29147  -0.7368 
 C                     0.       -1.20806   0.61107 
 C                     0.       -1.18347  -0.7248 
 H                     0.        2.45807   2.44365 
 H                     0.        4.52875   1.16969 
 H                     0.        4.60326  -1.28435 
 H                     0.        2.52155  -2.53806 
 H                     0.        0.15     -2.51027 
 H                     0.       -2.41355  -2.44206 
 H                     0.       -4.61526  -1.26035 
 H                     0.       -4.74475   1.25369 
 H                     0.       -2.51807   2.44365 
 H                    -0.85959  -0.264     2.14579 
 H                     0.85959  -0.264     2.14579 
 
                          Input orientation:                          
 ---------------------------------------------------------------------
 Center     Atomic      Atomic             Coordinates (Angstroms)
 Number     Number       Type             X           Y           Z
 ---------------------------------------------------------------------
      1          6           0        0.000000    2.396655    1.360431
      2          6           0        0.000000    3.593508    0.623989
      3          6           0        0.000000    3.629861   -0.809830
      4          6           0        0.000000    2.583156   -1.455538
      5          6           0        0.000000   -2.343156   -1.359538
      6          6           0        0.000000   -3.737861   -0.617830
      7          6           0        0.000000   -3.809508    0.719989
      8          6           0        0.000000   -2.588655    1.360431
      9          6           0        0.000000   -0.048000    1.453369
     10          6           0        0.000000    0.174000   -1.429189
     11          6           0        0.000000    1.316055    0.743065
     12          6           0        0.000000    1.291471   -0.736804
     13          6           0        0.000000   -1.208055    0.611065
     14          6           0        0.000000   -1.183471   -0.724804
     15          1           0        0.000000    2.458071    2.443647
     16          1           0        0.000000    4.528753    1.169689
     17          1           0        0.000000    4.603262   -1.284349
     18          1           0        0.000000    2.521550   -2.538059
     19          1           0        0.000000    0.150000   -2.510266
     20          1           0        0.000000   -2.413550   -2.442059
     21          1           0        0.000000   -4.615262   -1.260349
     22          1           0        0.000000   -4.744753    1.253689
     23          1           0        0.000000   -2.518071    2.443647
     24          1           0       -0.859585   -0.264000    2.145787
     25          1           0        0.859585   -0.264000    2.145787
 ---------------------------------------------------------------------
                    Distance matrix (angstroms):
                    1          2          3          4          5
     1  C    0.000000
     2  C    1.405277   0.000000
     3  C    2.496163   1.434280   0.000000
     4  C    2.822138   2.311978   1.229850   0.000000
     5  C    5.464800   6.259262   5.998259   4.927247   0.000000
     6  C    6.445603   7.435798   7.370223   6.376285   1.579662
     7  C    6.239121   7.403638   7.595035   6.752708   2.544528
     8  C    4.985310   6.225872   6.586348   5.888744   2.731026
     9  C    2.446421   3.734763   4.318418   3.922336   3.630453
    10  C    3.566816   3.988555   3.510923   2.409300   2.518119
    11  C    1.244523   2.280564   2.786607   2.537597   4.220280
    12  C    2.370617   2.674160   2.339530   1.478184   3.687589
    13  C    3.681777   4.801580   5.042259   4.317885   2.274144
    14  C    4.143128   4.963746   4.814083   3.836854   1.322027
    15  H    1.084956   2.144848   3.458064   3.901191   6.125030
    16  H    2.140613   1.082807   2.174052   3.267593   7.322576
    17  H    3.444412   2.159018   1.082902   2.027347   6.946825
    18  H    3.900490   3.338808   2.053078   1.084273   5.005425
    19  H    4.475461   4.656318   3.873101   2.651924   2.745906
    20  H    6.131639   6.744286   6.259951   5.093162   1.084807
    21  H    7.485684   8.422270   8.257422   7.201064   2.274270
    22  H    7.142206   8.362004   8.625095   7.812692   3.549172
    23  H    5.032682   6.376720   6.955730   6.420760   3.807205
    24  H    2.904265   4.234988   4.963538   4.670624   4.165223
    25  H    2.904265   4.234988   4.963538   4.670624   4.165223
                    6          7          8          9         10
     6  C    0.000000
     7  C    1.339736   0.000000
     8  C    2.287835   1.378640   0.000000
     9  C    4.231423   3.832335   2.542354   0.000000
    10  C    3.995117   4.526290   3.926098   2.891094   0.000000
    11  C    5.233938   5.125615   3.953214   1.537913   2.454175
    12  C    5.030739   5.304925   4.410643   2.567302   1.314587
    13  C    2.812490   2.603732   1.570861   1.433598   2.464287
    14  C    2.556629   2.997248   2.514507   2.456366   1.529342
    15  H    6.911021   6.500273   5.161666   2.694632   4.496203
    16  H    8.457667   8.350379   7.119963   4.585536   5.071296
    17  H    8.367711   8.648241   7.662802   5.397160   4.431630
    18  H    6.547328   7.120195   6.427474   4.747008   2.596263
    19  H    4.323977   5.110015   4.741574   3.968577   1.081343
    20  H    2.254243   3.456479   3.806520   4.557432   2.778726
    21  H    1.087503   2.137985   3.312948   5.312640   4.792237
    22  H    2.125186   1.076810   2.158739   4.700996   5.602853
    23  H    3.295532   2.153789   1.085513   2.661184   4.716578
    24  H    4.521524   3.916939   2.599941   1.124716   3.702862
    25  H    4.521524   3.916939   2.599941   1.124716   3.702862
                   11         12         13         14         15
    11  C    0.000000
    12  C    1.480073   0.000000
    13  C    2.527559   2.839785   0.000000
    14  C    2.898667   2.474971   1.336095   0.000000
    15  H    2.048458   3.387658   4.098638   4.826998   0.000000
    16  H    3.240901   3.756955   5.763942   6.018190   2.431192
    17  H    3.862142   3.356749   6.112610   5.813723   4.301139
    18  H    3.495568   2.181196   4.881284   4.124933   4.982110
    19  H    3.455987   2.109057   3.403971   2.228457   5.465203
    20  H    4.904586   4.078612   3.282497   2.112359   6.899479
    21  H    6.260526   5.929890   3.887319   3.473327   7.984462
    22  H    6.082280   6.355947   3.594607   4.073962   7.300457
    23  H    4.194342   4.962648   2.252665   3.438057   4.976142
    24  H    2.281028   3.386400   1.996371   3.134423   2.870066
    25  H    2.281028   3.386400   1.996371   3.134423   2.870066
                   16         17         18         19         20
    16  H    0.000000
    17  H    2.455169   0.000000
    18  H    4.216190   2.430085   0.000000
    19  H    5.719751   4.618919   2.371713   0.000000
    20  H    7.825618   7.111677   4.936034   2.564457   0.000000
    21  H    9.461400   9.218555   7.250285   4.926461   2.498795
    22  H    9.273886   9.686435   8.196128   6.174623   4.369561
    23  H    7.161054   8.038118   7.086267   5.626709   4.886824
    24  H    4.966099   6.016225   5.516937   4.752800   5.138850
    25  H    4.966099   6.016225   5.516937   4.752800   5.138850
                   21         22         23         24         25
    21  H    0.000000
    22  H    2.517371   0.000000
    23  H    4.256500   2.524701   0.000000
    24  H    5.592328   4.648857   2.430729   0.000000
    25  H    5.592328   4.648857   2.430729   1.719170   0.000000
 Stoichiometry    C14H11(1+)
 Framework group  CS[SG(C14H9),X(H2)]
 Deg. of freedom    46
 Full point group                 CS      NOp   2
 Largest Abelian subgroup         CS      NOp   2
 Largest concise Abelian subgroup CS      NOp   2
                         Standard orientation:                         
 ---------------------------------------------------------------------
 Center     Atomic      Atomic             Coordinates (Angstroms)
 Number     Number       Type             X           Y           Z
 ---------------------------------------------------------------------
      1          6           0       -2.297374   -1.524787    0.000000
      2          6           0       -2.181237   -2.925257    0.000000
      3          6           0       -0.918581   -3.605594    0.000000
      4          6           0        0.130423   -2.963628    0.000000
      5          6           0        2.270862    1.474423    0.000000
      6          6           0        2.239431    3.053772    0.000000
      7          6           0        1.078363    3.722214    0.000000
      8          6           0       -0.044636    2.922514    0.000000
      9          6           0       -1.275604    0.698040    0.000000
     10          6           0        1.195556   -0.802558    0.000000
     11          6           0       -1.258338   -0.839776    0.000000
     12          6           0        0.072935   -1.486562    0.000000
     13          6           0        0.000000    1.352287    0.000000
     14          6           0        1.180595    0.726710    0.000000
     15          1           0       -3.291443   -1.090096    0.000000
     16          1           0       -3.090659   -3.512983    0.000000
     17          1           0       -0.935127   -4.688370    0.000000
     18          1           0        1.123958   -3.397834    0.000000
     19          1           0        2.170809   -1.269660    0.000000
     20          1           0        3.268368    1.048055    0.000000
     21          1           0        3.209086    3.546146    0.000000
     22          1           0        1.024873    4.797694    0.000000
     23          1           0       -1.042848    3.349026    0.000000
     24          1           0       -1.795692    1.203616    0.859585
     25          1           0       -1.795692    1.203616   -0.859585
 ---------------------------------------------------------------------
 Rotational constants (GHZ):           2.1403940           0.4436323           0.3682659
 Standard basis: 6-311++G(d,p) (5D, 7F)
 There are   299 symmetry adapted cartesian basis functions of A'  symmetry.
 There are   100 symmetry adapted cartesian basis functions of A"  symmetry.
 There are   285 symmetry adapted basis functions of A'  symmetry.
 There are   100 symmetry adapted basis functions of A"  symmetry.
   385 basis functions,   603 primitive gaussians,   399 cartesian basis functions
    47 alpha electrons       47 beta electrons
       nuclear repulsion energy       782.2983147475 Hartrees.
 NAtoms=   25 NActive=   25 NUniq=   24 SFac= 1.09D+00 NAtFMM=   60 NAOKFM=F Big=F
 Integral buffers will be    131072 words long.
 Regular integral format.
 Two-electron integral symmetry is turned on.
 Nuclear repulsion after empirical dispersion term =      782.2973411835 Hartrees.
 One-electron integrals computed using PRISM.
 NBasis=   385 RedAO= T EigKep=  1.08D-06  NBF=   285   100
 NBsUse=   379 1.00D-06 EigRej=  7.95D-07 NBFU=   279   100
 ExpMin= 3.60D-02 ExpMax= 4.56D+03 ExpMxC= 6.82D+02 IAcc=3 IRadAn=         5 AccDes= 0.00D+00
 Harris functional with IExCor= 1009 and IRadAn=       5 diagonalized for initial guess.
 HarFok:  IExCor= 1009 AccDes= 0.00D+00 IRadAn=         5 IDoV= 1 UseB2=F ITyADJ=14
 ICtDFT=  3500011 ScaDFX=  1.000000  1.000000  1.000000  1.000000
 FoFCou: FMM=F IPFlag=           0 FMFlag=      100000 FMFlg1=           0
         NFxFlg=           0 DoJE=T BraDBF=F KetDBF=T FulRan=T
         wScrn=  0.000000 ICntrl=       500 IOpCl=  0 I1Cent=   200000004 NGrid=           0
         NMat0=    1 NMatS0=      1 NMatT0=    0 NMatD0=    1 NMtDS0=    0 NMtDT0=    0
 Petite list used in FoFCou.
 Initial guess orbital symmetries:
       Occupied  (A') (A') (A') (A') (A') (A') (A') (A') (A') (A')
                 (A') (A') (A') (A') (A') (A') (A') (A') (A') (A')
                 (A') (A') (A') (A') (A') (A') (A') (A') (A') (A')
                 (A') (A') (A') (A") (A') (A') (A') (A") (A') (A')
                 (A") (A') (A') (A") (A") (A") (A")
       Virtual   (A") (A") (A") (A") (A") (A') (A') (A') (A') (A")
                 (A') (A") (A') (A') (A') (A") (A') (A') (A') (A')
                 (A') (A") (A') (A") (A') (A") (A') (A') (A") (A')
                 (A') (A') (A') (A') (A") (A') (A') (A') (A") (A')
                 (A") (A') (A') (A") (A') (A') (A') (A') (A') (A")
                 (A') (A") (A') (A") (A') (A') (A") (A') (A') (A")
                 (A') (A') (A') (A') (A') (A") (A') (A') (A') (A")
                 (A') (A') (A') (A') (A') (A') (A') (A') (A') (A')
                 (A') (A') (A') (A') (A') (A') (A') (A') (A') (A')
                 (A') (A') (A') (A') (A') (A") (A') (A') (A") (A')
                 (A') (A") (A") (A') (A') (A") (A') (A") (A") (A")
                 (A') (A') (A") (A') (A') (A") (A') (A') (A") (A")
                 (A') (A") (A') (A') (A') (A") (A') (A') (A") (A')
                 (A') (A') (A') (A') (A') (A') (A') (A") (A') (A')
                 (A') (A') (A') (A') (A') (A') (A') (A") (A') (A')
                 (A") (A') (A") (A') (A") (A') (A") (A') (A') (A")
                 (A') (A") (A") (A') (A") (A") (A') (A') (A') (A')
                 (A") (A') (A') (A') (A') (A') (A') (A") (A') (A')
                 (A") (A') (A') (A") (A") (A') (A') (A") (A') (A")
                 (A") (A') (A') (A') (A") (A') (A") (A') (A') (A')
                 (A") (A") (A") (A') (A') (A") (A') (A") (A") (A')
                 (A') (A') (A") (A') (A') (A") (A') (A') (A") (A')
                 (A") (A') (A') (A') (A") (A') (A') (A') (A") (A')
                 (A") (A') (A') (A") (A') (A') (A") (A') (A") (A')
                 (A") (A') (A') (A') (A") (A') (A') (A') (A') (A')
                 (A") (A') (A') (A") (A") (A') (A') (A") (A') (A')
                 (A") (A') (A') (A") (A') (A') (A') (A") (A") (A')
                 (A') (A') (A') (A') (A") (A") (A') (A') (A") (A")
                 (A') (A') (A") (A') (A") (A") (A') (A') (A') (A')
                 (A') (A') (A') (A') (A') (A') (A') (A') (A') (A')
                 (A') (A') (A') (A") (A') (A') (A') (A') (A') (A')
                 (A') (A') (A') (A') (A') (A') (A') (A') (A') (A')
                 (A') (A') (A') (A') (A') (A') (A') (A') (A') (A')
                 (A') (A')
 The electronic state of the initial guess is 1-A'.
 Requested convergence on RMS density matrix=1.00D-08 within 128 cycles.
 Requested convergence on MAX density matrix=1.00D-06.
 Requested convergence on             energy=1.00D-06.
 No special actions if energy rises.
 SCF Done:  E(RM062X) =  -539.628585791     A.U. after   16 cycles
            NFock= 16  Conv=0.50D-08     -V/T= 2.0029
 DoSCS=F DFT=T ScalE2(SS,OS)=  1.000000  1.000000
 ExpMin= 3.60D-02 ExpMax= 4.56D+03 ExpMxC= 6.82D+02 IAcc=3 IRadAn=         5 AccDes= 0.00D+00
 HarFok:  IExCor=  205 AccDes= 0.00D+00 IRadAn=         5 IDoV=-2 UseB2=F ITyADJ=14
 ICtDFT= 12500011 ScaDFX=  1.000000  1.000000  1.000000  1.000000
 Range of M.O.s used for correlation:    15   379
 NBasis=   385 NAE=    47 NBE=    47 NFC=    14 NFV=     0
 NROrb=    365 NOA=    33 NOB=    33 NVA=   332 NVB=   332

 **** Warning!!: The largest alpha MO coefficient is  0.18094498D+03

 Orbital symmetries:
       Occupied  (A') (A') (A') (A') (A') (A') (A') (A') (A') (A')
                 (A') (A') (A') (A') (A') (A') (A') (A') (A') (A')
                 (A') (A') (A') (A') (A') (A') (A') (A') (A') (A')
                 (A') (A") (A') (A') (A') (A") (A') (A') (A") (A')
                 (A') (A') (A") (A") (A') (A") (A")
       Virtual   (A") (A") (A") (A") (A') (A') (A') (A') (A') (A")
                 (A') (A") (A') (A") (A') (A') (A") (A') (A') (A')
                 (A") (A") (A') (A') (A') (A") (A') (A') (A") (A')
                 (A") (A') (A') (A") (A') (A') (A') (A') (A") (A')
                 (A") (A') (A') (A") (A') (A") (A") (A') (A') (A')
                 (A') (A") (A') (A') (A') (A") (A') (A') (A') (A')
                 (A') (A") (A') (A') (A') (A') (A") (A') (A') (A')
                 (A') (A') (A') (A') (A') (A') (A') (A') (A') (A')
                 (A') (A') (A') (A') (A') (A') (A') (A') (A') (A')
                 (A') (A') (A') (A") (A') (A") (A') (A") (A') (A')
                 (A") (A') (A') (A") (A') (A") (A') (A") (A') (A')
                 (A") (A") (A') (A') (A") (A') (A") (A') (A') (A")
                 (A") (A') (A') (A") (A') (A") (A') (A') (A') (A')
                 (A') (A') (A') (A') (A') (A') (A') (A') (A') (A')
                 (A') (A') (A') (A') (A") (A') (A') (A') (A') (A")
                 (A') (A') (A') (A') (A') (A") (A") (A") (A') (A")
                 (A') (A") (A") (A') (A') (A") (A") (A") (A') (A')
                 (A") (A') (A') (A') (A') (A') (A') (A") (A") (A')
                 (A') (A') (A') (A") (A") (A') (A') (A") (A") (A")
                 (A') (A') (A') (A") (A') (A") (A') (A') (A') (A")
                 (A') (A") (A") (A') (A") (A') (A') (A") (A') (A')
                 (A') (A") (A') (A") (A') (A') (A") (A') (A") (A')
                 (A") (A') (A') (A') (A") (A') (A') (A') (A") (A")
                 (A') (A') (A') (A") (A') (A') (A") (A') (A") (A')
                 (A") (A') (A') (A") (A') (A') (A') (A') (A') (A')
                 (A") (A') (A') (A') (A') (A") (A") (A') (A") (A')
                 (A') (A') (A') (A') (A') (A") (A') (A') (A') (A')
                 (A') (A") (A') (A") (A") (A') (A") (A") (A') (A")
                 (A') (A") (A") (A') (A") (A") (A') (A') (A') (A')
                 (A') (A') (A') (A') (A') (A') (A') (A') (A') (A')
                 (A') (A') (A') (A") (A') (A') (A') (A') (A') (A')
                 (A') (A') (A') (A') (A') (A') (A') (A') (A') (A')
                 (A') (A') (A') (A') (A') (A') (A') (A') (A') (A')
                 (A') (A')
     4 initial guesses have been made.
 Convergence on wavefunction:    0.001000000000000
 Iteration     1 Dimension     4 NMult     0 NNew      4
 CISAX will form     4 AO SS matrices at one time.
 Iteration     2 Dimension     6 NMult     4 NNew      2
 Iteration     3 Dimension     8 NMult     6 NNew      2
 Iteration     4 Dimension    10 NMult     8 NNew      2
 Iteration     5 Dimension    12 NMult    10 NNew      2
 Iteration     6 Dimension    14 NMult    12 NNew      2
 ***********************************************************************
 Excited states from <AA,BB:AA,BB> singles matrix:
 ***********************************************************************
 
 Ground to excited state transition densities written to RWF  633
 Ground to excited state transition electric dipole moments (Au):
       state          X           Y           Z        Dip. S.      Osc.
         1        -0.0760      0.6305      0.0000      0.4033      0.0172
 Ground to excited state transition velocity dipole moments (Au):
       state          X           Y           Z        Dip. S.      Osc.
         1         0.0118     -0.0380     -0.0000      0.0016      0.0165
 Ground to excited state transition magnetic dipole moments (Au):
       state          X           Y           Z
         1        -0.0000     -0.0000      0.1156
 Ground to excited state transition velocity quadrupole moments (Au):
       state          XX          YY          ZZ          XY          XZ          YZ
         1         0.0593      0.0368     -0.0047      0.0762      0.0000     -0.0000
 <0|del|b> * <b|rxdel|0> + <0|del|b> * <b|delr+rdel|0>
 Rotatory Strengths (R) in cgs (10**-40 erg-esu-cm/Gauss)
       state          XX          YY          ZZ    R(velocity)    E-M Angle
         1         0.0000     -0.0000      0.0000      0.0000       90.00
 1/2[<0|r|b>*<b|rxdel|0> + (<0|rxdel|b>*<b|r|0>)*]
 Rotatory Strengths (R) in cgs (10**-40 erg-esu-cm/Gauss)
       state          XX          YY          ZZ     R(length)
         1        -0.0000      0.0000     -0.0000      0.0000
  1/2[<0|del|b>*<b|r|0> + (<0|r|b>*<b|del|0>)*] (Au)
       state          X           Y           Z        Dip. S.   Osc.(frdel)
         1        -0.0009     -0.0240     -0.0000      0.0249      0.0166

 Excitation energies and oscillator strengths:
 
 Excited State   1:      Singlet-A'     1.7452 eV  710.43 nm  f=0.0172  <S**2>=0.000
      47 -> 48         0.70296
 This state for optimization and/or second-order correction.
 Total Energy, E(TD-HF/TD-DFT) =  -539.564450559    
 Copying the excited state density for this state as the 1-particle RhoCI density.
 SavETr:  write IOETrn=   770 NScale= 10 NData=  16 NLR=1 NState=    1 LETran=      28.

 **********************************************************************

            Population analysis using the SCF Density.

 **********************************************************************

 Orbital symmetries:
       Occupied  (A') (A') (A') (A') (A') (A') (A') (A') (A') (A')
                 (A') (A') (A') (A') (A') (A') (A') (A') (A') (A')
                 (A') (A') (A') (A') (A') (A') (A') (A') (A') (A')
                 (A') (A") (A') (A') (A') (A") (A') (A') (A") (A')
                 (A') (A') (A") (A") (A') (A") (A")
       Virtual   (A") (A") (A") (A") (A') (A') (A') (A') (A') (A")
                 (A') (A") (A') (A") (A') (A') (A") (A') (A') (A')
                 (A") (A") (A') (A') (A') (A") (A') (A') (A") (A')
                 (A") (A') (A') (A") (A') (A') (A') (A') (A") (A')
                 (A") (A') (A') (A") (A') (A") (A") (A') (A') (A')
                 (A') (A") (A') (A') (A') (A") (A') (A') (A') (A')
                 (A') (A") (A') (A') (A') (A') (A") (A') (A') (A')
                 (A') (A') (A') (A') (A') (A') (A') (A') (A') (A')
                 (A') (A') (A') (A') (A') (A') (A') (A') (A') (A')
                 (A') (A') (A') (A") (A') (A") (A') (A") (A') (A')
                 (A") (A') (A') (A") (A') (A") (A') (A") (A') (A')
                 (A") (A") (A') (A') (A") (A') (A") (A') (A') (A")
                 (A") (A') (A') (A") (A') (A") (A') (A') (A') (A')
                 (A') (A') (A') (A') (A') (A') (A') (A') (A') (A')
                 (A') (A') (A') (A') (A") (A') (A') (A') (A') (A")
                 (A') (A') (A') (A') (A') (A") (A") (A") (A') (A")
                 (A') (A") (A") (A') (A') (A") (A") (A") (A') (A')
                 (A") (A') (A') (A') (A') (A') (A') (A") (A") (A')
                 (A') (A') (A') (A") (A") (A') (A') (A") (A") (A")
                 (A') (A') (A') (A") (A') (A") (A') (A') (A') (A")
                 (A') (A") (A") (A') (A") (A') (A') (A") (A') (A')
                 (A') (A") (A') (A") (A') (A') (A") (A') (A") (A')
                 (A") (A') (A') (A') (A") (A') (A') (A') (A") (A")
                 (A') (A') (A') (A") (A') (A') (A") (A') (A") (A')
                 (A") (A') (A') (A") (A') (A') (A') (A') (A') (A')
                 (A") (A') (A') (A') (A') (A") (A") (A') (A") (A')
                 (A') (A') (A') (A') (A') (A") (A') (A') (A') (A')
                 (A') (A") (A') (A") (A") (A') (A") (A") (A') (A")
                 (A') (A") (A") (A') (A") (A") (A') (A') (A') (A')
                 (A') (A') (A') (A') (A') (A') (A') (A') (A') (A')
                 (A') (A') (A') (A") (A') (A') (A') (A') (A') (A')
                 (A') (A') (A') (A') (A') (A') (A') (A') (A') (A')
                 (A') (A') (A') (A') (A') (A') (A') (A') (A') (A')
                 (A') (A')
 The electronic state is 1-A'.
 Alpha  occ. eigenvalues --  -10.76075 -10.75797 -10.74904 -10.73332 -10.72354
 Alpha  occ. eigenvalues --  -10.71219 -10.71099 -10.70759 -10.70343 -10.69996
 Alpha  occ. eigenvalues --  -10.69180 -10.69060 -10.68565 -10.67465  -1.18108
 Alpha  occ. eigenvalues --   -1.12642  -1.08311  -1.06695  -1.02003  -1.01088
 Alpha  occ. eigenvalues --   -0.94840  -0.90117  -0.86572  -0.85485  -0.83628
 Alpha  occ. eigenvalues --   -0.77412  -0.77230  -0.74313  -0.71309  -0.69436
 Alpha  occ. eigenvalues --   -0.68590  -0.67950  -0.67076  -0.66160  -0.64035
 Alpha  occ. eigenvalues --   -0.62270  -0.62049  -0.61366  -0.57894  -0.57709
 Alpha  occ. eigenvalues --   -0.56115  -0.55522  -0.52431  -0.51730  -0.51569
 Alpha  occ. eigenvalues --   -0.46507  -0.39822
 Alpha virt. eigenvalues --   -0.26501  -0.14891  -0.13503  -0.12119  -0.11384
 Alpha virt. eigenvalues --   -0.10204  -0.09580  -0.07783  -0.07600  -0.07565
 Alpha virt. eigenvalues --   -0.07305  -0.06674  -0.05702  -0.05525  -0.05480
 Alpha virt. eigenvalues --   -0.04111  -0.03908  -0.03226  -0.03137  -0.02045
 Alpha virt. eigenvalues --   -0.01378  -0.01059   0.00020   0.00300   0.00697
 Alpha virt. eigenvalues --    0.01195   0.01343   0.01475   0.02001   0.02063
 Alpha virt. eigenvalues --    0.02466   0.02561   0.03086   0.03421   0.03438
 Alpha virt. eigenvalues --    0.04009   0.04492   0.05006   0.05186   0.05538
 Alpha virt. eigenvalues --    0.05915   0.06198   0.06223   0.07238   0.07379
 Alpha virt. eigenvalues --    0.07491   0.07834   0.07871   0.08405   0.08637
 Alpha virt. eigenvalues --    0.09224   0.09349   0.09832   0.10074   0.10234
 Alpha virt. eigenvalues --    0.11252   0.11363   0.11751   0.12174   0.12895
 Alpha virt. eigenvalues --    0.13329   0.13542   0.13651   0.13973   0.14455
 Alpha virt. eigenvalues --    0.15578   0.16200   0.16718   0.17299   0.17338
 Alpha virt. eigenvalues --    0.18082   0.19223   0.19508   0.20292   0.20994
 Alpha virt. eigenvalues --    0.21299   0.22062   0.22988   0.23555   0.24012
 Alpha virt. eigenvalues --    0.24433   0.25043   0.26103   0.27103   0.27585
 Alpha virt. eigenvalues --    0.29364   0.29635   0.30671   0.31418   0.35682
 Alpha virt. eigenvalues --    0.37245   0.38271   0.39245   0.39533   0.39899
 Alpha virt. eigenvalues --    0.40793   0.42261   0.43163   0.43509   0.44354
 Alpha virt. eigenvalues --    0.44909   0.45215   0.45391   0.46860   0.47030
 Alpha virt. eigenvalues --    0.47802   0.48026   0.49083   0.50586   0.51211
 Alpha virt. eigenvalues --    0.51476   0.52428   0.52432   0.53821   0.54388
 Alpha virt. eigenvalues --    0.54515   0.55079   0.55903   0.57794   0.58065
 Alpha virt. eigenvalues --    0.58531   0.61011   0.61925   0.62352   0.63402
 Alpha virt. eigenvalues --    0.63427   0.63541   0.64968   0.66002   0.68888
 Alpha virt. eigenvalues --    0.69443   0.70658   0.72517   0.73564   0.73906
 Alpha virt. eigenvalues --    0.74931   0.75615   0.76710   0.77109   0.77672
 Alpha virt. eigenvalues --    0.78512   0.79046   0.79425   0.80191   0.80631
 Alpha virt. eigenvalues --    0.81337   0.82456   0.83636   0.84279   0.85458
 Alpha virt. eigenvalues --    0.86004   0.88458   0.89224   0.90426   0.91084
 Alpha virt. eigenvalues --    0.91156   0.93099   0.94613   0.95180   0.96421
 Alpha virt. eigenvalues --    0.97562   0.98512   1.01138   1.02437   1.02727
 Alpha virt. eigenvalues --    1.04326   1.04629   1.06427   1.07951   1.10762
 Alpha virt. eigenvalues --    1.18582   1.20111   1.20916   1.23445   1.27310
 Alpha virt. eigenvalues --    1.32558   1.33759   1.33932   1.35772   1.36031
 Alpha virt. eigenvalues --    1.37727   1.38061   1.39526   1.41487   1.42287
 Alpha virt. eigenvalues --    1.44079   1.45525   1.45793   1.46695   1.48647
 Alpha virt. eigenvalues --    1.49585   1.50153   1.53084   1.53977   1.55834
 Alpha virt. eigenvalues --    1.56217   1.56563   1.57219   1.58431   1.60819
 Alpha virt. eigenvalues --    1.62106   1.64081   1.65360   1.65915   1.67926
 Alpha virt. eigenvalues --    1.68805   1.69695   1.70658   1.75043   1.76627
 Alpha virt. eigenvalues --    1.76955   1.77244   1.78973   1.80078   1.81188
 Alpha virt. eigenvalues --    1.82737   1.82780   1.83298   1.84046   1.85046
 Alpha virt. eigenvalues --    1.85388   1.87703   1.88346   1.88976   1.92418
 Alpha virt. eigenvalues --    1.93606   1.94159   1.97756   1.98342   1.99562
 Alpha virt. eigenvalues --    2.00609   2.03257   2.07321   2.08396   2.11665
 Alpha virt. eigenvalues --    2.14387   2.16338   2.17258   2.19266   2.22165
 Alpha virt. eigenvalues --    2.22184   2.26884   2.31523   2.32242   2.33367
 Alpha virt. eigenvalues --    2.36684   2.39032   2.39485   2.41739   2.42248
 Alpha virt. eigenvalues --    2.44966   2.46476   2.48335   2.53272   2.54709
 Alpha virt. eigenvalues --    2.55681   2.57860   2.58115   2.59647   2.60321
 Alpha virt. eigenvalues --    2.60882   2.61251   2.62468   2.62862   2.64241
 Alpha virt. eigenvalues --    2.64762   2.65459   2.66020   2.66661   2.67443
 Alpha virt. eigenvalues --    2.68941   2.70527   2.72065   2.74026   2.74700
 Alpha virt. eigenvalues --    2.75922   2.76119   2.79001   2.84009   2.84696
 Alpha virt. eigenvalues --    2.86718   2.86871   2.92522   2.96338   2.99125
 Alpha virt. eigenvalues --    3.00898   3.03242   3.03780   3.06927   3.11713
 Alpha virt. eigenvalues --    3.14818   3.17285   3.23775   3.29188   3.32356
 Alpha virt. eigenvalues --    3.34030   3.37214   3.43013   3.48443   3.51863
 Alpha virt. eigenvalues --    3.53222   3.58399   3.60670   3.60675   3.70804
 Alpha virt. eigenvalues --    3.73118   3.89304   3.89809   3.91221   3.96231
 Alpha virt. eigenvalues --    4.02014   4.03584   4.08095   4.11644   4.31314
 Alpha virt. eigenvalues --    4.52412   4.60075   4.62765  23.42873  23.54396
 Alpha virt. eigenvalues --   23.64336  23.65648  23.68278  23.88415  23.90968
 Alpha virt. eigenvalues --   23.92562  24.05699  24.19488  24.21885  24.28371
 Alpha virt. eigenvalues --   24.52370  24.61281
          Condensed to atoms (all electrons):
               1          2          3          4          5          6
     1  C    7.783203   0.805604  -0.718339   1.305667  -0.027617  -0.061261
     2  C    0.805604   7.706943   0.581893  -0.967636  -0.082249  -0.011074
     3  C   -0.718339   0.581893   6.883431   0.642447  -0.082919   0.016796
     4  C    1.305667  -0.967636   0.642447  13.902272  -0.492391  -0.229829
     5  C   -0.027617  -0.082249  -0.082919  -0.492391   9.388329   1.150624
     6  C   -0.061261  -0.011074   0.016796  -0.229829   1.150624   7.013185
     7  C   -0.069100  -0.019390  -0.009648   0.190707  -1.594028  -0.730954
     8  C    0.407840   0.045490  -0.131326  -0.342644   2.864705   0.569187
     9  C   -0.789484  -1.225389   0.249933   1.006983  -0.699105   0.351636
    10  C   -0.953026  -0.097508   0.032076  -3.137314  -1.717334  -0.759645
    11  C    0.664003  -0.279719   0.399234  -1.278398  -1.146775   0.232348
    12  C   -1.612689   0.400914  -1.634847  -2.178519   0.064685  -0.700846
    13  C    0.222582  -0.248219  -0.404144  -1.473182  -0.397348   1.293935
    14  C   -1.428171  -0.499051   0.250551  -1.347415  -1.501680  -2.001076
    15  H    0.370911  -0.103979  -0.005602   0.017048   0.006501   0.001553
    16  H   -0.017838   0.384252  -0.032570   0.028847  -0.002054  -0.000437
    17  H   -0.009537  -0.031828   0.394266  -0.071934   0.000063   0.000467
    18  H    0.040051   0.006701  -0.069942   0.545851   0.001765  -0.006051
    19  H   -0.030519  -0.008272   0.048441  -0.153223  -0.034674   0.059682
    20  H    0.004626   0.001861  -0.005787   0.010461   0.437051  -0.084459
    21  H   -0.001162  -0.000385   0.000352  -0.000573  -0.052729   0.344325
    22  H   -0.000455   0.000040  -0.000216   0.000146   0.000534  -0.006565
    23  H    0.010788   0.000705   0.000896  -0.004471   0.031677   0.025708
    24  H    0.044362   0.016791  -0.000967  -0.005098  -0.016089  -0.003207
    25  H    0.044362   0.016791  -0.000967  -0.005098  -0.016089  -0.003207
               7          8          9         10         11         12
     1  C   -0.069100   0.407840  -0.789484  -0.953026   0.664003  -1.612689
     2  C   -0.019390   0.045490  -1.225389  -0.097508  -0.279719   0.400914
     3  C   -0.009648  -0.131326   0.249933   0.032076   0.399234  -1.634847
     4  C    0.190707  -0.342644   1.006983  -3.137314  -1.278398  -2.178519
     5  C   -1.594028   2.864705  -0.699105  -1.717334  -1.146775   0.064685
     6  C   -0.730954   0.569187   0.351636  -0.759645   0.232348  -0.700846
     7  C    8.518537  -2.010695  -0.939671   0.727354  -0.794136   0.486761
     8  C   -2.010695  11.441533  -0.957425  -1.547851   0.798378  -1.095218
     9  C   -0.939671  -0.957425  10.172400   0.060525   0.961492  -2.699599
    10  C    0.727354  -1.547851   0.060525   8.755067   0.193989   2.222397
    11  C   -0.794136   0.798378   0.961492   0.193989  15.662250  -4.953885
    12  C    0.486761  -1.095218  -2.699599   2.222397  -4.953885  18.398569
    13  C   -0.949649  -0.126510   0.759402  -0.654640   0.260732  -3.406224
    14  C    3.361280  -4.457421  -0.766885   2.445218  -4.219552   2.283406
    15  H   -0.003433   0.002393   0.072626  -0.000763  -0.040690   0.032540
    16  H    0.000484   0.002259  -0.003648  -0.014904   0.023463  -0.022254
    17  H   -0.000308  -0.001685  -0.001978   0.018464  -0.010494   0.055296
    18  H    0.003417   0.004782  -0.008713  -0.021499  -0.015042  -0.058728
    19  H   -0.014554  -0.042522   0.064816   0.419935   0.103926  -0.188967
    20  H   -0.003993   0.065263  -0.027528   0.033544  -0.017665   0.022400
    21  H    0.036119  -0.063364  -0.005741   0.012353  -0.004079   0.000611
    22  H    0.359462  -0.012772  -0.001299  -0.001814  -0.003889   0.000089
    23  H   -0.144866   0.400997   0.110429  -0.016009   0.044979  -0.015231
    24  H    0.009450   0.004227   0.363604   0.007165   0.042925  -0.051145
    25  H    0.009450   0.004227   0.363604   0.007165   0.042925  -0.051145
              13         14         15         16         17         18
     1  C    0.222582  -1.428171   0.370911  -0.017838  -0.009537   0.040051
     2  C   -0.248219  -0.499051  -0.103979   0.384252  -0.031828   0.006701
     3  C   -0.404144   0.250551  -0.005602  -0.032570   0.394266  -0.069942
     4  C   -1.473182  -1.347415   0.017048   0.028847  -0.071934   0.545851
     5  C   -0.397348  -1.501680   0.006501  -0.002054   0.000063   0.001765
     6  C    1.293935  -2.001076   0.001553  -0.000437   0.000467  -0.006051
     7  C   -0.949649   3.361280  -0.003433   0.000484  -0.000308   0.003417
     8  C   -0.126510  -4.457421   0.002393   0.002259  -0.001685   0.004782
     9  C    0.759402  -0.766885   0.072626  -0.003648  -0.001978  -0.008713
    10  C   -0.654640   2.445218  -0.000763  -0.014904   0.018464  -0.021499
    11  C    0.260732  -4.219552  -0.040690   0.023463  -0.010494  -0.015042
    12  C   -3.406224   2.283406   0.032540  -0.022254   0.055296  -0.058728
    13  C   12.454883  -0.921083  -0.018450   0.005630  -0.006982  -0.012997
    14  C   -0.921083  14.363944   0.008993  -0.016083   0.007639  -0.068370
    15  H   -0.018450   0.008993   0.421698  -0.006702   0.001840   0.000199
    16  H    0.005630  -0.016083  -0.006702   0.399233  -0.006466   0.002337
    17  H   -0.006982   0.007639   0.001840  -0.006466   0.412531  -0.010781
    18  H   -0.012997  -0.068370   0.000199   0.002337  -0.010781   0.438936
    19  H    0.091649   0.055907   0.000721  -0.000683   0.002628  -0.006385
    20  H    0.006429  -0.112146  -0.000178   0.000036  -0.000225   0.001353
    21  H   -0.013907   0.095697   0.000032  -0.000008   0.000009  -0.000095
    22  H    0.013405  -0.007748  -0.000122   0.000007  -0.000005   0.000013
    23  H   -0.052136  -0.085069   0.000454  -0.000134   0.000001  -0.000133
    24  H   -0.036596  -0.040572  -0.000924   0.000554  -0.000104   0.000079
    25  H   -0.036596  -0.040572  -0.000924   0.000554  -0.000104   0.000079
              19         20         21         22         23         24
     1  C   -0.030519   0.004626  -0.001162  -0.000455   0.010788   0.044362
     2  C   -0.008272   0.001861  -0.000385   0.000040   0.000705   0.016791
     3  C    0.048441  -0.005787   0.000352  -0.000216   0.000896  -0.000967
     4  C   -0.153223   0.010461  -0.000573   0.000146  -0.004471  -0.005098
     5  C   -0.034674   0.437051  -0.052729   0.000534   0.031677  -0.016089
     6  C    0.059682  -0.084459   0.344325  -0.006565   0.025708  -0.003207
     7  C   -0.014554  -0.003993   0.036119   0.359462  -0.144866   0.009450
     8  C   -0.042522   0.065263  -0.063364  -0.012772   0.400997   0.004227
     9  C    0.064816  -0.027528  -0.005741  -0.001299   0.110429   0.363604
    10  C    0.419935   0.033544   0.012353  -0.001814  -0.016009   0.007165
    11  C    0.103926  -0.017665  -0.004079  -0.003889   0.044979   0.042925
    12  C   -0.188967   0.022400   0.000611   0.000089  -0.015231  -0.051145
    13  C    0.091649   0.006429  -0.013907   0.013405  -0.052136  -0.036596
    14  C    0.055907  -0.112146   0.095697  -0.007748  -0.085069  -0.040572
    15  H    0.000721  -0.000178   0.000032  -0.000122   0.000454  -0.000924
    16  H   -0.000683   0.000036  -0.000008   0.000007  -0.000134   0.000554
    17  H    0.002628  -0.000225   0.000009  -0.000005   0.000001  -0.000104
    18  H   -0.006385   0.001353  -0.000095   0.000013  -0.000133   0.000079
    19  H    0.461699  -0.010306   0.000669  -0.000462   0.000324   0.000545
    20  H   -0.010306   0.471527  -0.007912   0.001709  -0.000709   0.000364
    21  H    0.000669  -0.007912   0.425427  -0.003149   0.000631  -0.000151
    22  H   -0.000462   0.001709  -0.003149   0.430840  -0.008323   0.000652
    23  H    0.000324  -0.000709   0.000631  -0.008323   0.467814  -0.000440
    24  H    0.000545   0.000364  -0.000151   0.000652  -0.000440   0.482932
    25  H    0.000545   0.000364  -0.000151   0.000652  -0.000440  -0.074119
              25
     1  C    0.044362
     2  C    0.016791
     3  C   -0.000967
     4  C   -0.005098
     5  C   -0.016089
     6  C   -0.003207
     7  C    0.009450
     8  C    0.004227
     9  C    0.363604
    10  C    0.007165
    11  C    0.042925
    12  C   -0.051145
    13  C   -0.036596
    14  C   -0.040572
    15  H   -0.000924
    16  H    0.000554
    17  H   -0.000104
    18  H    0.000079
    19  H    0.000545
    20  H    0.000364
    21  H   -0.000151
    22  H    0.000652
    23  H   -0.000440
    24  H   -0.074119
    25  H    0.482932
 Mulliken charges:
               1
     1  C    0.015198
     2  C   -0.393286
     3  C   -0.403040
     4  C    0.037296
     5  C   -0.082856
     6  C   -0.460834
     7  C   -0.418594
     8  C    0.178151
     9  C   -0.410985
    10  C   -0.012948
    11  C   -0.666320
    12  C    0.701626
    13  C   -0.349981
    14  C    0.640258
    15  H    0.244254
    16  H    0.276123
    17  H    0.259229
    18  H    0.233171
    19  H    0.179080
    20  H    0.213920
    21  H    0.237181
    22  H    0.239272
    23  H    0.232559
    24  H    0.255762
    25  H    0.255762
 Sum of Mulliken charges =   1.00000
 Mulliken charges with hydrogens summed into heavy atoms:
               1
     1  C    0.259452
     2  C   -0.117162
     3  C   -0.143811
     4  C    0.270467
     5  C    0.131065
     6  C   -0.223653
     7  C   -0.179322
     8  C    0.410710
     9  C    0.100540
    10  C    0.166132
    11  C   -0.666320
    12  C    0.701626
    13  C   -0.349981
    14  C    0.640258
 Electronic spatial extent (au):  <R**2>=           2858.5655
 Charge=              1.0000 electrons
 Dipole moment (field-independent basis, Debye):
    X=             -2.0168    Y=             -3.6462    Z=             -0.0000  Tot=              4.1669
 Quadrupole moment (field-independent basis, Debye-Ang):
   XX=            -52.0500   YY=            -33.6403   ZZ=            -83.9003
   XY=             10.2682   XZ=             -0.0000   YZ=              0.0000
 Traceless Quadrupole moment (field-independent basis, Debye-Ang):
   XX=              4.4802   YY=             22.8899   ZZ=            -27.3701
   XY=             10.2682   XZ=             -0.0000   YZ=              0.0000
 Octapole moment (field-independent basis, Debye-Ang**2):
  XXX=            -14.5322  YYY=            -29.9505  ZZZ=              0.0000  XYY=            -11.8005
  XXY=            -17.8246  XXZ=             -0.0000  XZZ=             -5.7060  YZZ=             -4.4078
  YYZ=              0.0000  XYZ=             -0.0000
 Hexadecapole moment (field-independent basis, Debye-Ang**3):
 XXXX=           -927.7114 YYYY=          -1888.6612 ZZZZ=            -98.9328 XXXY=           -323.0211
 XXXZ=             -0.0000 YYYX=           -245.8851 YYYZ=              0.0000 ZZZX=              0.0000
 ZZZY=              0.0000 XXYY=           -453.9931 XXZZ=           -226.5982 YYZZ=           -507.6981
 XXYZ=              0.0000 YYXZ=             -0.0000 ZZXY=           -171.0242
 N-N= 7.822973411835D+02 E-N=-2.801293122194D+03  KE= 5.380859949230D+02
 Symmetry A'   KE= 5.233035164915D+02
 Symmetry A"   KE= 1.478247843150D+01
 Unable to Open any file for archive entry.
 1\1\GINC-GADI-CPU-CLX-0240\SP\RM062X TD-FC\6-311++G(d,p)\C14H11(1+)\TS
 1578\02-Aug-2022\0\\#n M062X/6-311++G(d,p) TD(NStates=1) EmpiricalDisp
 ersion=GD3 SP\\SP_6\\1,1\C,0,0.,2.396655,1.360431\C,0,0.,3.593508,0.62
 3989\C,0,0.,3.629861,-0.80983\C,0,0.,2.583156,-1.455538\C,0,0.,-2.3431
 56,-1.359538\C,0,0.,-3.737861,-0.61783\C,0,0.,-3.809508,0.719989\C,0,0
 .,-2.588655,1.360431\C,0,0.,-0.048,1.453369\C,0,0.,0.174,-1.429189\C,0
 ,0.,1.316055,0.743065\C,0,0.,1.291471,-0.736804\C,0,0.,-1.208055,0.611
 065\C,0,0.,-1.183471,-0.724804\H,0,0.,2.458071,2.443647\H,0,0.,4.52875
 3,1.169689\H,0,0.,4.603262,-1.284349\H,0,0.,2.52155,-2.538059\H,0,0.,0
 .15,-2.510266\H,0,0.,-2.41355,-2.442059\H,0,0.,-4.615262,-1.260349\H,0
 ,0.,-4.744753,1.253689\H,0,0.,-2.518071,2.443647\H,0,-0.859585,-0.264,
 2.145787\H,0,0.859585,-0.264,2.145787\\Version=ES64L-G16RevC.01\State=
 1-A'\HF=-539.6285858\RMSD=5.044e-09\PG=CS [SG(C14H9),X(H2)]\\@
 The archive entry for this job was punched.


 WE'RE IN THE POSITION OF A VISITOR FROM ANOTHER
 DIMENSION WHO COMES TO EARTH AND SEES A CHESS MATCH.
 ASSUMING HE KNOWS IT'S A GAME, HE'S GOT TWO PROBLEMS:
 FIRST, FIGURE OUT THE RULES, AND SECOND, FIGURE OUT HOW TO WIN.
 NINETY PERCENT OF SCIENCE (INCLUDING VIRTUALLY ALL OF CHEMISRY)
 IS IN THAT SECOND CATEGORY.  THEY'RE TRYING TO APPLY
 THE LAWS THAT ARE ALREADY KNOWN.

                     -- SHELDON GLASHOW, 1979
 Job cpu time:       0 days  0 hours 53 minutes 55.8 seconds.
 Elapsed time:       0 days  0 hours  1 minutes  7.7 seconds.
 File lengths (MBytes):  RWF=    460 Int=      0 D2E=      0 Chk=     15 Scr=      1
 Normal termination of Gaussian 16 at Tue Aug  2 13:03:00 2022.
