 Entering Gaussian System, Link 0=g16
 Initial command:
 /apps/gaussian/g16c01/g16/l1.exe "/jobfs/53803565.gadi-pbs/Gau-1071381.inp" -scrdir="/jobfs/53803565.gadi-pbs/"
 Entering Link 1 = /apps/gaussian/g16c01/g16/l1.exe PID=   1071382.
  
 Copyright (c) 1988-2019, Gaussian, Inc.  All Rights Reserved.
  
 This is part of the Gaussian(R) 16 program.  It is based on
 the Gaussian(R) 09 system (copyright 2009, Gaussian, Inc.),
 the Gaussian(R) 03 system (copyright 2003, Gaussian, Inc.),
 the Gaussian(R) 98 system (copyright 1998, Gaussian, Inc.),
 the Gaussian(R) 94 system (copyright 1995, Gaussian, Inc.),
 the Gaussian 92(TM) system (copyright 1992, Gaussian, Inc.),
 the Gaussian 90(TM) system (copyright 1990, Gaussian, Inc.),
 the Gaussian 88(TM) system (copyright 1988, Gaussian, Inc.),
 the Gaussian 86(TM) system (copyright 1986, Carnegie Mellon
 University), and the Gaussian 82(TM) system (copyright 1983,
 Carnegie Mellon University). Gaussian is a federally registered
 trademark of Gaussian, Inc.
  
 This software contains proprietary and confidential information,
 including trade secrets, belonging to Gaussian, Inc.
  
 This software is provided under written license and may be
 used, copied, transmitted, or stored only in accord with that
 written license.
  
 The following legend is applicable only to US Government
 contracts under FAR:
  
                    RESTRICTED RIGHTS LEGEND
  
 Use, reproduction and disclosure by the US Government is
 subject to restrictions as set forth in subparagraphs (a)
 and (c) of the Commercial Computer Software - Restricted
 Rights clause in FAR 52.227-19.
  
 Gaussian, Inc.
 340 Quinnipiac St., Bldg. 40, Wallingford CT 06492
  
  
 ---------------------------------------------------------------
 Warning -- This program may not be used in any manner that
 competes with the business of Gaussian, Inc. or will provide
 assistance to any competitor of Gaussian, Inc.  The licensee
 of this program is prohibited from giving any competitor of
 Gaussian, Inc. access to this program.  By using this program,
 the user acknowledges that Gaussian, Inc. is engaged in the
 business of creating and licensing software in the field of
 computational chemistry and represents and warrants to the
 licensee that it is not a competitor of Gaussian, Inc. and that
 it will not use this program in any manner prohibited above.
 ---------------------------------------------------------------
  

 Cite this work as:
 Gaussian 16, Revision C.01,
 M. J. Frisch, G. W. Trucks, H. B. Schlegel, G. E. Scuseria, 
 M. A. Robb, J. R. Cheeseman, G. Scalmani, V. Barone, 
 G. A. Petersson, H. Nakatsuji, X. Li, M. Caricato, A. V. Marenich, 
 J. Bloino, B. G. Janesko, R. Gomperts, B. Mennucci, H. P. Hratchian, 
 J. V. Ortiz, A. F. Izmaylov, J. L. Sonnenberg, D. Williams-Young, 
 F. Ding, F. Lipparini, F. Egidi, J. Goings, B. Peng, A. Petrone, 
 T. Henderson, D. Ranasinghe, V. G. Zakrzewski, J. Gao, N. Rega, 
 G. Zheng, W. Liang, M. Hada, M. Ehara, K. Toyota, R. Fukuda, 
 J. Hasegawa, M. Ishida, T. Nakajima, Y. Honda, O. Kitao, H. Nakai, 
 T. Vreven, K. Throssell, J. A. Montgomery, Jr., J. E. Peralta, 
 F. Ogliaro, M. J. Bearpark, J. J. Heyd, E. N. Brothers, K. N. Kudin, 
 V. N. Staroverov, T. A. Keith, R. Kobayashi, J. Normand, 
 K. Raghavachari, A. P. Rendell, J. C. Burant, S. S. Iyengar, 
 J. Tomasi, M. Cossi, J. M. Millam, M. Klene, C. Adamo, R. Cammi, 
 J. W. Ochterski, R. L. Martin, K. Morokuma, O. Farkas, 
 J. B. Foresman, and D. J. Fox, Gaussian, Inc., Wallingford CT, 2019.
 
 ******************************************
 Gaussian 16:  ES64L-G16RevC.01  3-Jul-2019
                 2-Aug-2022 
 ******************************************
 %NProcShared=48
 Will use up to   48 processors via shared memory.
 %mem = 190GB
 ---------------------------------------------------------------
 #n M062X/6-311++G(d,p) TD(NStates=1) EmpiricalDispersion=GD3 SP
 ---------------------------------------------------------------
 1/38=1,172=1/1;
 2/12=2,17=6,18=5,40=1/2;
 3/5=4,6=6,7=1111,11=9,25=1,30=1,74=-55,124=31/1,2,3,8;
 4//1;
 5/5=2,38=5/2;
 8/6=1,10=2,108=1/1;
 9/41=1,42=1,70=2/14;
 6/7=2,8=2,9=2,10=2/1;
 99/5=1,9=1/99;
 -----
 SP_12
 -----
 Symbolic Z-matrix:
 Charge =  1 Multiplicity = 1
 C                     0.        2.32666   1.38243 
 C                     0.        3.49551   0.56599 
 C                     0.        3.55986  -0.91783 
 C                     0.        2.67916  -1.48554 
 C                     0.       -2.24716  -1.32954 
 C                     0.       -3.80786  -0.50983 
 C                     0.       -3.90751   0.77799 
 C                     0.       -2.65866   1.33843 
 C                     0.       -0.104     1.45337 
 C                     0.        0.36     -1.42919 
 C                     0.        1.38206   0.85107 
 C                     0.        1.33747  -0.7048 
 C                     0.       -1.14206   0.50307 
 C                     0.       -1.13747  -0.7568 
 H                     0.        2.48207   2.46565 
 H                     0.        4.44475   1.09369 
 H                     0.        4.56926  -1.32635 
 H                     0.        2.52355  -2.56806 
 H                     0.        0.362    -2.51027 
 H                     0.       -2.41155  -2.41206 
 H                     0.       -4.64926  -1.21835 
 H                     0.       -4.82875   1.32969 
 H                     0.       -2.49407   2.42165 
 H                    -0.85959  -0.576     2.14579 
 H                     0.85959  -0.576     2.14579 
 
                          Input orientation:                          
 ---------------------------------------------------------------------
 Center     Atomic      Atomic             Coordinates (Angstroms)
 Number     Number       Type             X           Y           Z
 ---------------------------------------------------------------------
      1          6           0        0.000000    2.326655    1.382431
      2          6           0        0.000000    3.495508    0.565989
      3          6           0        0.000000    3.559861   -0.917830
      4          6           0        0.000000    2.679156   -1.485538
      5          6           0        0.000000   -2.247156   -1.329538
      6          6           0        0.000000   -3.807861   -0.509830
      7          6           0        0.000000   -3.907508    0.777989
      8          6           0        0.000000   -2.658655    1.338431
      9          6           0        0.000000   -0.104000    1.453369
     10          6           0        0.000000    0.360000   -1.429189
     11          6           0        0.000000    1.382055    0.851065
     12          6           0        0.000000    1.337471   -0.704804
     13          6           0        0.000000   -1.142055    0.503065
     14          6           0        0.000000   -1.137471   -0.756804
     15          1           0        0.000000    2.482071    2.465647
     16          1           0        0.000000    4.444753    1.093689
     17          1           0        0.000000    4.569262   -1.326349
     18          1           0        0.000000    2.523550   -2.568059
     19          1           0        0.000000    0.362000   -2.510266
     20          1           0        0.000000   -2.411550   -2.412059
     21          1           0        0.000000   -4.649262   -1.218349
     22          1           0        0.000000   -4.828753    1.329689
     23          1           0        0.000000   -2.494071    2.421647
     24          1           0       -0.859585   -0.576000    2.145787
     25          1           0        0.859585   -0.576000    2.145787
 ---------------------------------------------------------------------
                    Distance matrix (angstroms):
                    1          2          3          4          5
     1  C    0.000000
     2  C    1.425761   0.000000
     3  C    2.609980   1.485214   0.000000
     4  C    2.889551   2.207984   1.047823   0.000000
     5  C    5.317379   6.047414   5.821593   4.928781   0.000000
     6  C    6.419730   7.382180   7.379010   6.559984   1.762873
     7  C    6.263397   7.406051   7.657506   6.964747   2.682991
     8  C    4.985504   6.202450   6.615184   6.038794   2.699517
     9  C    2.431690   3.707277   4.364225   4.047608   3.512505
    10  C    3.431172   3.716470   3.240463   2.319840   2.609060
    11  C    1.083798   2.132593   2.805678   2.672487   4.233935
    12  C    2.309769   2.504404   2.232576   1.552309   3.638660
    13  C    3.578440   4.637990   4.911920   4.307690   2.140019
    14  C    4.071424   4.818120   4.700091   3.885575   1.248769
    15  H    1.094308   2.153080   3.550993   3.956097   6.063746
    16  H    2.137688   1.086063   2.197554   3.125659   7.117140
    17  H    3.516643   2.175751   1.088934   1.896798   6.816419
    18  H    3.955394   3.281304   1.948640   1.093648   4.928851
    19  H    4.360385   4.391152   3.572418   2.533630   2.863881
    20  H    6.070316   6.615293   6.155524   5.174334   1.094932
    21  H    7.444963   8.337934   8.214622   7.333287   2.404678
    22  H    7.155602   8.359220   8.684480   8.018366   3.706229
    23  H    4.931467   6.270448   6.913913   6.482929   3.759303
    24  H    3.122019   4.451048   5.218235   4.951914   3.950890
    25  H    3.122019   4.451048   5.218235   4.951914   3.950890
                    6          7          8          9         10
     6  C    0.000000
     7  C    1.291668   0.000000
     8  C    2.176406   1.368842   0.000000
     9  C    4.191985   3.863005   2.557239   0.000000
    10  C    4.268054   4.804504   4.095363   2.919664   0.000000
    11  C    5.365376   5.290068   4.069995   1.603474   2.498831
    12  C    5.149025   5.450549   4.488188   2.595294   1.216628
    13  C    2.851750   2.779085   1.731448   1.407351   2.447402
    14  C    2.681787   3.166811   2.589210   2.439862   1.641500
    15  H    6.958212   6.608700   5.262859   2.777133   4.435418
    16  H    8.406956   8.358225   7.107623   4.562951   4.801054
    17  H    8.416822   8.734064   7.703495   5.437482   4.210518
    18  H    6.657558   7.249451   6.489677   4.803738   2.444989
    19  H    4.624877   5.389000   4.892527   3.990935   1.081079
    20  H    2.359695   3.523393   3.758622   4.501813   2.940667
    21  H    1.099979   2.129686   3.240315   5.272332   5.013697
    22  H    2.103818   1.073809   2.170116   4.726372   5.876612
    23  H    3.212414   2.167814   1.095648   2.578760   4.793189
    24  H    4.270376   3.702527   2.393358   1.200464   3.794132
    25  H    4.270376   3.702527   2.393358   1.200464   3.794132
                   11         12         13         14         15
    11  C    0.000000
    12  C    1.556508   0.000000
    13  C    2.547987   2.758078   0.000000
    14  C    2.988855   2.475488   1.259877   0.000000
    15  H    1.953691   3.370737   4.121410   4.846161   0.000000
    16  H    3.072293   3.590234   5.617941   5.880948   2.394659
    17  H    3.859977   3.291017   5.997157   5.735084   4.328464
    18  H    3.604639   2.208733   4.782098   4.084571   5.033877
    19  H    3.512700   2.052130   3.367840   2.307172   5.408735
    20  H    5.003940   4.119451   3.179554   2.088815   6.909381
    21  H    6.376461   6.008719   3.906887   3.541991   8.026689
    22  H    6.229223   6.493187   3.778234   4.240167   7.398550
    23  H    4.182234   4.945241   2.347105   3.455852   4.976337
    24  H    2.499834   3.539227   1.938515   3.078826   3.192647
    25  H    2.499834   3.539227   1.938515   3.078826   3.192647
                   16         17         18         19         20
    16  H    0.000000
    17  H    2.423239   0.000000
    18  H    4.135144   2.393069   0.000000
    19  H    5.445857   4.370665   2.162322   0.000000
    20  H    7.700595   7.064737   4.937565   2.775288   0.000000
    21  H    9.383316   9.219157   7.298695   5.175113   2.536198
    22  H    9.276508   9.766126   8.321586   6.456715   4.454610
    23  H    7.064754   7.996133   7.076276   5.699202   4.834410
    24  H    5.201323   6.266445   5.706701   4.826755   4.988195
    25  H    5.201323   6.266445   5.706701   4.826755   4.988195
                   21         22         23         24         25
    21  H    0.000000
    22  H    2.554352   0.000000
    23  H    4.230180   2.577424   0.000000
    24  H    5.352360   4.414840   2.119901   0.000000
    25  H    5.352360   4.414840   2.119901   1.719170   0.000000
 Stoichiometry    C14H11(1+)
 Framework group  CS[SG(C14H9),X(H2)]
 Deg. of freedom    46
 Full point group                 CS      NOp   2
 Largest Abelian subgroup         CS      NOp   2
 Largest concise Abelian subgroup CS      NOp   2
                         Standard orientation:                         
 ---------------------------------------------------------------------
 Center     Atomic      Atomic             Coordinates (Angstroms)
 Number     Number       Type             X           Y           Z
 ---------------------------------------------------------------------
      1          6           0       -2.206288   -1.572673    0.000000
      2          6           0       -1.931916   -2.971785    0.000000
      3          6           0       -0.600700   -3.630362    0.000000
      4          6           0        0.274527   -3.054245    0.000000
      5          6           0        2.122901    1.514825    0.000000
      6          6           0        2.003916    3.273678    0.000000
      7          6           0        0.866243    3.885321    0.000000
      8          6           0       -0.151133    2.969528    0.000000
      9          6           0       -1.288778    0.679280    0.000000
     10          6           0        1.160318   -0.910175    0.000000
     11          6           0       -1.338478   -0.923424    0.000000
     12          6           0        0.102670   -1.511478    0.000000
     13          6           0        0.000000    1.244689    0.000000
     14          6           0        1.150530    0.731295    0.000000
     15          1           0       -3.259903   -1.277027    0.000000
     16          1           0       -2.798251   -3.626764    0.000000
     17          1           0       -0.635003   -4.718756    0.000000
     18          1           0        1.327583   -3.349436    0.000000
     19          1           0        2.148353   -1.348943    0.000000
     20          1           0        3.179509    1.227672    0.000000
     21          1           0        2.992056    3.756933    0.000000
     22          1           0        0.733950    4.950949    0.000000
     23          1           0       -1.208453    3.256788    0.000000
     24          1           0       -1.731354    1.390865    0.859585
     25          1           0       -1.731354    1.390865   -0.859585
 ---------------------------------------------------------------------
 Rotational constants (GHZ):           2.1435437           0.4410005           0.3665428
 Standard basis: 6-311++G(d,p) (5D, 7F)
 There are   299 symmetry adapted cartesian basis functions of A'  symmetry.
 There are   100 symmetry adapted cartesian basis functions of A"  symmetry.
 There are   285 symmetry adapted basis functions of A'  symmetry.
 There are   100 symmetry adapted basis functions of A"  symmetry.
   385 basis functions,   603 primitive gaussians,   399 cartesian basis functions
    47 alpha electrons       47 beta electrons
       nuclear repulsion energy       785.4441102113 Hartrees.
 NAtoms=   25 NActive=   25 NUniq=   24 SFac= 1.09D+00 NAtFMM=   60 NAOKFM=F Big=F
 Integral buffers will be    131072 words long.
 Regular integral format.
 Two-electron integral symmetry is turned on.
 Nuclear repulsion after empirical dispersion term =      785.4431559188 Hartrees.
 One-electron integrals computed using PRISM.
 NBasis=   385 RedAO= T EigKep=  1.16D-06  NBF=   285   100
 NBsUse=   379 1.00D-06 EigRej=  6.76D-07 NBFU=   279   100
 ExpMin= 3.60D-02 ExpMax= 4.56D+03 ExpMxC= 6.82D+02 IAcc=3 IRadAn=         5 AccDes= 0.00D+00
 Harris functional with IExCor= 1009 and IRadAn=       5 diagonalized for initial guess.
 HarFok:  IExCor= 1009 AccDes= 0.00D+00 IRadAn=         5 IDoV= 1 UseB2=F ITyADJ=14
 ICtDFT=  3500011 ScaDFX=  1.000000  1.000000  1.000000  1.000000
 FoFCou: FMM=F IPFlag=           0 FMFlag=      100000 FMFlg1=           0
         NFxFlg=           0 DoJE=T BraDBF=F KetDBF=T FulRan=T
         wScrn=  0.000000 ICntrl=       500 IOpCl=  0 I1Cent=   200000004 NGrid=           0
         NMat0=    1 NMatS0=      1 NMatT0=    0 NMatD0=    1 NMtDS0=    0 NMtDT0=    0
 Petite list used in FoFCou.
 Initial guess orbital symmetries:
       Occupied  (A') (A') (A') (A') (A') (A') (A') (A') (A') (A')
                 (A') (A') (A') (A') (A') (A') (A') (A') (A') (A')
                 (A') (A') (A') (A') (A') (A') (A') (A') (A') (A')
                 (A') (A') (A") (A') (A') (A") (A') (A") (A') (A')
                 (A') (A") (A") (A') (A") (A') (A")
       Virtual   (A") (A") (A") (A") (A') (A") (A') (A') (A') (A')
                 (A') (A') (A") (A') (A") (A') (A') (A") (A') (A')
                 (A') (A') (A") (A') (A') (A") (A') (A") (A') (A")
                 (A') (A') (A') (A') (A") (A') (A') (A') (A") (A')
                 (A") (A') (A") (A') (A') (A') (A') (A') (A') (A')
                 (A") (A') (A") (A") (A') (A') (A") (A') (A") (A')
                 (A') (A') (A') (A') (A") (A') (A') (A') (A") (A')
                 (A') (A') (A') (A') (A') (A') (A') (A') (A') (A')
                 (A') (A') (A') (A') (A') (A') (A') (A') (A') (A')
                 (A') (A') (A") (A') (A') (A") (A') (A') (A") (A')
                 (A') (A") (A') (A') (A") (A") (A') (A') (A") (A')
                 (A") (A") (A") (A') (A') (A") (A') (A') (A') (A")
                 (A") (A') (A') (A') (A") (A') (A') (A") (A') (A')
                 (A') (A') (A') (A') (A') (A') (A') (A') (A") (A')
                 (A') (A') (A') (A') (A") (A') (A') (A') (A') (A')
                 (A") (A') (A') (A") (A") (A') (A') (A') (A") (A")
                 (A") (A') (A") (A') (A") (A') (A") (A') (A') (A')
                 (A") (A') (A') (A') (A') (A') (A') (A") (A') (A")
                 (A') (A") (A') (A") (A') (A") (A') (A') (A") (A')
                 (A") (A') (A") (A') (A') (A') (A") (A') (A') (A")
                 (A") (A') (A") (A') (A") (A") (A') (A') (A') (A")
                 (A') (A') (A') (A") (A') (A') (A') (A") (A') (A")
                 (A') (A") (A') (A") (A') (A') (A') (A') (A") (A')
                 (A") (A') (A") (A') (A') (A') (A") (A") (A') (A")
                 (A') (A') (A') (A') (A") (A') (A') (A') (A') (A")
                 (A') (A') (A') (A") (A") (A') (A') (A") (A') (A")
                 (A') (A') (A") (A') (A') (A') (A') (A') (A") (A")
                 (A') (A") (A') (A') (A') (A") (A') (A") (A') (A')
                 (A') (A") (A") (A') (A') (A") (A") (A') (A') (A')
                 (A') (A') (A') (A') (A') (A') (A') (A') (A") (A')
                 (A') (A') (A') (A') (A') (A') (A') (A') (A') (A')
                 (A') (A') (A') (A') (A') (A') (A') (A') (A') (A')
                 (A') (A') (A') (A') (A') (A') (A') (A') (A') (A')
                 (A') (A')
 The electronic state of the initial guess is 1-A'.
 Requested convergence on RMS density matrix=1.00D-08 within 128 cycles.
 Requested convergence on MAX density matrix=1.00D-06.
 Requested convergence on             energy=1.00D-06.
 No special actions if energy rises.
 SCF Done:  E(RM062X) =  -539.132245364     A.U. after   17 cycles
            NFock= 17  Conv=0.82D-08     -V/T= 1.9985
 DoSCS=F DFT=T ScalE2(SS,OS)=  1.000000  1.000000
 ExpMin= 3.60D-02 ExpMax= 4.56D+03 ExpMxC= 6.82D+02 IAcc=3 IRadAn=         5 AccDes= 0.00D+00
 HarFok:  IExCor=  205 AccDes= 0.00D+00 IRadAn=         5 IDoV=-2 UseB2=F ITyADJ=14
 ICtDFT= 12500011 ScaDFX=  1.000000  1.000000  1.000000  1.000000
 Range of M.O.s used for correlation:    15   379
 NBasis=   385 NAE=    47 NBE=    47 NFC=    14 NFV=     0
 NROrb=    365 NOA=    33 NOB=    33 NVA=   332 NVB=   332

 **** Warning!!: The largest alpha MO coefficient is  0.21995310D+03


 **** Warning!!: The smallest alpha delta epsilon is  0.87657509D-01

 Orbital symmetries:
       Occupied  (A') (A') (A') (A') (A') (A') (A') (A') (A') (A')
                 (A') (A') (A') (A') (A') (A') (A') (A') (A') (A')
                 (A') (A') (A') (A') (A') (A') (A') (A') (A') (A')
                 (A') (A") (A') (A') (A") (A') (A') (A') (A") (A')
                 (A") (A') (A") (A') (A") (A') (A")
       Virtual   (A") (A") (A") (A') (A') (A') (A") (A') (A') (A")
                 (A') (A") (A') (A') (A") (A') (A") (A') (A') (A')
                 (A") (A') (A") (A') (A') (A') (A') (A') (A') (A")
                 (A") (A') (A") (A') (A') (A') (A') (A") (A') (A")
                 (A') (A") (A') (A') (A') (A") (A') (A') (A") (A')
                 (A") (A') (A') (A') (A") (A') (A') (A") (A') (A')
                 (A') (A') (A') (A") (A') (A') (A") (A') (A') (A')
                 (A') (A') (A') (A') (A') (A') (A') (A') (A') (A')
                 (A') (A') (A') (A') (A') (A') (A') (A') (A') (A')
                 (A") (A') (A') (A") (A') (A') (A') (A') (A") (A')
                 (A") (A') (A") (A') (A') (A") (A") (A') (A") (A')
                 (A') (A") (A') (A") (A') (A') (A") (A") (A') (A")
                 (A') (A') (A') (A') (A") (A") (A') (A') (A') (A')
                 (A') (A') (A') (A') (A') (A') (A') (A') (A') (A')
                 (A') (A') (A') (A") (A') (A') (A') (A") (A') (A')
                 (A') (A') (A") (A') (A') (A") (A') (A") (A") (A')
                 (A") (A') (A") (A') (A") (A') (A") (A") (A') (A')
                 (A") (A') (A') (A') (A') (A') (A') (A') (A") (A")
                 (A') (A") (A") (A') (A') (A") (A') (A") (A') (A')
                 (A") (A") (A') (A') (A') (A") (A') (A') (A") (A')
                 (A") (A') (A") (A') (A") (A') (A") (A') (A') (A")
                 (A') (A') (A') (A") (A') (A') (A') (A') (A") (A')
                 (A") (A') (A") (A') (A") (A') (A') (A") (A') (A')
                 (A") (A') (A') (A") (A') (A') (A") (A") (A') (A")
                 (A') (A') (A') (A') (A") (A') (A') (A') (A') (A")
                 (A') (A') (A') (A') (A') (A") (A') (A') (A") (A')
                 (A') (A') (A") (A') (A") (A') (A') (A') (A') (A")
                 (A') (A') (A") (A") (A") (A") (A') (A') (A") (A')
                 (A') (A") (A") (A') (A') (A") (A") (A') (A') (A')
                 (A') (A') (A') (A') (A') (A') (A') (A') (A") (A')
                 (A') (A') (A') (A') (A') (A') (A') (A') (A') (A')
                 (A') (A') (A') (A') (A') (A') (A') (A') (A') (A')
                 (A') (A') (A') (A') (A') (A') (A') (A') (A') (A')
                 (A') (A')
     4 initial guesses have been made.
 Convergence on wavefunction:    0.001000000000000
 Iteration     1 Dimension     4 NMult     0 NNew      4
 CISAX will form     4 AO SS matrices at one time.
 Iteration     2 Dimension     6 NMult     4 NNew      2
 Iteration     3 Dimension     8 NMult     6 NNew      2
 Iteration     4 Dimension    10 NMult     8 NNew      2
 Iteration     5 Dimension    12 NMult    10 NNew      2
 Iteration     6 Dimension    14 NMult    12 NNew      2
 ***********************************************************************
 Excited states from <AA,BB:AA,BB> singles matrix:
 ***********************************************************************
 
 Ground to excited state transition densities written to RWF  633
 Ground to excited state transition electric dipole moments (Au):
       state          X           Y           Z        Dip. S.      Osc.
         1         0.5840      1.7472      0.0000      3.3938      0.0893
 Ground to excited state transition velocity dipole moments (Au):
       state          X           Y           Z        Dip. S.      Osc.
         1        -0.0173     -0.0665     -0.0000      0.0047      0.0798
 Ground to excited state transition magnetic dipole moments (Au):
       state          X           Y           Z
         1        -0.0000     -0.0000      0.4501
 Ground to excited state transition velocity quadrupole moments (Au):
       state          XX          YY          ZZ          XY          XZ          YZ
         1         0.0172      0.0331     -0.0048      0.0586      0.0000      0.0000
 <0|del|b> * <b|rxdel|0> + <0|del|b> * <b|delr+rdel|0>
 Rotatory Strengths (R) in cgs (10**-40 erg-esu-cm/Gauss)
       state          XX          YY          ZZ    R(velocity)    E-M Angle
         1         0.0000     -0.0000     -0.0000     -0.0000       90.00
 1/2[<0|r|b>*<b|rxdel|0> + (<0|rxdel|b>*<b|r|0>)*]
 Rotatory Strengths (R) in cgs (10**-40 erg-esu-cm/Gauss)
       state          XX          YY          ZZ     R(length)
         1         0.0000      0.0000     -0.0000      0.0000
  1/2[<0|del|b>*<b|r|0> + (<0|r|b>*<b|del|0>)*] (Au)
       state          X           Y           Z        Dip. S.   Osc.(frdel)
         1        -0.0101     -0.1162     -0.0000      0.1263      0.0842

 Excitation energies and oscillator strengths:
 
 Excited State   1:      Singlet-A'     1.0738 eV 1154.60 nm  f=0.0893  <S**2>=0.000
      47 -> 48         0.71557
      47 <- 48        -0.14704
 This state for optimization and/or second-order correction.
 Total Energy, E(TD-HF/TD-DFT) =  -539.092782874    
 Copying the excited state density for this state as the 1-particle RhoCI density.
 SavETr:  write IOETrn=   770 NScale= 10 NData=  16 NLR=1 NState=    1 LETran=      28.

 **********************************************************************

            Population analysis using the SCF Density.

 **********************************************************************

 Orbital symmetries:
       Occupied  (A') (A') (A') (A') (A') (A') (A') (A') (A') (A')
                 (A') (A') (A') (A') (A') (A') (A') (A') (A') (A')
                 (A') (A') (A') (A') (A') (A') (A') (A') (A') (A')
                 (A') (A") (A') (A') (A") (A') (A') (A') (A") (A')
                 (A") (A') (A") (A') (A") (A') (A")
       Virtual   (A") (A") (A") (A') (A') (A') (A") (A') (A') (A")
                 (A') (A") (A') (A') (A") (A') (A") (A') (A') (A')
                 (A") (A') (A") (A') (A') (A') (A') (A') (A') (A")
                 (A") (A') (A") (A') (A') (A') (A') (A") (A') (A")
                 (A') (A") (A') (A') (A') (A") (A') (A') (A") (A')
                 (A") (A') (A') (A') (A") (A') (A') (A") (A') (A')
                 (A') (A') (A') (A") (A') (A') (A") (A') (A') (A')
                 (A') (A') (A') (A') (A') (A') (A') (A') (A') (A')
                 (A') (A') (A') (A') (A') (A') (A') (A') (A') (A')
                 (A") (A') (A') (A") (A') (A') (A') (A') (A") (A')
                 (A") (A') (A") (A') (A') (A") (A") (A') (A") (A')
                 (A') (A") (A') (A") (A') (A') (A") (A") (A') (A")
                 (A') (A') (A') (A') (A") (A") (A') (A') (A') (A')
                 (A') (A') (A') (A') (A') (A') (A') (A') (A') (A')
                 (A') (A') (A') (A") (A') (A') (A') (A") (A') (A')
                 (A') (A') (A") (A') (A') (A") (A') (A") (A") (A')
                 (A") (A') (A") (A') (A") (A') (A") (A") (A') (A')
                 (A") (A') (A') (A') (A') (A') (A') (A') (A") (A")
                 (A') (A") (A") (A') (A') (A") (A') (A") (A') (A')
                 (A") (A") (A') (A') (A') (A") (A') (A') (A") (A')
                 (A") (A') (A") (A') (A") (A') (A") (A') (A') (A")
                 (A') (A') (A') (A") (A') (A') (A') (A') (A") (A')
                 (A") (A') (A") (A') (A") (A') (A') (A") (A') (A')
                 (A") (A') (A') (A") (A') (A') (A") (A") (A') (A")
                 (A') (A') (A') (A') (A") (A') (A') (A') (A') (A")
                 (A') (A') (A') (A') (A') (A") (A') (A') (A") (A')
                 (A') (A') (A") (A') (A") (A') (A') (A') (A') (A")
                 (A') (A') (A") (A") (A") (A") (A') (A') (A") (A')
                 (A') (A") (A") (A') (A') (A") (A") (A') (A') (A')
                 (A') (A') (A') (A') (A') (A') (A') (A') (A") (A')
                 (A') (A') (A') (A') (A') (A') (A') (A') (A') (A')
                 (A') (A') (A') (A') (A') (A') (A') (A') (A') (A')
                 (A') (A') (A') (A') (A') (A') (A') (A') (A') (A')
                 (A') (A')
 The electronic state is 1-A'.
 Alpha  occ. eigenvalues --  -10.78667 -10.74545 -10.72549 -10.72291 -10.71742
 Alpha  occ. eigenvalues --  -10.70980 -10.70334 -10.70135 -10.69949 -10.68999
 Alpha  occ. eigenvalues --  -10.68804 -10.68314 -10.67870 -10.66578  -1.20745
 Alpha  occ. eigenvalues --   -1.13502  -1.12714  -1.06856  -1.03314  -1.01501
 Alpha  occ. eigenvalues --   -0.95869  -0.88005  -0.86008  -0.84725  -0.83290
 Alpha  occ. eigenvalues --   -0.77404  -0.76517  -0.74505  -0.73517  -0.69915
 Alpha  occ. eigenvalues --   -0.69330  -0.68365  -0.66792  -0.64678  -0.63417
 Alpha  occ. eigenvalues --   -0.63268  -0.62902  -0.59190  -0.58956  -0.56610
 Alpha  occ. eigenvalues --   -0.55127  -0.54566  -0.52632  -0.51961  -0.48312
 Alpha  occ. eigenvalues --   -0.47541  -0.35993
 Alpha virt. eigenvalues --   -0.27227  -0.16271  -0.11854  -0.11524  -0.10380
 Alpha virt. eigenvalues --   -0.09892  -0.09132  -0.07871  -0.07705  -0.07407
 Alpha virt. eigenvalues --   -0.07334  -0.06049  -0.05925  -0.05462  -0.05211
 Alpha virt. eigenvalues --   -0.04664  -0.04005  -0.03716  -0.03225  -0.02072
 Alpha virt. eigenvalues --   -0.02056  -0.01921  -0.00971  -0.00947   0.00295
 Alpha virt. eigenvalues --    0.00410   0.00850   0.01203   0.01461   0.01590
 Alpha virt. eigenvalues --    0.02093   0.02515   0.02812   0.02942   0.03170
 Alpha virt. eigenvalues --    0.03631   0.03914   0.04021   0.05374   0.05384
 Alpha virt. eigenvalues --    0.05584   0.05785   0.05858   0.06251   0.06802
 Alpha virt. eigenvalues --    0.07434   0.07455   0.07978   0.08023   0.08328
 Alpha virt. eigenvalues --    0.08423   0.08785   0.09378   0.10001   0.10070
 Alpha virt. eigenvalues --    0.10111   0.10706   0.11292   0.11365   0.12189
 Alpha virt. eigenvalues --    0.12708   0.12767   0.13258   0.13661   0.14080
 Alpha virt. eigenvalues --    0.14298   0.15890   0.16780   0.17194   0.17340
 Alpha virt. eigenvalues --    0.18153   0.18780   0.19945   0.20547   0.20912
 Alpha virt. eigenvalues --    0.21550   0.22217   0.22869   0.23911   0.24365
 Alpha virt. eigenvalues --    0.24727   0.25642   0.26078   0.27026   0.28511
 Alpha virt. eigenvalues --    0.29563   0.30802   0.31624   0.32144   0.35496
 Alpha virt. eigenvalues --    0.37079   0.37424   0.38201   0.38698   0.39625
 Alpha virt. eigenvalues --    0.40182   0.41712   0.42274   0.43113   0.43965
 Alpha virt. eigenvalues --    0.44180   0.44863   0.46237   0.46264   0.47434
 Alpha virt. eigenvalues --    0.48211   0.48971   0.49292   0.51272   0.51433
 Alpha virt. eigenvalues --    0.51773   0.52130   0.52929   0.53682   0.54706
 Alpha virt. eigenvalues --    0.55160   0.55750   0.58424   0.58913   0.59224
 Alpha virt. eigenvalues --    0.59418   0.62072   0.62638   0.63333   0.63334
 Alpha virt. eigenvalues --    0.64159   0.64927   0.66704   0.67247   0.67356
 Alpha virt. eigenvalues --    0.70029   0.72540   0.73751   0.73911   0.74269
 Alpha virt. eigenvalues --    0.75120   0.75762   0.76855   0.77348   0.78146
 Alpha virt. eigenvalues --    0.79182   0.79869   0.81240   0.81470   0.82020
 Alpha virt. eigenvalues --    0.82754   0.83387   0.84676   0.84735   0.86651
 Alpha virt. eigenvalues --    0.87586   0.88882   0.89985   0.90254   0.92867
 Alpha virt. eigenvalues --    0.94319   0.94870   0.95592   0.99270   1.01589
 Alpha virt. eigenvalues --    1.02088   1.02507   1.03757   1.04551   1.06994
 Alpha virt. eigenvalues --    1.08061   1.08080   1.09339   1.09561   1.11703
 Alpha virt. eigenvalues --    1.14966   1.17556   1.18998   1.19184   1.26352
 Alpha virt. eigenvalues --    1.29689   1.31510   1.33395   1.34111   1.36644
 Alpha virt. eigenvalues --    1.37254   1.38394   1.39014   1.39205   1.40552
 Alpha virt. eigenvalues --    1.44478   1.45905   1.47454   1.48073   1.49406
 Alpha virt. eigenvalues --    1.50670   1.52839   1.53382   1.56005   1.56392
 Alpha virt. eigenvalues --    1.56670   1.57149   1.58896   1.60147   1.60699
 Alpha virt. eigenvalues --    1.63416   1.64263   1.64696   1.66408   1.68959
 Alpha virt. eigenvalues --    1.69985   1.70721   1.72541   1.73295   1.74482
 Alpha virt. eigenvalues --    1.76182   1.77468   1.78977   1.79411   1.79925
 Alpha virt. eigenvalues --    1.82625   1.83725   1.84948   1.85079   1.87176
 Alpha virt. eigenvalues --    1.88574   1.88891   1.89656   1.93347   1.93353
 Alpha virt. eigenvalues --    1.95905   1.97190   1.99531   2.00160   2.02297
 Alpha virt. eigenvalues --    2.02866   2.06181   2.10931   2.11807   2.15481
 Alpha virt. eigenvalues --    2.17256   2.18588   2.19482   2.21174   2.23104
 Alpha virt. eigenvalues --    2.23893   2.28148   2.29911   2.32356   2.32726
 Alpha virt. eigenvalues --    2.35766   2.37070   2.39558   2.42011   2.43151
 Alpha virt. eigenvalues --    2.43616   2.44174   2.50065   2.52633   2.53956
 Alpha virt. eigenvalues --    2.57237   2.57914   2.58581   2.59804   2.60729
 Alpha virt. eigenvalues --    2.62015   2.62961   2.64080   2.64649   2.65331
 Alpha virt. eigenvalues --    2.65477   2.66675   2.67337   2.68926   2.70589
 Alpha virt. eigenvalues --    2.70769   2.73023   2.73410   2.74704   2.76894
 Alpha virt. eigenvalues --    2.78534   2.78947   2.80213   2.84749   2.84767
 Alpha virt. eigenvalues --    2.86950   2.90261   2.92993   2.93761   2.97323
 Alpha virt. eigenvalues --    2.98916   3.01456   3.01756   3.05337   3.08644
 Alpha virt. eigenvalues --    3.10243   3.14584   3.16540   3.25384   3.29257
 Alpha virt. eigenvalues --    3.33436   3.35549   3.39108   3.39913   3.51899
 Alpha virt. eigenvalues --    3.54570   3.63030   3.64380   3.71137   3.72349
 Alpha virt. eigenvalues --    3.74715   3.77100   3.81309   3.84925   3.90756
 Alpha virt. eigenvalues --    3.95961   4.01296   4.05027   4.18647   4.23492
 Alpha virt. eigenvalues --    4.27863   4.41126   4.49022  23.41124  23.48196
 Alpha virt. eigenvalues --   23.51911  23.55879  23.60220  23.80435  23.86483
 Alpha virt. eigenvalues --   23.96289  24.27315  24.39449  24.66028  24.67614
 Alpha virt. eigenvalues --   25.35621  25.52339
          Condensed to atoms (all electrons):
               1          2          3          4          5          6
     1  C    7.066679   1.214336  -0.505517   0.591830  -0.134675  -0.065106
     2  C    1.214336   8.356465   0.606673  -0.198315  -0.179151  -0.019629
     3  C   -0.505517   0.606673   6.971012   0.780026  -0.030441   0.010649
     4  C    0.591830  -0.198315   0.780026  11.564860  -0.567728  -0.200417
     5  C   -0.134675  -0.179151  -0.030441  -0.567728   8.320506   1.500200
     6  C   -0.065106  -0.019629   0.010649  -0.200417   1.500200   7.346786
     7  C   -0.056065  -0.020802  -0.006537   0.253047  -1.984398  -2.012591
     8  C    0.221420   0.033785  -0.138772  -0.412083   2.787229   1.702420
     9  C   -0.237418  -0.967879   0.095212   0.578473  -0.380268   0.358663
    10  C   -0.418728  -0.658399   0.207472  -2.591991  -0.959979  -0.775781
    11  C    0.620060  -0.093366  -0.280258  -0.709725  -1.043840   0.226696
    12  C   -1.334190  -0.693566  -1.909597  -1.213748  -0.026798  -0.735951
    13  C   -0.078937  -0.457160  -0.445856  -0.393780  -0.618679   0.079913
    14  C   -1.261646  -0.804991   0.624946  -1.754212  -0.791346  -1.428799
    15  H    0.377144  -0.072597   0.001316  -0.008964   0.005409   0.002239
    16  H   -0.012420   0.383979  -0.035841   0.040274  -0.003515  -0.000581
    17  H    0.000200  -0.037552   0.392693  -0.057409   0.001562   0.000473
    18  H    0.022435   0.029287  -0.031918   0.523911  -0.004472  -0.004708
    19  H   -0.016065  -0.014900   0.040976  -0.120633  -0.017107   0.039505
    20  H    0.000900   0.000840  -0.003781   0.012092   0.407200  -0.052501
    21  H   -0.001433  -0.000464   0.000278  -0.001483  -0.029657   0.343200
    22  H   -0.000077  -0.000121  -0.000092   0.001458  -0.010473  -0.020581
    23  H    0.008113   0.002997   0.000927  -0.014143   0.035431   0.065316
    24  H    0.039921   0.013846  -0.001681   0.006947  -0.023984  -0.007617
    25  H    0.039921   0.013846  -0.001681   0.006947  -0.023984  -0.007617
               7          8          9         10         11         12
     1  C   -0.056065   0.221420  -0.237418  -0.418728   0.620060  -1.334190
     2  C   -0.020802   0.033785  -0.967879  -0.658399  -0.093366  -0.693566
     3  C   -0.006537  -0.138772   0.095212   0.207472  -0.280258  -1.909597
     4  C    0.253047  -0.412083   0.578473  -2.591991  -0.709725  -1.213748
     5  C   -1.984398   2.787229  -0.380268  -0.959979  -1.043840  -0.026798
     6  C   -2.012591   1.702420   0.358663  -0.775781   0.226696  -0.735951
     7  C   12.188525  -5.852169  -1.535205   0.695692  -0.872265   0.787219
     8  C   -5.852169  15.647368  -0.213990  -0.774594   0.765359  -1.167530
     9  C   -1.535205  -0.213990   9.549328  -0.170238   1.042062  -2.277791
    10  C    0.695692  -0.774594  -0.170238   8.609147   0.279906   1.504286
    11  C   -0.872265   0.765359   1.042062   0.279906  13.794551  -3.766543
    12  C    0.787219  -1.167530  -2.277791   1.504286  -3.766543  18.508128
    13  C    1.331085  -3.049044  -0.373923  -0.553731  -1.529970  -0.713437
    14  C    3.403453  -4.214995   0.061248   1.284876  -1.870257  -1.209091
    15  H   -0.004352   0.001532   0.015588   0.011251  -0.041083   0.082273
    16  H    0.000785   0.003027  -0.001989  -0.031869   0.039817  -0.028454
    17  H   -0.000188  -0.002234   0.001121   0.021584  -0.011429   0.025416
    18  H    0.003936   0.004533  -0.010338  -0.017852  -0.006332  -0.061612
    19  H   -0.005372  -0.047171   0.064862   0.438680   0.072492  -0.291057
    20  H   -0.038134   0.097435  -0.014645   0.061754  -0.014902   0.029320
    21  H    0.036154  -0.057714  -0.001097   0.000256  -0.000696  -0.006316
    22  H    0.369438  -0.024115  -0.012097   0.002934  -0.009638   0.007811
    23  H   -0.239156   0.457633   0.159174  -0.017190   0.072704  -0.038250
    24  H    0.018837  -0.039623   0.379948   0.009432   0.034354  -0.023236
    25  H    0.018837  -0.039623   0.379948   0.009432   0.034354  -0.023236
              13         14         15         16         17         18
     1  C   -0.078937  -1.261646   0.377144  -0.012420   0.000200   0.022435
     2  C   -0.457160  -0.804991  -0.072597   0.383979  -0.037552   0.029287
     3  C   -0.445856   0.624946   0.001316  -0.035841   0.392693  -0.031918
     4  C   -0.393780  -1.754212  -0.008964   0.040274  -0.057409   0.523911
     5  C   -0.618679  -0.791346   0.005409  -0.003515   0.001562  -0.004472
     6  C    0.079913  -1.428799   0.002239  -0.000581   0.000473  -0.004708
     7  C    1.331085   3.403453  -0.004352   0.000785  -0.000188   0.003936
     8  C   -3.049044  -4.214995   0.001532   0.003027  -0.002234   0.004533
     9  C   -0.373923   0.061248   0.015588  -0.001989   0.001121  -0.010338
    10  C   -0.553731   1.284876   0.011251  -0.031869   0.021584  -0.017852
    11  C   -1.529970  -1.870257  -0.041083   0.039817  -0.011429  -0.006332
    12  C   -0.713437  -1.209091   0.082273  -0.028454   0.025416  -0.061612
    13  C   11.575876   1.152591  -0.037802   0.008054  -0.008277   0.004722
    14  C    1.152591  12.338142   0.010972  -0.027050   0.014973  -0.103282
    15  H   -0.037802   0.010972   0.417040  -0.002980   0.001571  -0.000345
    16  H    0.008054  -0.027050  -0.002980   0.390212  -0.003538   0.002944
    17  H   -0.008277   0.014973   0.001571  -0.003538   0.410779  -0.012874
    18  H    0.004722  -0.103282  -0.000345   0.002944  -0.012874   0.434839
    19  H    0.018310   0.195114   0.001081  -0.000717   0.003233  -0.003692
    20  H    0.026247  -0.174811  -0.000231   0.000031  -0.000238   0.001349
    21  H    0.017086   0.044313   0.000047  -0.000008   0.000008  -0.000100
    22  H    0.024265   0.016296  -0.000114   0.000008  -0.000002   0.000018
    23  H   -0.137420  -0.079817   0.000820  -0.000214  -0.000012  -0.000192
    24  H   -0.064639  -0.012846  -0.000464   0.000504  -0.000081   0.000109
    25  H   -0.064639  -0.012846  -0.000464   0.000504  -0.000081   0.000109
              19         20         21         22         23         24
     1  C   -0.016065   0.000900  -0.001433  -0.000077   0.008113   0.039921
     2  C   -0.014900   0.000840  -0.000464  -0.000121   0.002997   0.013846
     3  C    0.040976  -0.003781   0.000278  -0.000092   0.000927  -0.001681
     4  C   -0.120633   0.012092  -0.001483   0.001458  -0.014143   0.006947
     5  C   -0.017107   0.407200  -0.029657  -0.010473   0.035431  -0.023984
     6  C    0.039505  -0.052501   0.343200  -0.020581   0.065316  -0.007617
     7  C   -0.005372  -0.038134   0.036154   0.369438  -0.239156   0.018837
     8  C   -0.047171   0.097435  -0.057714  -0.024115   0.457633  -0.039623
     9  C    0.064862  -0.014645  -0.001097  -0.012097   0.159174   0.379948
    10  C    0.438680   0.061754   0.000256   0.002934  -0.017190   0.009432
    11  C    0.072492  -0.014902  -0.000696  -0.009638   0.072704   0.034354
    12  C   -0.291057   0.029320  -0.006316   0.007811  -0.038250  -0.023236
    13  C    0.018310   0.026247   0.017086   0.024265  -0.137420  -0.064639
    14  C    0.195114  -0.174811   0.044313   0.016296  -0.079817  -0.012846
    15  H    0.001081  -0.000231   0.000047  -0.000114   0.000820  -0.000464
    16  H   -0.000717   0.000031  -0.000008   0.000008  -0.000214   0.000504
    17  H    0.003233  -0.000238   0.000008  -0.000002  -0.000012  -0.000081
    18  H   -0.003692   0.001349  -0.000100   0.000018  -0.000192   0.000109
    19  H    0.495657  -0.012051   0.000476  -0.000263   0.000340   0.000511
    20  H   -0.012051   0.458931  -0.003293   0.001389  -0.001433   0.000418
    21  H    0.000476  -0.003293   0.423238  -0.001351   0.000243  -0.000037
    22  H   -0.000263   0.001389  -0.001351   0.422335  -0.006383   0.000594
    23  H    0.000340  -0.001433   0.000243  -0.006383   0.503388  -0.001243
    24  H    0.000511   0.000418  -0.000037   0.000594  -0.001243   0.464270
    25  H    0.000511   0.000418  -0.000037   0.000594  -0.001243  -0.066359
              25
     1  C    0.039921
     2  C    0.013846
     3  C   -0.001681
     4  C    0.006947
     5  C   -0.023984
     6  C   -0.007617
     7  C    0.018837
     8  C   -0.039623
     9  C    0.379948
    10  C    0.009432
    11  C    0.034354
    12  C   -0.023236
    13  C   -0.064639
    14  C   -0.012846
    15  H   -0.000464
    16  H    0.000504
    17  H   -0.000081
    18  H    0.000109
    19  H    0.000511
    20  H    0.000418
    21  H   -0.000037
    22  H    0.000594
    23  H   -0.001243
    24  H   -0.066359
    25  H    0.464270
 Mulliken charges:
               1
     1  C   -0.080681
     2  C   -0.437162
     3  C   -0.340209
     4  C   -0.115234
     5  C   -0.227041
     6  C   -0.344183
     7  C   -0.479774
     8  C    0.311915
     9  C   -0.488752
    10  C   -0.166349
    11  C   -0.732048
    12  C    0.575949
    13  C    0.289144
    14  C    0.599066
    15  H    0.241111
    16  H    0.279036
    17  H    0.260302
    18  H    0.229526
    19  H    0.157281
    20  H    0.217694
    21  H    0.238391
    22  H    0.238168
    23  H    0.229610
    24  H    0.272120
    25  H    0.272120
 Sum of Mulliken charges =   1.00000
 Mulliken charges with hydrogens summed into heavy atoms:
               1
     1  C    0.160430
     2  C   -0.158126
     3  C   -0.079907
     4  C    0.114292
     5  C   -0.009348
     6  C   -0.105793
     7  C   -0.241606
     8  C    0.541525
     9  C    0.055487
    10  C   -0.009067
    11  C   -0.732048
    12  C    0.575949
    13  C    0.289144
    14  C    0.599066
 Electronic spatial extent (au):  <R**2>=           2868.5404
 Charge=              1.0000 electrons
 Dipole moment (field-independent basis, Debye):
    X=             -2.9747    Y=             -4.2612    Z=              0.0000  Tot=              5.1968
 Quadrupole moment (field-independent basis, Debye-Ang):
   XX=            -53.7661   YY=            -28.8116   ZZ=            -83.2145
   XY=             10.0666   XZ=             -0.0000   YZ=              0.0000
 Traceless Quadrupole moment (field-independent basis, Debye-Ang):
   XX=              1.4980   YY=             26.4524   ZZ=            -27.9504
   XY=             10.0666   XZ=             -0.0000   YZ=              0.0000
 Octapole moment (field-independent basis, Debye-Ang**2):
  XXX=            -16.7413  YYY=            -32.2916  ZZZ=              0.0000  XYY=            -14.1462
  XXY=            -21.1556  XXZ=              0.0000  XZZ=             -6.6467  YZZ=             -7.8926
  YYZ=              0.0000  XYZ=             -0.0000
 Hexadecapole moment (field-independent basis, Debye-Ang**3):
 XXXX=           -831.0823 YYYY=          -1934.7075 ZZZZ=            -97.7244 XXXY=           -276.7078
 XXXZ=             -0.0000 YYYX=           -195.9419 YYYZ=              0.0000 ZZZX=             -0.0000
 ZZZY=             -0.0000 XXYY=           -464.6013 XXZZ=           -202.0969 YYZZ=           -527.0286
 XXYZ=              0.0000 YYXZ=             -0.0000 ZZXY=           -146.1033
 N-N= 7.854431559188D+02 E-N=-2.808516003932D+03  KE= 5.399407088230D+02
 Symmetry A'   KE= 5.247335663391D+02
 Symmetry A"   KE= 1.520714248391D+01
 Unable to Open any file for archive entry.
 1\1\GINC-GADI-CPU-CLX-0240\SP\RM062X TD-FC\6-311++G(d,p)\C14H11(1+)\TS
 1578\02-Aug-2022\0\\#n M062X/6-311++G(d,p) TD(NStates=1) EmpiricalDisp
 ersion=GD3 SP\\SP_12\\1,1\C,0,0.,2.326655,1.382431\C,0,0.,3.495508,0.5
 65989\C,0,0.,3.559861,-0.91783\C,0,0.,2.679156,-1.485538\C,0,0.,-2.247
 156,-1.329538\C,0,0.,-3.807861,-0.50983\C,0,0.,-3.907508,0.777989\C,0,
 0.,-2.658655,1.338431\C,0,0.,-0.104,1.453369\C,0,0.,0.36,-1.429189\C,0
 ,0.,1.382055,0.851065\C,0,0.,1.337471,-0.704804\C,0,0.,-1.142055,0.503
 065\C,0,0.,-1.137471,-0.756804\H,0,0.,2.482071,2.465647\H,0,0.,4.44475
 3,1.093689\H,0,0.,4.569262,-1.326349\H,0,0.,2.52355,-2.568059\H,0,0.,0
 .362,-2.510266\H,0,0.,-2.41155,-2.412059\H,0,0.,-4.649262,-1.218349\H,
 0,0.,-4.828753,1.329689\H,0,0.,-2.494071,2.421647\H,0,-0.859585,-0.576
 ,2.145787\H,0,0.859585,-0.576,2.145787\\Version=ES64L-G16RevC.01\State
 =1-A'\HF=-539.1322454\RMSD=8.250e-09\PG=CS [SG(C14H9),X(H2)]\\@
 The archive entry for this job was punched.


 THE ONLY DIFFERENCE BETWEEN ECCENTRICS AND JOGGERS
 IS THAT JOGGERS WEAR SWEATBANDS WHEN THEY RUN IN THE RAIN.
 Job cpu time:       0 days  0 hours 54 minutes  9.8 seconds.
 Elapsed time:       0 days  0 hours  1 minutes  7.8 seconds.
 File lengths (MBytes):  RWF=    460 Int=      0 D2E=      0 Chk=     15 Scr=      1
 Normal termination of Gaussian 16 at Tue Aug  2 13:27:59 2022.
