 Entering Gaussian System, Link 0=g16
 Initial command:
 /apps/gaussian/g16c01/g16/l1.exe "/jobfs/53803565.gadi-pbs/Gau-1024965.inp" -scrdir="/jobfs/53803565.gadi-pbs/"
 Entering Link 1 = /apps/gaussian/g16c01/g16/l1.exe PID=   1024966.
  
 Copyright (c) 1988-2019, Gaussian, Inc.  All Rights Reserved.
  
 This is part of the Gaussian(R) 16 program.  It is based on
 the Gaussian(R) 09 system (copyright 2009, Gaussian, Inc.),
 the Gaussian(R) 03 system (copyright 2003, Gaussian, Inc.),
 the Gaussian(R) 98 system (copyright 1998, Gaussian, Inc.),
 the Gaussian(R) 94 system (copyright 1995, Gaussian, Inc.),
 the Gaussian 92(TM) system (copyright 1992, Gaussian, Inc.),
 the Gaussian 90(TM) system (copyright 1990, Gaussian, Inc.),
 the Gaussian 88(TM) system (copyright 1988, Gaussian, Inc.),
 the Gaussian 86(TM) system (copyright 1986, Carnegie Mellon
 University), and the Gaussian 82(TM) system (copyright 1983,
 Carnegie Mellon University). Gaussian is a federally registered
 trademark of Gaussian, Inc.
  
 This software contains proprietary and confidential information,
 including trade secrets, belonging to Gaussian, Inc.
  
 This software is provided under written license and may be
 used, copied, transmitted, or stored only in accord with that
 written license.
  
 The following legend is applicable only to US Government
 contracts under FAR:
  
                    RESTRICTED RIGHTS LEGEND
  
 Use, reproduction and disclosure by the US Government is
 subject to restrictions as set forth in subparagraphs (a)
 and (c) of the Commercial Computer Software - Restricted
 Rights clause in FAR 52.227-19.
  
 Gaussian, Inc.
 340 Quinnipiac St., Bldg. 40, Wallingford CT 06492
  
  
 ---------------------------------------------------------------
 Warning -- This program may not be used in any manner that
 competes with the business of Gaussian, Inc. or will provide
 assistance to any competitor of Gaussian, Inc.  The licensee
 of this program is prohibited from giving any competitor of
 Gaussian, Inc. access to this program.  By using this program,
 the user acknowledges that Gaussian, Inc. is engaged in the
 business of creating and licensing software in the field of
 computational chemistry and represents and warrants to the
 licensee that it is not a competitor of Gaussian, Inc. and that
 it will not use this program in any manner prohibited above.
 ---------------------------------------------------------------
  

 Cite this work as:
 Gaussian 16, Revision C.01,
 M. J. Frisch, G. W. Trucks, H. B. Schlegel, G. E. Scuseria, 
 M. A. Robb, J. R. Cheeseman, G. Scalmani, V. Barone, 
 G. A. Petersson, H. Nakatsuji, X. Li, M. Caricato, A. V. Marenich, 
 J. Bloino, B. G. Janesko, R. Gomperts, B. Mennucci, H. P. Hratchian, 
 J. V. Ortiz, A. F. Izmaylov, J. L. Sonnenberg, D. Williams-Young, 
 F. Ding, F. Lipparini, F. Egidi, J. Goings, B. Peng, A. Petrone, 
 T. Henderson, D. Ranasinghe, V. G. Zakrzewski, J. Gao, N. Rega, 
 G. Zheng, W. Liang, M. Hada, M. Ehara, K. Toyota, R. Fukuda, 
 J. Hasegawa, M. Ishida, T. Nakajima, Y. Honda, O. Kitao, H. Nakai, 
 T. Vreven, K. Throssell, J. A. Montgomery, Jr., J. E. Peralta, 
 F. Ogliaro, M. J. Bearpark, J. J. Heyd, E. N. Brothers, K. N. Kudin, 
 V. N. Staroverov, T. A. Keith, R. Kobayashi, J. Normand, 
 K. Raghavachari, A. P. Rendell, J. C. Burant, S. S. Iyengar, 
 J. Tomasi, M. Cossi, J. M. Millam, M. Klene, C. Adamo, R. Cammi, 
 J. W. Ochterski, R. L. Martin, K. Morokuma, O. Farkas, 
 J. B. Foresman, and D. J. Fox, Gaussian, Inc., Wallingford CT, 2019.
 
 ******************************************
 Gaussian 16:  ES64L-G16RevC.01  3-Jul-2019
                 2-Aug-2022 
 ******************************************
 %NProcShared=48
 Will use up to   48 processors via shared memory.
 %mem = 190GB
 ---------------------------------------------------------------
 #n M062X/6-311++G(d,p) TD(NStates=1) EmpiricalDispersion=GD3 SP
 ---------------------------------------------------------------
 1/38=1,172=1/1;
 2/12=2,17=6,18=5,40=1/2;
 3/5=4,6=6,7=1111,11=9,25=1,30=1,74=-55,124=31/1,2,3,8;
 4//1;
 5/5=2,38=5/2;
 8/6=1,10=2,108=1/1;
 9/41=1,42=1,70=2/14;
 6/7=2,8=2,9=2,10=2/1;
 99/5=1,9=1/99;
 ------
 SP_-10
 ------
 Symbolic Z-matrix:
 Charge =  1 Multiplicity = 1
 C                     0.        2.73066   1.42643 
 C                     0.        3.91151   0.72199 
 C                     0.        3.72586  -0.58983 
 C                     0.        2.19116  -1.27354 
 C                     0.       -2.73516  -1.54154 
 C                     0.       -3.64186  -0.83783 
 C                     0.       -3.49151   0.62199 
 C                     0.       -2.25466   1.29443 
 C                     0.        0.056     1.45337 
 C                     0.       -0.254    -1.42919 
 C                     0.        1.20806   0.69307 
 C                     0.        1.12347  -0.6068 
 C                     0.       -1.31606   0.66107 
 C                     0.       -1.35147  -0.8548 
 H                     0.        2.70007   2.50965 
 H                     0.        4.88875   1.17969 
 H                     0.        4.53526  -1.34235 
 H                     0.        2.22155  -2.35606 
 H                     0.       -0.064    -2.51027 
 H                     0.       -2.71355  -2.62406 
 H                     0.       -4.68326  -1.20235 
 H                     0.       -4.38475   1.24369 
 H                     0.       -2.27607   2.37765 
 H                    -0.85959   0.296     2.14579 
 H                     0.85959   0.296     2.14579 
 
                          Input orientation:                          
 ---------------------------------------------------------------------
 Center     Atomic      Atomic             Coordinates (Angstroms)
 Number     Number       Type             X           Y           Z
 ---------------------------------------------------------------------
      1          6           0        0.000000    2.730655    1.426431
      2          6           0        0.000000    3.911508    0.721989
      3          6           0        0.000000    3.725861   -0.589830
      4          6           0        0.000000    2.191156   -1.273538
      5          6           0        0.000000   -2.735156   -1.541538
      6          6           0        0.000000   -3.641861   -0.837830
      7          6           0        0.000000   -3.491508    0.621989
      8          6           0        0.000000   -2.254655    1.294431
      9          6           0        0.000000    0.056000    1.453369
     10          6           0        0.000000   -0.254000   -1.429189
     11          6           0        0.000000    1.208055    0.693065
     12          6           0        0.000000    1.123471   -0.606804
     13          6           0        0.000000   -1.316055    0.661065
     14          6           0        0.000000   -1.351471   -0.854804
     15          1           0        0.000000    2.700071    2.509647
     16          1           0        0.000000    4.888753    1.179689
     17          1           0        0.000000    4.535262   -1.342349
     18          1           0        0.000000    2.221550   -2.356059
     19          1           0        0.000000   -0.064000   -2.510266
     20          1           0        0.000000   -2.713550   -2.624059
     21          1           0        0.000000   -4.683262   -1.202349
     22          1           0        0.000000   -4.384753    1.243689
     23          1           0        0.000000   -2.276071    2.377647
     24          1           0       -0.859585    0.296000    2.145787
     25          1           0        0.859585    0.296000    2.145787
 ---------------------------------------------------------------------
                    Distance matrix (angstroms):
                    1          2          3          4          5
     1  C    0.000000
     2  C    1.375010   0.000000
     3  C    2.248498   1.324890   0.000000
     4  C    2.753342   2.634718   1.680112   0.000000
     5  C    6.219641   7.021517   6.530734   4.933596   0.000000
     6  C    6.762828   7.712744   7.371895   5.849267   1.147745
     7  C    6.273949   7.403691   7.318396   5.990467   2.291924
     8  C    4.987057   6.192678   6.270328   5.134170   2.876387
     9  C    2.674791   3.924265   4.200303   3.463367   4.093900
    10  C    4.130706   4.688179   4.067409   2.450105   2.483698
    11  C    1.690011   2.703608   2.825804   2.198639   4.532368
    12  C    2.591734   3.088501   2.602445   1.258763   3.970230
    13  C    4.118452   5.227918   5.194772   4.005399   2.620173
    14  C    4.676300   5.494108   5.084241   3.567288   1.544729
    15  H    1.083648   2.159468   3.264813   3.817261   6.778923
    16  H    2.172158   1.079119   2.117431   3.646279   8.095002
    17  H    3.304958   2.156516   1.105176   2.345116   7.273146
    18  H    3.816598   3.511458   2.320025   1.082948   5.023184
    19  H    4.827803   5.123684   4.248661   2.572008   2.841392
    20  H    6.785708   7.422091   6.753081   5.087244   1.082737
    21  H    7.866171   8.807562   8.431401   6.874787   1.977414
    22  H    7.117754   8.312648   8.315278   7.041236   3.237076
    23  H    5.096285   6.405259   6.695454   5.769512   3.945982
    24  H    2.680281   3.979697   4.470619   4.002785   4.850068
    25  H    2.680281   3.979697   4.470619   4.002785   4.850068
                    6          7          8          9         10
     6  C    0.000000
     7  C    1.467541   0.000000
     8  C    2.543792   1.407829   0.000000
     9  C    4.350146   3.643625   2.316115   0.000000
    10  C    3.439085   3.832596   3.379457   2.899179   0.000000
    11  C    5.085796   4.700100   3.514541   1.380323   2.577124
    12  C    4.770929   4.775768   3.876394   2.320303   1.604289
    13  C    2.766959   2.175804   1.132308   1.584386   2.344594
    14  C    2.290453   2.600130   2.331298   2.703449   1.238693
    15  H    7.171172   6.472936   5.101574   2.847250   4.923511
    16  H    8.765943   8.398798   7.144329   4.840496   5.766641
    17  H    8.192672   8.263635   7.283926   5.280135   4.790049
    18  H    6.056782   6.442655   5.776027   4.381934   2.643376
    19  H    3.949447   4.643149   4.390295   3.965451   1.097646
    20  H    2.013051   3.337970   3.945269   4.929080   2.734429
    21  H    1.103354   2.179102   3.483108   5.432628   4.435067
    22  H    2.210115   1.088300   2.130702   4.445700   4.920101
    23  H    3.493519   2.135327   1.083428   2.508554   4.310542
    24  H    5.014739   4.172057   2.823036   1.129570   3.717773
    25  H    5.014739   4.172057   2.823036   1.129570   3.717773
                   11         12         13         14         15
    11  C    0.000000
    12  C    1.302618   0.000000
    13  C    2.524313   2.749323   0.000000
    14  C    2.991166   2.487336   1.516283   0.000000
    15  H    2.350762   3.492554   4.421145   5.266358   0.000000
    16  H    3.712727   4.167602   6.226445   6.563502   2.561077
    17  H    3.900412   3.490178   6.184786   5.906888   4.266825
    18  H    3.213149   2.065350   4.649482   3.875596   4.889180
    19  H    3.446658   2.243492   3.409543   2.097173   5.730586
    20  H    5.136370   4.334980   3.570018   2.232828   7.460712
    21  H    6.188716   5.837193   3.848428   3.349868   8.263929
    22  H    5.619848   5.810753   3.123517   3.688424   7.197040
    23  H    3.870007   4.523697   1.966795   3.362086   4.977892
    24  H    1.918628   3.000059   2.354147   3.529390   2.578922
    25  H    1.918628   3.000059   2.354147   3.529390   2.578922
                   16         17         18         19         20
    16  H    0.000000
    17  H    2.546690   0.000000
    18  H    4.428937   2.526039   0.000000
    19  H    6.176207   4.745234   2.290746   0.000000
    20  H    8.500795   7.361254   4.942371   2.651992   0.000000
    21  H    9.863953   9.219587   7.000534   4.800857   2.429202
    22  H    9.273727   9.287317   7.523392   5.723730   4.213359
    23  H    7.264283   7.760968   6.529668   5.365161   5.020802
    24  H    4.771332   5.556737   4.971242   4.748401   5.705060
    25  H    4.771332   5.556737   4.971242   4.748401   5.705060
                   21         22         23         24         25
    21  H    0.000000
    22  H    2.464185   0.000000
    23  H    4.314040   2.394243   0.000000
    24  H    6.061514   4.843771   2.721800   0.000000
    25  H    6.061514   4.843771   2.721800   1.719170   0.000000
 Stoichiometry    C14H11(1+)
 Framework group  CS[SG(C14H9),X(H2)]
 Deg. of freedom    46
 Full point group                 CS      NOp   2
 Largest Abelian subgroup         CS      NOp   2
 Largest concise Abelian subgroup CS      NOp   2
                         Standard orientation:                         
 ---------------------------------------------------------------------
 Center     Atomic      Atomic             Coordinates (Angstroms)
 Number     Number       Type             X           Y           Z
 ---------------------------------------------------------------------
      1          6           0        2.553146    1.720328    0.000000
      2          6           0        2.495736    3.094138    0.000000
      3          6           0        1.253703    3.555319    0.000000
      4          6           0       -0.078117    2.531097    0.000000
      5          6           0       -2.658803   -1.673715    0.000000
      6          6           0       -2.471540   -2.806080    0.000000
      7          6           0       -1.116151   -3.368749    0.000000
      8          6           0        0.063980   -2.601107    0.000000
      9          6           0        1.303661   -0.644687    0.000000
     10          6           0       -1.378932    0.454827    0.000000
     11          6           0        1.183417    0.730389    0.000000
     12          6           0        0.000000    1.274759    0.000000
     13          6           0       -0.046239   -1.474175    0.000000
     14          6           0       -1.396209   -0.783746    0.000000
     15          1           0        3.491208    1.177804    0.000000
     16          1           0        3.363438    3.735692    0.000000
     17          1           0        0.977196    4.625346    0.000000
     18          1           0       -1.015659    3.073122    0.000000
     19          1           0       -2.239229    1.136529    0.000000
     20          1           0       -3.600527   -1.139418    0.000000
     21          1           0       -3.287834   -3.548411    0.000000
     22          1           0       -0.994602   -4.450240    0.000000
     23          1           0        1.006406   -3.135567    0.000000
     24          1           0        2.026843   -0.763223    0.859585
     25          1           0        2.026843   -0.763223   -0.859585
 ---------------------------------------------------------------------
 Rotational constants (GHZ):           2.1622367           0.4406709           0.3668571
 Standard basis: 6-311++G(d,p) (5D, 7F)
 There are   299 symmetry adapted cartesian basis functions of A'  symmetry.
 There are   100 symmetry adapted cartesian basis functions of A"  symmetry.
 There are   285 symmetry adapted basis functions of A'  symmetry.
 There are   100 symmetry adapted basis functions of A"  symmetry.
   385 basis functions,   603 primitive gaussians,   399 cartesian basis functions
    47 alpha electrons       47 beta electrons
       nuclear repulsion energy       784.1262758913 Hartrees.
 NAtoms=   25 NActive=   25 NUniq=   24 SFac= 1.09D+00 NAtFMM=   60 NAOKFM=F Big=F
 Integral buffers will be    131072 words long.
 Regular integral format.
 Two-electron integral symmetry is turned on.
 Nuclear repulsion after empirical dispersion term =      784.1253117559 Hartrees.
 One-electron integrals computed using PRISM.
 NBasis=   385 RedAO= T EigKep=  1.33D-06  NBF=   285   100
 NBsUse=   379 1.00D-06 EigRej=  7.71D-07 NBFU=   279   100
 ExpMin= 3.60D-02 ExpMax= 4.56D+03 ExpMxC= 6.82D+02 IAcc=3 IRadAn=         5 AccDes= 0.00D+00
 Harris functional with IExCor= 1009 and IRadAn=       5 diagonalized for initial guess.
 HarFok:  IExCor= 1009 AccDes= 0.00D+00 IRadAn=         5 IDoV= 1 UseB2=F ITyADJ=14
 ICtDFT=  3500011 ScaDFX=  1.000000  1.000000  1.000000  1.000000
 FoFCou: FMM=F IPFlag=           0 FMFlag=      100000 FMFlg1=           0
         NFxFlg=           0 DoJE=T BraDBF=F KetDBF=T FulRan=T
         wScrn=  0.000000 ICntrl=       500 IOpCl=  0 I1Cent=   200000004 NGrid=           0
         NMat0=    1 NMatS0=      1 NMatT0=    0 NMatD0=    1 NMtDS0=    0 NMtDT0=    0
 Petite list used in FoFCou.
 Initial guess orbital symmetries:
       Occupied  (A') (A') (A') (A') (A') (A') (A') (A') (A') (A')
                 (A') (A') (A') (A') (A') (A') (A') (A') (A') (A')
                 (A') (A') (A') (A') (A') (A') (A') (A') (A') (A')
                 (A') (A') (A") (A') (A') (A') (A") (A') (A') (A")
                 (A') (A') (A") (A") (A') (A") (A")
       Virtual   (A") (A") (A") (A") (A") (A') (A') (A') (A') (A')
                 (A') (A") (A') (A') (A") (A') (A') (A") (A') (A')
                 (A') (A") (A') (A') (A') (A") (A') (A") (A') (A")
                 (A') (A') (A') (A') (A") (A') (A') (A') (A") (A')
                 (A") (A') (A') (A") (A') (A') (A') (A') (A') (A")
                 (A') (A") (A') (A") (A') (A') (A") (A') (A') (A")
                 (A') (A') (A') (A') (A') (A") (A') (A') (A') (A")
                 (A') (A') (A') (A') (A') (A') (A') (A') (A') (A')
                 (A') (A') (A') (A') (A') (A') (A') (A') (A') (A')
                 (A') (A') (A') (A') (A") (A") (A') (A') (A") (A')
                 (A') (A') (A") (A') (A') (A") (A") (A') (A") (A')
                 (A") (A') (A") (A") (A') (A') (A") (A') (A') (A")
                 (A") (A') (A') (A") (A') (A') (A") (A') (A') (A')
                 (A') (A') (A') (A') (A') (A') (A') (A') (A") (A')
                 (A') (A') (A') (A') (A') (A") (A') (A') (A') (A')
                 (A') (A") (A") (A') (A") (A') (A') (A") (A') (A")
                 (A') (A") (A') (A") (A") (A') (A") (A') (A') (A')
                 (A") (A') (A') (A') (A') (A') (A') (A") (A') (A")
                 (A') (A') (A") (A") (A') (A') (A") (A") (A') (A')
                 (A") (A') (A') (A") (A') (A') (A") (A') (A') (A")
                 (A") (A') (A") (A') (A") (A") (A') (A') (A') (A")
                 (A') (A') (A') (A') (A") (A') (A") (A') (A") (A')
                 (A') (A") (A') (A') (A") (A') (A') (A") (A') (A')
                 (A") (A') (A") (A') (A') (A') (A") (A') (A") (A')
                 (A") (A') (A') (A') (A") (A') (A') (A') (A') (A")
                 (A') (A') (A') (A") (A") (A') (A') (A") (A') (A')
                 (A") (A") (A') (A') (A') (A') (A') (A") (A') (A")
                 (A') (A') (A') (A') (A") (A") (A') (A') (A") (A')
                 (A") (A') (A') (A") (A') (A") (A") (A') (A') (A')
                 (A') (A') (A') (A') (A') (A') (A') (A') (A') (A')
                 (A') (A') (A") (A') (A') (A') (A') (A') (A') (A')
                 (A') (A') (A') (A') (A') (A') (A') (A') (A') (A')
                 (A') (A') (A') (A') (A') (A') (A') (A') (A') (A')
                 (A') (A')
 The electronic state of the initial guess is 1-A'.
 Requested convergence on RMS density matrix=1.00D-08 within 128 cycles.
 Requested convergence on MAX density matrix=1.00D-06.
 Requested convergence on             energy=1.00D-06.
 No special actions if energy rises.
 SCF Done:  E(RM062X) =  -539.387650870     A.U. after   17 cycles
            NFock= 17  Conv=0.46D-08     -V/T= 2.0005
 DoSCS=F DFT=T ScalE2(SS,OS)=  1.000000  1.000000
 ExpMin= 3.60D-02 ExpMax= 4.56D+03 ExpMxC= 6.82D+02 IAcc=3 IRadAn=         5 AccDes= 0.00D+00
 HarFok:  IExCor=  205 AccDes= 0.00D+00 IRadAn=         5 IDoV=-2 UseB2=F ITyADJ=14
 ICtDFT= 12500011 ScaDFX=  1.000000  1.000000  1.000000  1.000000
 Range of M.O.s used for correlation:    15   379
 NBasis=   385 NAE=    47 NBE=    47 NFC=    14 NFV=     0
 NROrb=    365 NOA=    33 NOB=    33 NVA=   332 NVB=   332

 **** Warning!!: The largest alpha MO coefficient is  0.16580727D+03


 **** Warning!!: The smallest alpha delta epsilon is  0.98941406D-01

 Orbital symmetries:
       Occupied  (A') (A') (A') (A') (A') (A') (A') (A') (A') (A')
                 (A') (A') (A') (A') (A') (A') (A') (A') (A') (A')
                 (A') (A') (A') (A') (A') (A') (A') (A') (A') (A')
                 (A") (A') (A') (A') (A') (A") (A') (A') (A") (A')
                 (A') (A") (A') (A") (A') (A") (A")
       Virtual   (A") (A") (A") (A') (A") (A') (A') (A') (A') (A")
                 (A') (A") (A') (A") (A') (A') (A") (A') (A') (A')
                 (A") (A") (A') (A') (A') (A') (A') (A") (A') (A')
                 (A") (A") (A') (A') (A') (A') (A") (A') (A') (A")
                 (A") (A') (A') (A') (A') (A") (A") (A") (A') (A')
                 (A') (A') (A') (A') (A") (A') (A') (A") (A') (A')
                 (A') (A") (A') (A') (A') (A') (A') (A") (A') (A')
                 (A') (A') (A') (A') (A') (A') (A') (A') (A') (A')
                 (A') (A') (A') (A') (A') (A') (A') (A') (A') (A')
                 (A") (A') (A') (A") (A') (A') (A') (A') (A") (A')
                 (A") (A') (A') (A") (A') (A') (A") (A") (A') (A')
                 (A") (A') (A") (A') (A") (A") (A') (A') (A") (A")
                 (A') (A') (A") (A') (A") (A') (A') (A') (A') (A')
                 (A') (A') (A') (A') (A') (A') (A') (A') (A') (A')
                 (A') (A') (A') (A') (A") (A') (A') (A') (A") (A')
                 (A') (A') (A') (A") (A') (A") (A') (A") (A') (A")
                 (A') (A") (A') (A") (A') (A") (A') (A") (A") (A')
                 (A') (A") (A') (A') (A') (A') (A') (A") (A") (A')
                 (A') (A') (A") (A") (A') (A") (A') (A") (A') (A")
                 (A') (A') (A") (A') (A') (A") (A') (A') (A') (A")
                 (A') (A") (A") (A') (A") (A') (A') (A") (A') (A")
                 (A') (A') (A') (A') (A") (A") (A') (A') (A') (A")
                 (A') (A") (A') (A') (A') (A") (A') (A") (A') (A")
                 (A') (A') (A") (A') (A') (A') (A") (A') (A") (A")
                 (A') (A') (A') (A") (A') (A') (A') (A') (A') (A')
                 (A") (A') (A') (A') (A') (A") (A') (A') (A") (A')
                 (A") (A') (A') (A') (A') (A") (A') (A') (A') (A')
                 (A") (A') (A') (A") (A") (A') (A") (A") (A') (A")
                 (A') (A") (A') (A") (A') (A") (A') (A") (A') (A')
                 (A') (A') (A') (A') (A') (A') (A') (A') (A') (A')
                 (A') (A") (A') (A') (A') (A') (A') (A') (A') (A')
                 (A') (A') (A') (A') (A') (A') (A') (A') (A') (A')
                 (A') (A') (A') (A') (A') (A') (A') (A') (A') (A')
                 (A') (A')
     4 initial guesses have been made.
 Convergence on wavefunction:    0.001000000000000
 Iteration     1 Dimension     4 NMult     0 NNew      4
 CISAX will form     4 AO SS matrices at one time.
 Iteration     2 Dimension     6 NMult     4 NNew      2
 Iteration     3 Dimension     8 NMult     6 NNew      2
 Iteration     4 Dimension    10 NMult     8 NNew      2
 Iteration     5 Dimension    12 NMult    10 NNew      2
 Iteration     6 Dimension    14 NMult    12 NNew      2
 ***********************************************************************
 Excited states from <AA,BB:AA,BB> singles matrix:
 ***********************************************************************
 
 Ground to excited state transition densities written to RWF  633
 Ground to excited state transition electric dipole moments (Au):
       state          X           Y           Z        Dip. S.      Osc.
         1         0.7408      0.8295      0.0000      1.2368      0.0327
 Ground to excited state transition velocity dipole moments (Au):
       state          X           Y           Z        Dip. S.      Osc.
         1        -0.0303     -0.0269     -0.0000      0.0016      0.0276
 Ground to excited state transition magnetic dipole moments (Au):
       state          X           Y           Z
         1        -0.0000      0.0000     -0.2875
 Ground to excited state transition velocity quadrupole moments (Au):
       state          XX          YY          ZZ          XY          XZ          YZ
         1        -0.0215      0.0598     -0.0032      0.0160     -0.0000      0.0000
 <0|del|b> * <b|rxdel|0> + <0|del|b> * <b|delr+rdel|0>
 Rotatory Strengths (R) in cgs (10**-40 erg-esu-cm/Gauss)
       state          XX          YY          ZZ    R(velocity)    E-M Angle
         1        -0.0000      0.0000      0.0000      0.0000       90.00
 1/2[<0|r|b>*<b|rxdel|0> + (<0|rxdel|b>*<b|r|0>)*]
 Rotatory Strengths (R) in cgs (10**-40 erg-esu-cm/Gauss)
       state          XX          YY          ZZ     R(length)
         1         0.0000     -0.0000      0.0000     -0.0000
  1/2[<0|del|b>*<b|r|0> + (<0|r|b>*<b|del|0>)*] (Au)
       state          X           Y           Z        Dip. S.   Osc.(frdel)
         1        -0.0225     -0.0223     -0.0000      0.0448      0.0299

 Excitation energies and oscillator strengths:
 
 Excited State   1:      Singlet-A'     1.0792 eV 1148.87 nm  f=0.0327  <S**2>=0.000
      47 -> 48         0.70514
 This state for optimization and/or second-order correction.
 Total Energy, E(TD-HF/TD-DFT) =  -539.347991599    
 Copying the excited state density for this state as the 1-particle RhoCI density.
 SavETr:  write IOETrn=   770 NScale= 10 NData=  16 NLR=1 NState=    1 LETran=      28.

 **********************************************************************

            Population analysis using the SCF Density.

 **********************************************************************

 Orbital symmetries:
       Occupied  (A') (A') (A') (A') (A') (A') (A') (A') (A') (A')
                 (A') (A') (A') (A') (A') (A') (A') (A') (A') (A')
                 (A') (A') (A') (A') (A') (A') (A') (A') (A') (A')
                 (A") (A') (A') (A') (A') (A") (A') (A') (A") (A')
                 (A') (A") (A') (A") (A') (A") (A")
       Virtual   (A") (A") (A") (A') (A") (A') (A') (A') (A') (A")
                 (A') (A") (A') (A") (A') (A') (A") (A') (A') (A')
                 (A") (A") (A') (A') (A') (A') (A') (A") (A') (A')
                 (A") (A") (A') (A') (A') (A') (A") (A') (A') (A")
                 (A") (A') (A') (A') (A') (A") (A") (A") (A') (A')
                 (A') (A') (A') (A') (A") (A') (A') (A") (A') (A')
                 (A') (A") (A') (A') (A') (A') (A') (A") (A') (A')
                 (A') (A') (A') (A') (A') (A') (A') (A') (A') (A')
                 (A') (A') (A') (A') (A') (A') (A') (A') (A') (A')
                 (A") (A') (A') (A") (A') (A') (A') (A') (A") (A')
                 (A") (A') (A') (A") (A') (A') (A") (A") (A') (A')
                 (A") (A') (A") (A') (A") (A") (A') (A') (A") (A")
                 (A') (A') (A") (A') (A") (A') (A') (A') (A') (A')
                 (A') (A') (A') (A') (A') (A') (A') (A') (A') (A')
                 (A') (A') (A') (A') (A") (A') (A') (A') (A") (A')
                 (A') (A') (A') (A") (A') (A") (A') (A") (A') (A")
                 (A') (A") (A') (A") (A') (A") (A') (A") (A") (A')
                 (A') (A") (A') (A') (A') (A') (A') (A") (A") (A')
                 (A') (A') (A") (A") (A') (A") (A') (A") (A') (A")
                 (A') (A') (A") (A') (A') (A") (A') (A') (A') (A")
                 (A') (A") (A") (A') (A") (A') (A') (A") (A') (A")
                 (A') (A') (A') (A') (A") (A") (A') (A') (A') (A")
                 (A') (A") (A') (A') (A') (A") (A') (A") (A') (A")
                 (A') (A') (A") (A') (A') (A') (A") (A') (A") (A")
                 (A') (A') (A') (A") (A') (A') (A') (A') (A') (A')
                 (A") (A') (A') (A') (A') (A") (A') (A') (A") (A')
                 (A") (A') (A') (A') (A') (A") (A') (A') (A') (A')
                 (A") (A') (A') (A") (A") (A') (A") (A") (A') (A")
                 (A') (A") (A') (A") (A') (A") (A') (A") (A') (A')
                 (A') (A') (A') (A') (A') (A') (A') (A') (A') (A')
                 (A') (A") (A') (A') (A') (A') (A') (A') (A') (A')
                 (A') (A') (A') (A') (A') (A') (A') (A') (A') (A')
                 (A') (A') (A') (A') (A') (A') (A') (A') (A') (A')
                 (A') (A')
 The electronic state is 1-A'.
 Alpha  occ. eigenvalues --  -10.78454 -10.74436 -10.73934 -10.72987 -10.72650
 Alpha  occ. eigenvalues --  -10.70892 -10.70856 -10.70181 -10.70171 -10.69451
 Alpha  occ. eigenvalues --  -10.68192 -10.68068 -10.67552 -10.66547  -1.20166
 Alpha  occ. eigenvalues --   -1.13049  -1.11209  -1.06823  -1.02976  -1.01101
 Alpha  occ. eigenvalues --   -0.95896  -0.88513  -0.86348  -0.84752  -0.83159
 Alpha  occ. eigenvalues --   -0.77854  -0.76498  -0.74671  -0.72916  -0.69930
 Alpha  occ. eigenvalues --   -0.68781  -0.68575  -0.66488  -0.64526  -0.64085
 Alpha  occ. eigenvalues --   -0.63615  -0.62475  -0.59801  -0.57779  -0.56832
 Alpha  occ. eigenvalues --   -0.55351  -0.54931  -0.53497  -0.52369  -0.49103
 Alpha  occ. eigenvalues --   -0.47109  -0.37115
 Alpha virt. eigenvalues --   -0.27221  -0.15099  -0.12237  -0.11672  -0.10782
 Alpha virt. eigenvalues --   -0.10336  -0.09814  -0.07842  -0.07716  -0.07623
 Alpha virt. eigenvalues --   -0.07343  -0.06167  -0.05884  -0.05657  -0.05451
 Alpha virt. eigenvalues --   -0.04420  -0.04018  -0.03409  -0.03212  -0.02113
 Alpha virt. eigenvalues --   -0.01732  -0.00786  -0.00782  -0.00194   0.00253
 Alpha virt. eigenvalues --    0.00680   0.01169   0.01421   0.01506   0.01888
 Alpha virt. eigenvalues --    0.02065   0.02730   0.02869   0.02931   0.03531
 Alpha virt. eigenvalues --    0.03968   0.04001   0.04511   0.05177   0.05513
 Alpha virt. eigenvalues --    0.05789   0.06083   0.06182   0.06331   0.07357
 Alpha virt. eigenvalues --    0.07435   0.07603   0.07790   0.07879   0.08263
 Alpha virt. eigenvalues --    0.08491   0.08984   0.09747   0.10038   0.10164
 Alpha virt. eigenvalues --    0.10686   0.11334   0.11423   0.11897   0.12286
 Alpha virt. eigenvalues --    0.12933   0.13144   0.13344   0.13634   0.14056
 Alpha virt. eigenvalues --    0.14717   0.16157   0.16491   0.17178   0.17518
 Alpha virt. eigenvalues --    0.18323   0.18640   0.19584   0.20201   0.20439
 Alpha virt. eigenvalues --    0.21096   0.22353   0.22705   0.23422   0.24256
 Alpha virt. eigenvalues --    0.25503   0.25913   0.26478   0.26996   0.27947
 Alpha virt. eigenvalues --    0.29427   0.30028   0.31540   0.32807   0.35054
 Alpha virt. eigenvalues --    0.37733   0.37882   0.38822   0.39308   0.39365
 Alpha virt. eigenvalues --    0.41002   0.41846   0.43133   0.43295   0.43994
 Alpha virt. eigenvalues --    0.44176   0.44930   0.45647   0.46590   0.47179
 Alpha virt. eigenvalues --    0.48041   0.48061   0.48912   0.50665   0.51135
 Alpha virt. eigenvalues --    0.51779   0.52139   0.52776   0.53515   0.54574
 Alpha virt. eigenvalues --    0.54907   0.56506   0.57915   0.58615   0.58779
 Alpha virt. eigenvalues --    0.59986   0.60835   0.62074   0.62383   0.63100
 Alpha virt. eigenvalues --    0.64940   0.65020   0.66512   0.66970   0.67614
 Alpha virt. eigenvalues --    0.70472   0.71446   0.72794   0.73204   0.74242
 Alpha virt. eigenvalues --    0.75083   0.75473   0.76459   0.77650   0.78003
 Alpha virt. eigenvalues --    0.78908   0.79940   0.80067   0.81375   0.81616
 Alpha virt. eigenvalues --    0.82585   0.82948   0.83980   0.84456   0.84660
 Alpha virt. eigenvalues --    0.87418   0.90167   0.90612   0.91397   0.92622
 Alpha virt. eigenvalues --    0.94520   0.94573   0.95999   0.97486   0.97759
 Alpha virt. eigenvalues --    0.99164   1.00407   1.02218   1.03167   1.04153
 Alpha virt. eigenvalues --    1.05892   1.06503   1.06856   1.07541   1.13132
 Alpha virt. eigenvalues --    1.15942   1.15943   1.18958   1.20969   1.26321
 Alpha virt. eigenvalues --    1.30029   1.33111   1.34293   1.35514   1.35966
 Alpha virt. eigenvalues --    1.37656   1.38416   1.40382   1.42065   1.42814
 Alpha virt. eigenvalues --    1.45404   1.45981   1.47399   1.47496   1.49743
 Alpha virt. eigenvalues --    1.50425   1.54106   1.54654   1.54882   1.56742
 Alpha virt. eigenvalues --    1.57065   1.57456   1.58542   1.59255   1.59536
 Alpha virt. eigenvalues --    1.63580   1.64187   1.65499   1.67323   1.68121
 Alpha virt. eigenvalues --    1.69664   1.70618   1.71213   1.73905   1.75527
 Alpha virt. eigenvalues --    1.75710   1.76887   1.77575   1.79815   1.80957
 Alpha virt. eigenvalues --    1.83274   1.83289   1.83566   1.85706   1.86528
 Alpha virt. eigenvalues --    1.87952   1.87955   1.89792   1.90881   1.94070
 Alpha virt. eigenvalues --    1.94630   1.97649   1.99916   2.00857   2.02493
 Alpha virt. eigenvalues --    2.02512   2.04192   2.09635   2.09757   2.13374
 Alpha virt. eigenvalues --    2.16058   2.16763   2.18629   2.19932   2.23088
 Alpha virt. eigenvalues --    2.24052   2.27526   2.30430   2.31359   2.32647
 Alpha virt. eigenvalues --    2.36124   2.37560   2.39178   2.41427   2.42560
 Alpha virt. eigenvalues --    2.43946   2.45453   2.49470   2.52312   2.55534
 Alpha virt. eigenvalues --    2.56343   2.57692   2.58491   2.58800   2.61066
 Alpha virt. eigenvalues --    2.61435   2.61749   2.63112   2.64053   2.64694
 Alpha virt. eigenvalues --    2.65243   2.65434   2.66317   2.67061   2.68997
 Alpha virt. eigenvalues --    2.69441   2.70513   2.72173   2.74271   2.75254
 Alpha virt. eigenvalues --    2.75862   2.76176   2.78885   2.83604   2.85176
 Alpha virt. eigenvalues --    2.86820   2.88574   2.90718   2.92982   2.98639
 Alpha virt. eigenvalues --    2.98799   2.99717   3.01611   3.04341   3.07435
 Alpha virt. eigenvalues --    3.08813   3.16280   3.21042   3.29469   3.30218
 Alpha virt. eigenvalues --    3.33018   3.37200   3.42060   3.49673   3.56258
 Alpha virt. eigenvalues --    3.60383   3.61664   3.61930   3.66758   3.73699
 Alpha virt. eigenvalues --    3.74907   3.82043   3.83399   3.87295   3.91897
 Alpha virt. eigenvalues --    3.98774   4.01103   4.06549   4.15160   4.25452
 Alpha virt. eigenvalues --    4.37600   4.50960   4.53525  23.42429  23.48908
 Alpha virt. eigenvalues --   23.53933  23.57203  23.58737  23.84087  23.94577
 Alpha virt. eigenvalues --   23.96820  24.19433  24.27209  24.53821  24.56345
 Alpha virt. eigenvalues --   25.02475  25.11587
          Condensed to atoms (all electrons):
               1          2          3          4          5          6
     1  C   10.351801  -1.996848   0.834438   2.390852  -0.085270  -0.118871
     2  C   -1.996848   8.866509  -1.716286  -1.437715   0.163857   0.002669
     3  C    0.834438  -1.716286   8.128062   1.009043  -0.258302   0.020860
     4  C    2.390852  -1.437715   1.009043   8.772584   0.005881  -0.095190
     5  C   -0.085270   0.163857  -0.258302   0.005881  13.141168   0.213276
     6  C   -0.118871   0.002669   0.020860  -0.095190   0.213276   7.003229
     7  C    0.061575  -0.035284  -0.013340  -0.076366  -1.271333   0.372980
     8  C    0.505780  -0.133012  -0.027919   0.211679   0.801917  -0.758484
     9  C   -1.668699  -0.334265   0.323102  -1.384368   1.019786   0.286011
    10  C   -0.936634   0.905455  -1.359745  -1.324523  -2.169483   0.394347
    11  C   -0.908332  -0.654786   1.531939  -1.091867  -0.283770  -0.312248
    12  C   -2.397004   2.660301  -1.824343  -0.565393  -2.716002   0.297306
    13  C    0.072371  -0.764948   0.415580  -1.416372  -1.444047   0.669072
    14  C   -0.383503   0.614926  -0.930128   0.602058  -1.527731  -1.865041
    15  H    0.368339  -0.102628   0.031235   0.028796  -0.003792  -0.000491
    16  H   -0.029664   0.360988  -0.004597  -0.016580   0.000350  -0.000042
    17  H   -0.040552   0.020308   0.342086  -0.027367  -0.002565   0.000205
    18  H    0.059844   0.025898  -0.141702   0.457556   0.033910  -0.009544
    19  H   -0.044306  -0.013072   0.079686  -0.021451  -0.226126   0.046341
    20  H    0.005952   0.001526  -0.005346   0.012652   0.577970  -0.070815
    21  H   -0.001927  -0.000054   0.000551  -0.001035  -0.076057   0.421876
    22  H    0.003390   0.000144  -0.000589  -0.000952   0.036296  -0.050375
    23  H   -0.005867  -0.004810   0.003824   0.005021   0.006882   0.006895
    24  H   -0.006030   0.010241  -0.007348  -0.015077  -0.005625   0.000826
    25  H   -0.006030   0.010241  -0.007348  -0.015077  -0.005625   0.000826
               7          8          9         10         11         12
     1  C    0.061575   0.505780  -1.668699  -0.936634  -0.908332  -2.397004
     2  C   -0.035284  -0.133012  -0.334265   0.905455  -0.654786   2.660301
     3  C   -0.013340  -0.027919   0.323102  -1.359745   1.531939  -1.824343
     4  C   -0.076366   0.211679  -1.384368  -1.324523  -1.091867  -0.565393
     5  C   -1.271333   0.801917   1.019786  -2.169483  -0.283770  -2.716002
     6  C    0.372980  -0.758484   0.286011   0.394347  -0.312248   0.297306
     7  C    9.464889   0.546385  -2.248345  -0.130464  -0.452798  -0.444824
     8  C    0.546385   7.610580  -1.240229  -0.571029   0.061713  -1.280334
     9  C   -2.248345  -1.240229  10.869829   0.218237   1.168040  -0.176602
    10  C   -0.130464  -0.571029   0.218237   8.770716  -1.096299   1.385816
    11  C   -0.452798   0.061713   1.168040  -1.096299  11.179098  -0.010668
    12  C   -0.444824  -1.280334  -0.176602   1.385816  -0.010668  13.006113
    13  C   -1.118892   0.758826   1.449232  -0.127104  -0.297215  -2.687098
    14  C    1.431873  -1.071494  -2.692565   1.676348  -2.563761   0.186059
    15  H    0.002244   0.014929   0.067888  -0.019384  -0.056624  -0.041520
    16  H   -0.000059  -0.000483   0.003798   0.002173   0.031288  -0.003045
    17  H   -0.000252  -0.000479  -0.002618   0.000723   0.001603   0.058755
    18  H    0.004139   0.005804  -0.042362   0.103455  -0.061296  -0.153374
    19  H   -0.009742  -0.005991   0.041106   0.350259   0.092948   0.124176
    20  H    0.004042   0.028736  -0.006616  -0.028890   0.002611  -0.096518
    21  H   -0.033765  -0.010294   0.003270   0.010768  -0.007633   0.005083
    22  H    0.398321  -0.027634  -0.015971  -0.020694   0.007800  -0.019207
    23  H   -0.121488   0.396829   0.072705   0.011765  -0.028872   0.009606
    24  H    0.021280   0.053257   0.363705   0.012306  -0.052908  -0.034221
    25  H    0.021280   0.053257   0.363705   0.012306  -0.052908  -0.034221
              13         14         15         16         17         18
     1  C    0.072371  -0.383503   0.368339  -0.029664  -0.040552   0.059844
     2  C   -0.764948   0.614926  -0.102628   0.360988   0.020308   0.025898
     3  C    0.415580  -0.930128   0.031235  -0.004597   0.342086  -0.141702
     4  C   -1.416372   0.602058   0.028796  -0.016580  -0.027367   0.457556
     5  C   -1.444047  -1.527731  -0.003792   0.000350  -0.002565   0.033910
     6  C    0.669072  -1.865041  -0.000491  -0.000042   0.000205  -0.009544
     7  C   -1.118892   1.431873   0.002244  -0.000059  -0.000252   0.004139
     8  C    0.758826  -1.071494   0.014929  -0.000483  -0.000479   0.005804
     9  C    1.449232  -2.692565   0.067888   0.003798  -0.002618  -0.042362
    10  C   -0.127104   1.676348  -0.019384   0.002173   0.000723   0.103455
    11  C   -0.297215  -2.563761  -0.056624   0.031288   0.001603  -0.061296
    12  C   -2.687098   0.186059  -0.041520  -0.003045   0.058755  -0.153374
    13  C   16.713763  -5.809906   0.032459  -0.005251   0.000561  -0.042032
    14  C   -5.809906  18.122502  -0.011876   0.001154  -0.007023   0.081482
    15  H    0.032459  -0.011876   0.464506  -0.005994   0.000763  -0.001176
    16  H   -0.005251   0.001154  -0.005994   0.431044  -0.002144   0.001726
    17  H    0.000561  -0.007023   0.000763  -0.002144   0.423144  -0.007217
    18  H   -0.042032   0.081482  -0.001176   0.001726  -0.007217   0.502953
    19  H    0.168346  -0.213717  -0.000005  -0.000282   0.000651  -0.015441
    20  H   -0.009760  -0.071208  -0.000036   0.000001  -0.000083   0.002167
    21  H    0.026131   0.003790  -0.000025  -0.000002   0.000007  -0.000390
    22  H    0.016270   0.002342  -0.000055   0.000003  -0.000008   0.000112
    23  H   -0.032370   0.013564   0.000506  -0.000186   0.000067  -0.000491
    24  H    0.039973  -0.045140  -0.000120   0.000850  -0.000246   0.000598
    25  H    0.039973  -0.045140  -0.000120   0.000850  -0.000246   0.000598
              19         20         21         22         23         24
     1  C   -0.044306   0.005952  -0.001927   0.003390  -0.005867  -0.006030
     2  C   -0.013072   0.001526  -0.000054   0.000144  -0.004810   0.010241
     3  C    0.079686  -0.005346   0.000551  -0.000589   0.003824  -0.007348
     4  C   -0.021451   0.012652  -0.001035  -0.000952   0.005021  -0.015077
     5  C   -0.226126   0.577970  -0.076057   0.036296   0.006882  -0.005625
     6  C    0.046341  -0.070815   0.421876  -0.050375   0.006895   0.000826
     7  C   -0.009742   0.004042  -0.033765   0.398321  -0.121488   0.021280
     8  C   -0.005991   0.028736  -0.010294  -0.027634   0.396829   0.053257
     9  C    0.041106  -0.006616   0.003270  -0.015971   0.072705   0.363705
    10  C    0.350259  -0.028890   0.010768  -0.020694   0.011765   0.012306
    11  C    0.092948   0.002611  -0.007633   0.007800  -0.028872  -0.052908
    12  C    0.124176  -0.096518   0.005083  -0.019207   0.009606  -0.034221
    13  C    0.168346  -0.009760   0.026131   0.016270  -0.032370   0.039973
    14  C   -0.213717  -0.071208   0.003790   0.002342   0.013564  -0.045140
    15  H   -0.000005  -0.000036  -0.000025  -0.000055   0.000506  -0.000120
    16  H   -0.000282   0.000001  -0.000002   0.000003  -0.000186   0.000850
    17  H    0.000651  -0.000083   0.000007  -0.000008   0.000067  -0.000246
    18  H   -0.015441   0.002167  -0.000390   0.000112  -0.000491   0.000598
    19  H    0.482244  -0.009504   0.003565  -0.000800   0.001540   0.000600
    20  H   -0.009504   0.428529  -0.011690   0.002799  -0.000251   0.000034
    21  H    0.003565  -0.011690   0.409748  -0.007082   0.002041  -0.000022
    22  H   -0.000800   0.002799  -0.007082   0.393239  -0.006587   0.000561
    23  H    0.001540  -0.000251   0.002041  -0.006587   0.425137  -0.001917
    24  H    0.000600   0.000034  -0.000022   0.000561  -0.001917   0.473472
    25  H    0.000600   0.000034  -0.000022   0.000561  -0.001917  -0.065416
              25
     1  C   -0.006030
     2  C    0.010241
     3  C   -0.007348
     4  C   -0.015077
     5  C   -0.005625
     6  C    0.000826
     7  C    0.021280
     8  C    0.053257
     9  C    0.363705
    10  C    0.012306
    11  C   -0.052908
    12  C   -0.034221
    13  C    0.039973
    14  C   -0.045140
    15  H   -0.000120
    16  H    0.000850
    17  H   -0.000246
    18  H    0.000598
    19  H    0.000600
    20  H    0.000034
    21  H   -0.000022
    22  H    0.000561
    23  H   -0.001917
    24  H   -0.065416
    25  H    0.473472
 Mulliken charges:
               1
     1  C   -0.024804
     2  C   -0.449351
     3  C   -0.423412
     4  C   -0.006787
     5  C    0.074434
     6  C   -0.455619
     7  C   -0.372054
     8  C    0.077692
     9  C   -0.437774
    10  C   -0.070427
    11  C   -0.145054
    12  C    0.751158
    13  C   -0.647563
    14  C    0.502134
    15  H    0.232182
    16  H    0.234102
    17  H    0.241928
    18  H    0.194784
    19  H    0.168377
    20  H    0.243664
    21  H    0.263167
    22  H    0.288117
    23  H    0.248371
    24  H    0.256368
    25  H    0.256368
 Sum of Mulliken charges =   1.00000
 Mulliken charges with hydrogens summed into heavy atoms:
               1
     1  C    0.207378
     2  C   -0.215250
     3  C   -0.181484
     4  C    0.187997
     5  C    0.318098
     6  C   -0.192452
     7  C   -0.083937
     8  C    0.326062
     9  C    0.074962
    10  C    0.097950
    11  C   -0.145054
    12  C    0.751158
    13  C   -0.647563
    14  C    0.502134
 Electronic spatial extent (au):  <R**2>=           2866.7498
 Charge=              1.0000 electrons
 Dipole moment (field-independent basis, Debye):
    X=             -2.4203    Y=             -5.3809    Z=              0.0000  Tot=              5.9002
 Quadrupole moment (field-independent basis, Debye-Ang):
   XX=            -47.8932   YY=            -35.6232   ZZ=            -83.5121
   XY=             13.8466   XZ=              0.0000   YZ=             -0.0000
 Traceless Quadrupole moment (field-independent basis, Debye-Ang):
   XX=              7.7830   YY=             20.0529   ZZ=            -27.8359
   XY=             13.8466   XZ=              0.0000   YZ=             -0.0000
 Octapole moment (field-independent basis, Debye-Ang**2):
  XXX=            -21.0412  YYY=            -57.9857  ZZZ=              0.0000  XYY=            -13.2478
  XXY=             -8.8988  XXZ=              0.0000  XZZ=             -1.9755  YZZ=            -10.1767
  YYZ=              0.0000  XYZ=             -0.0000
 Hexadecapole moment (field-independent basis, Debye-Ang**3):
 XXXX=          -1092.8518 YYYY=          -1725.1555 ZZZZ=            -98.1752 XXXY=           -367.7893
 XXXZ=              0.0000 YYYX=           -300.3083 YYYZ=             -0.0000 ZZZX=             -0.0000
 ZZZY=             -0.0000 XXYY=           -441.7693 XXZZ=           -270.1350 YYZZ=           -464.1955
 XXYZ=             -0.0000 YYXZ=              0.0000 ZZXY=           -200.0475
 N-N= 7.841253117559D+02 E-N=-2.805526881637D+03  KE= 5.390912512999D+02
 Symmetry A'   KE= 5.240691990915D+02
 Symmetry A"   KE= 1.502205220837D+01
 Unable to Open any file for archive entry.
 1\1\GINC-GADI-CPU-CLX-0240\SP\RM062X TD-FC\6-311++G(d,p)\C14H11(1+)\TS
 1578\02-Aug-2022\0\\#n M062X/6-311++G(d,p) TD(NStates=1) EmpiricalDisp
 ersion=GD3 SP\\SP_-10\\1,1\C,0,0.,2.730655,1.426431\C,0,0.,3.911508,0.
 721989\C,0,0.,3.725861,-0.58983\C,0,0.,2.191156,-1.273538\C,0,0.,-2.73
 5156,-1.541538\C,0,0.,-3.641861,-0.83783\C,0,0.,-3.491508,0.621989\C,0
 ,0.,-2.254655,1.294431\C,0,0.,0.056,1.453369\C,0,0.,-0.254,-1.429189\C
 ,0,0.,1.208055,0.693065\C,0,0.,1.123471,-0.606804\C,0,0.,-1.316055,0.6
 61065\C,0,0.,-1.351471,-0.854804\H,0,0.,2.700071,2.509647\H,0,0.,4.888
 753,1.179689\H,0,0.,4.535262,-1.342349\H,0,0.,2.22155,-2.356059\H,0,0.
 ,-0.064,-2.510266\H,0,0.,-2.71355,-2.624059\H,0,0.,-4.683262,-1.202349
 \H,0,0.,-4.384753,1.243689\H,0,0.,-2.276071,2.377647\H,0,-0.859585,0.2
 96,2.145787\H,0,0.859585,0.296,2.145787\\Version=ES64L-G16RevC.01\Stat
 e=1-A'\HF=-539.3876509\RMSD=4.575e-09\PG=CS [SG(C14H9),X(H2)]\\@
 The archive entry for this job was punched.


 HEAVEN'S NET CASTS WIDE.
 THOUGH ITS MESHES ARE COARSE, NOTHING SLIPS THROUGH.

                                          -- LAO-TSU
 Job cpu time:       0 days  0 hours 54 minutes 47.5 seconds.
 Elapsed time:       0 days  0 hours  1 minutes  8.6 seconds.
 File lengths (MBytes):  RWF=    460 Int=      0 D2E=      0 Chk=     15 Scr=      1
 Normal termination of Gaussian 16 at Tue Aug  2 12:03:31 2022.
