 Entering Gaussian System, Link 0=g16
 Initial command:
 /apps/gaussian/g16c01/g16/l1.exe "/jobfs/53803565.gadi-pbs/Gau-1025578.inp" -scrdir="/jobfs/53803565.gadi-pbs/"
 Entering Link 1 = /apps/gaussian/g16c01/g16/l1.exe PID=   1025579.
  
 Copyright (c) 1988-2019, Gaussian, Inc.  All Rights Reserved.
  
 This is part of the Gaussian(R) 16 program.  It is based on
 the Gaussian(R) 09 system (copyright 2009, Gaussian, Inc.),
 the Gaussian(R) 03 system (copyright 2003, Gaussian, Inc.),
 the Gaussian(R) 98 system (copyright 1998, Gaussian, Inc.),
 the Gaussian(R) 94 system (copyright 1995, Gaussian, Inc.),
 the Gaussian 92(TM) system (copyright 1992, Gaussian, Inc.),
 the Gaussian 90(TM) system (copyright 1990, Gaussian, Inc.),
 the Gaussian 88(TM) system (copyright 1988, Gaussian, Inc.),
 the Gaussian 86(TM) system (copyright 1986, Carnegie Mellon
 University), and the Gaussian 82(TM) system (copyright 1983,
 Carnegie Mellon University). Gaussian is a federally registered
 trademark of Gaussian, Inc.
  
 This software contains proprietary and confidential information,
 including trade secrets, belonging to Gaussian, Inc.
  
 This software is provided under written license and may be
 used, copied, transmitted, or stored only in accord with that
 written license.
  
 The following legend is applicable only to US Government
 contracts under FAR:
  
                    RESTRICTED RIGHTS LEGEND
  
 Use, reproduction and disclosure by the US Government is
 subject to restrictions as set forth in subparagraphs (a)
 and (c) of the Commercial Computer Software - Restricted
 Rights clause in FAR 52.227-19.
  
 Gaussian, Inc.
 340 Quinnipiac St., Bldg. 40, Wallingford CT 06492
  
  
 ---------------------------------------------------------------
 Warning -- This program may not be used in any manner that
 competes with the business of Gaussian, Inc. or will provide
 assistance to any competitor of Gaussian, Inc.  The licensee
 of this program is prohibited from giving any competitor of
 Gaussian, Inc. access to this program.  By using this program,
 the user acknowledges that Gaussian, Inc. is engaged in the
 business of creating and licensing software in the field of
 computational chemistry and represents and warrants to the
 licensee that it is not a competitor of Gaussian, Inc. and that
 it will not use this program in any manner prohibited above.
 ---------------------------------------------------------------
  

 Cite this work as:
 Gaussian 16, Revision C.01,
 M. J. Frisch, G. W. Trucks, H. B. Schlegel, G. E. Scuseria, 
 M. A. Robb, J. R. Cheeseman, G. Scalmani, V. Barone, 
 G. A. Petersson, H. Nakatsuji, X. Li, M. Caricato, A. V. Marenich, 
 J. Bloino, B. G. Janesko, R. Gomperts, B. Mennucci, H. P. Hratchian, 
 J. V. Ortiz, A. F. Izmaylov, J. L. Sonnenberg, D. Williams-Young, 
 F. Ding, F. Lipparini, F. Egidi, J. Goings, B. Peng, A. Petrone, 
 T. Henderson, D. Ranasinghe, V. G. Zakrzewski, J. Gao, N. Rega, 
 G. Zheng, W. Liang, M. Hada, M. Ehara, K. Toyota, R. Fukuda, 
 J. Hasegawa, M. Ishida, T. Nakajima, Y. Honda, O. Kitao, H. Nakai, 
 T. Vreven, K. Throssell, J. A. Montgomery, Jr., J. E. Peralta, 
 F. Ogliaro, M. J. Bearpark, J. J. Heyd, E. N. Brothers, K. N. Kudin, 
 V. N. Staroverov, T. A. Keith, R. Kobayashi, J. Normand, 
 K. Raghavachari, A. P. Rendell, J. C. Burant, S. S. Iyengar, 
 J. Tomasi, M. Cossi, J. M. Millam, M. Klene, C. Adamo, R. Cammi, 
 J. W. Ochterski, R. L. Martin, K. Morokuma, O. Farkas, 
 J. B. Foresman, and D. J. Fox, Gaussian, Inc., Wallingford CT, 2019.
 
 ******************************************
 Gaussian 16:  ES64L-G16RevC.01  3-Jul-2019
                 2-Aug-2022 
 ******************************************
 %NProcShared=48
 Will use up to   48 processors via shared memory.
 %mem = 190GB
 ---------------------------------------------------------------
 #n M062X/6-311++G(d,p) TD(NStates=1) EmpiricalDispersion=GD3 SP
 ---------------------------------------------------------------
 1/38=1,172=1/1;
 2/12=2,17=6,18=5,40=1/2;
 3/5=4,6=6,7=1111,11=9,25=1,30=1,74=-55,124=31/1,2,3,8;
 4//1;
 5/5=2,38=5/2;
 8/6=1,10=2,108=1/1;
 9/41=1,42=1,70=2/14;
 6/7=2,8=2,9=2,10=2/1;
 99/5=1,9=1/99;
 -----
 SP_-8
 -----
 Symbolic Z-matrix:
 Charge =  1 Multiplicity = 1
 C                     0.        2.54266   1.29443 
 C                     0.        3.81551   0.76599 
 C                     0.        3.80386  -0.54983 
 C                     0.        2.37516  -1.39754 
 C                     0.       -2.55116  -1.41754 
 C                     0.       -3.56386  -0.87783 
 C                     0.       -3.58751   0.57799 
 C                     0.       -2.44266   1.42643 
 C                     0.        0.088     1.45337 
 C                     0.       -0.268    -1.42919 
 C                     0.        1.15406   0.46307 
 C                     0.        1.18947  -0.8368 
 C                     0.       -1.37006   0.89107 
 C                     0.       -1.28547  -0.6248 
 H                     0.        2.36607   2.37765 
 H                     0.        4.70875   1.36969 
 H                     0.        4.70126  -1.16635 
 H                     0.        2.55155  -2.48006 
 H                     0.       -0.386    -2.51027 
 H                     0.       -2.38355  -2.50006 
 H                     0.       -4.51726  -1.37835 
 H                     0.       -4.56475   1.05369 
 H                     0.       -2.61007   2.50965 
 H                    -0.85959   0.496     2.14579 
 H                     0.85959   0.496     2.14579 
 
                          Input orientation:                          
 ---------------------------------------------------------------------
 Center     Atomic      Atomic             Coordinates (Angstroms)
 Number     Number       Type             X           Y           Z
 ---------------------------------------------------------------------
      1          6           0        0.000000    2.542655    1.294431
      2          6           0        0.000000    3.815508    0.765989
      3          6           0        0.000000    3.803861   -0.549830
      4          6           0        0.000000    2.375156   -1.397538
      5          6           0        0.000000   -2.551156   -1.417538
      6          6           0        0.000000   -3.563861   -0.877830
      7          6           0        0.000000   -3.587508    0.577989
      8          6           0        0.000000   -2.442655    1.426431
      9          6           0        0.000000    0.088000    1.453369
     10          6           0        0.000000   -0.268000   -1.429189
     11          6           0        0.000000    1.154055    0.463065
     12          6           0        0.000000    1.189471   -0.836804
     13          6           0        0.000000   -1.370055    0.891065
     14          6           0        0.000000   -1.285471   -0.624804
     15          1           0        0.000000    2.366071    2.377647
     16          1           0        0.000000    4.708753    1.369689
     17          1           0        0.000000    4.701262   -1.166349
     18          1           0        0.000000    2.551550   -2.480059
     19          1           0        0.000000   -0.386000   -2.510266
     20          1           0        0.000000   -2.383550   -2.500059
     21          1           0        0.000000   -4.517262   -1.378349
     22          1           0        0.000000   -4.564753    1.053689
     23          1           0        0.000000   -2.610071    2.509647
     24          1           0       -0.859585    0.496000    2.145787
     25          1           0        0.859585    0.496000    2.145787
 ---------------------------------------------------------------------
                    Distance matrix (angstroms):
                    1          2          3          4          5
     1  C    0.000000
     2  C    1.378189   0.000000
     3  C    2.234265   1.315871   0.000000
     4  C    2.697175   2.599127   1.661267   0.000000
     5  C    5.770761   6.730691   6.413981   4.926353   0.000000
     6  C    6.481378   7.560240   7.375019   5.961713   1.147544
     7  C    6.171887   7.405403   7.476919   6.281407   2.248589
     8  C    4.987057   6.292916   6.551684   5.584452   2.846038
     9  C    2.459795   3.790357   4.221425   3.654963   3.899648
    10  C    3.913807   4.636145   4.165732   2.643345   2.283186
    11  C    1.618450   2.678637   2.836799   2.225518   4.155148
    12  C    2.524534   3.076527   2.630093   1.311591   3.785438
    13  C    3.933447   5.187071   5.370809   4.389113   2.593193
    14  C    4.282290   5.287182   5.089884   3.741298   1.493448
    15  H    1.097515   2.167558   3.261497   3.775196   6.211485
    16  H    2.167405   1.078119   2.122118   3.619837   7.776562
    17  H    3.273381   2.125674   1.088772   2.337567   7.256767
    18  H    3.774500   3.483449   2.300884   1.096798   5.212155
    19  H    4.801327   5.327900   4.625824   2.976936   2.425274
    20  H    6.218171   7.006810   6.487484   4.884755   1.095419
    21  H    7.548919   8.604257   8.362268   6.892445   1.966497
    22  H    7.111484   8.385198   8.520855   7.360085   3.187716
    23  H    5.294085   6.657958   7.106259   6.333923   3.927627
    24  H    2.377497   3.696196   4.352836   4.101861   4.766690
    25  H    2.377497   3.696196   4.352836   4.101861   4.766690
                    6          7          8          9         10
     6  C    0.000000
     7  C    1.456011   0.000000
     8  C    2.562562   1.424971   0.000000
     9  C    4.332502   3.778313   2.530798   0.000000
    10  C    3.341661   3.879162   3.589386   2.904458   0.000000
    11  C    4.904766   4.742956   3.723493   1.455052   2.367037
    12  C    4.753509   4.982085   4.279553   2.541285   1.573258
    13  C    2.818115   2.239445   1.198786   1.562725   2.568677
    14  C    2.292397   2.597323   2.355131   2.491029   1.297028
    15  H    6.764778   6.219636   4.901903   2.458434   4.629290
    16  H    8.572484   8.333951   7.151633   4.621511   5.709798
    17  H    8.270157   8.470326   7.599872   5.305196   4.976208
    18  H    6.321819   6.858549   6.340564   4.641221   3.009018
    19  H    3.572625   4.448255   4.441555   3.991877   1.087498
    20  H    2.006181   3.305132   3.926935   4.662419   2.371142
    21  H    1.076797   2.166033   3.488665   5.406206   4.249566
    22  H    2.175443   1.086875   2.154585   4.669888   4.962537
    23  H    3.519192   2.164875   1.096077   2.897466   4.582546
    24  H    5.134551   4.457793   3.145163   1.176772   3.755401
    25  H    5.134551   4.457793   3.145163   1.176772   3.755401
                   11         12         13         14         15
    11  C    0.000000
    12  C    1.300351   0.000000
    13  C    2.560140   3.088156   0.000000
    14  C    2.671095   2.484005   1.518227   0.000000
    15  H    2.265967   3.423022   4.021015   4.727417   0.000000
    16  H    3.668494   4.153788   6.097621   6.317335   2.550321
    17  H    3.903546   3.527219   6.410448   6.011177   4.244175
    18  H    3.258062   2.134373   5.171408   4.262007   4.861246
    19  H    3.348502   2.298387   3.540821   2.089023   5.609420
    20  H    4.614624   3.941180   3.539335   2.173099   6.808151
    21  H    5.962771   5.732371   3.880097   3.318479   7.841414
    22  H    5.749226   6.056819   3.198834   3.683888   7.056145
    23  H    4.284524   5.063127   2.038982   3.402844   4.977892
    24  H    2.000869   3.180509   2.407358   3.404218   2.071186
    25  H    2.000869   3.180509   2.407358   3.404218   2.071186
                   16         17         18         19         20
    16  H    0.000000
    17  H    2.536049   0.000000
    18  H    4.412945   2.519344   0.000000
    19  H    6.403949   5.261782   2.937705   0.000000
    20  H    8.079339   7.209254   4.935141   1.997576   0.000000
    21  H    9.626581   9.220961   7.154150   4.283522   2.410593
    22  H    9.278888   9.528253   7.945385   5.492154   4.169745
    23  H    7.407070   8.183431   7.179101   5.490539   5.014825
    24  H    4.369039   5.421564   5.134455   4.816185   5.533044
    25  H    4.369039   5.421564   5.134455   4.816185   5.533044
                   21         22         23         24         25
    21  H    0.000000
    22  H    2.432502   0.000000
    23  H    4.330576   2.437334   0.000000
    24  H    6.187990   5.248122   3.243294   0.000000
    25  H    6.187990   5.248122   3.243294   1.719170   0.000000
 Stoichiometry    C14H11(1+)
 Framework group  CS[SG(C14H9),X(H2)]
 Deg. of freedom    46
 Full point group                 CS      NOp   2
 Largest Abelian subgroup         CS      NOp   2
 Largest concise Abelian subgroup CS      NOp   2
                         Standard orientation:                         
 ---------------------------------------------------------------------
 Center     Atomic      Atomic             Coordinates (Angstroms)
 Number     Number       Type             X           Y           Z
 ---------------------------------------------------------------------
      1          6           0        0.253166    2.839498    0.000000
      2          6           0       -0.712069    3.823229    0.000000
      3          6           0       -1.928503    3.321429    0.000000
      4          6           0       -2.181866    1.679597    0.000000
      5          6           0       -0.362183   -2.898361    0.000000
      6          6           0        0.516431   -3.636531    0.000000
      7          6           0        1.875924   -3.115235    0.000000
      8          6           0        2.235886   -1.736479    0.000000
      9          6           0        1.316572    0.621445    0.000000
     10          6           0       -1.224945   -0.784460    0.000000
     11          6           0        0.000000    1.240972    0.000000
     12          6           0       -1.219198    0.788788    0.000000
     13          6           0        1.338951   -0.941120    0.000000
     14          6           0       -0.098993   -1.428288    0.000000
     15          1           0        1.324036    3.079867    0.000000
     16          1           0       -0.485285    4.877226    0.000000
     17          1           0       -2.835355    3.923961    0.000000
     18          1           0       -3.252020    1.439311    0.000000
     19          1           0       -2.183907   -1.297338    0.000000
     20          1           0       -1.429057   -3.146801    0.000000
     21          1           0        0.407823   -4.707837    0.000000
     22          1           0        2.681921   -3.844390    0.000000
     23          1           0        3.303334   -1.487604    0.000000
     24          1           0        1.806734    1.258349    0.859585
     25          1           0        1.806734    1.258349   -0.859585
 ---------------------------------------------------------------------
 Rotational constants (GHZ):           2.1201609           0.4432490           0.3673990
 Standard basis: 6-311++G(d,p) (5D, 7F)
 There are   299 symmetry adapted cartesian basis functions of A'  symmetry.
 There are   100 symmetry adapted cartesian basis functions of A"  symmetry.
 There are   285 symmetry adapted basis functions of A'  symmetry.
 There are   100 symmetry adapted basis functions of A"  symmetry.
   385 basis functions,   603 primitive gaussians,   399 cartesian basis functions
    47 alpha electrons       47 beta electrons
       nuclear repulsion energy       781.8724407024 Hartrees.
 NAtoms=   25 NActive=   25 NUniq=   24 SFac= 1.09D+00 NAtFMM=   60 NAOKFM=F Big=F
 Integral buffers will be    131072 words long.
 Regular integral format.
 Two-electron integral symmetry is turned on.
 Nuclear repulsion after empirical dispersion term =      781.8714741944 Hartrees.
 One-electron integrals computed using PRISM.
 NBasis=   385 RedAO= T EigKep=  1.02D-06  NBF=   285   100
 NBsUse=   379 1.00D-06 EigRej=  7.34D-07 NBFU=   279   100
 ExpMin= 3.60D-02 ExpMax= 4.56D+03 ExpMxC= 6.82D+02 IAcc=3 IRadAn=         5 AccDes= 0.00D+00
 Harris functional with IExCor= 1009 and IRadAn=       5 diagonalized for initial guess.
 HarFok:  IExCor= 1009 AccDes= 0.00D+00 IRadAn=         5 IDoV= 1 UseB2=F ITyADJ=14
 ICtDFT=  3500011 ScaDFX=  1.000000  1.000000  1.000000  1.000000
 FoFCou: FMM=F IPFlag=           0 FMFlag=      100000 FMFlg1=           0
         NFxFlg=           0 DoJE=T BraDBF=F KetDBF=T FulRan=T
         wScrn=  0.000000 ICntrl=       500 IOpCl=  0 I1Cent=   200000004 NGrid=           0
         NMat0=    1 NMatS0=      1 NMatT0=    0 NMatD0=    1 NMtDS0=    0 NMtDT0=    0
 Petite list used in FoFCou.
 Initial guess orbital symmetries:
       Occupied  (A') (A') (A') (A') (A') (A') (A') (A') (A') (A')
                 (A') (A') (A') (A') (A') (A') (A') (A') (A') (A')
                 (A') (A') (A') (A') (A') (A') (A') (A') (A') (A')
                 (A') (A') (A') (A") (A') (A') (A") (A') (A') (A")
                 (A') (A') (A") (A") (A') (A") (A")
       Virtual   (A") (A") (A") (A") (A") (A') (A') (A') (A') (A')
                 (A") (A') (A') (A") (A') (A') (A") (A') (A') (A')
                 (A') (A") (A') (A') (A") (A') (A") (A') (A') (A")
                 (A') (A') (A') (A") (A') (A') (A') (A') (A') (A")
                 (A") (A') (A") (A') (A') (A') (A') (A') (A') (A')
                 (A") (A') (A") (A") (A') (A') (A") (A') (A') (A")
                 (A') (A') (A') (A') (A') (A") (A') (A') (A") (A')
                 (A') (A') (A') (A') (A') (A') (A') (A') (A') (A')
                 (A') (A') (A') (A') (A') (A') (A') (A') (A') (A')
                 (A') (A') (A') (A') (A") (A') (A") (A') (A') (A')
                 (A") (A') (A") (A') (A') (A") (A') (A") (A') (A")
                 (A") (A") (A') (A") (A') (A') (A') (A') (A") (A")
                 (A") (A') (A') (A') (A') (A") (A') (A') (A") (A')
                 (A') (A') (A') (A') (A') (A') (A') (A') (A") (A')
                 (A') (A') (A') (A') (A') (A") (A') (A') (A') (A')
                 (A") (A") (A') (A') (A') (A") (A') (A') (A") (A')
                 (A") (A') (A") (A") (A") (A") (A') (A') (A') (A')
                 (A") (A') (A') (A') (A') (A') (A') (A') (A") (A")
                 (A') (A") (A') (A') (A") (A') (A") (A') (A") (A')
                 (A") (A') (A") (A') (A') (A') (A') (A") (A') (A")
                 (A") (A') (A") (A') (A") (A") (A') (A') (A") (A')
                 (A') (A') (A') (A") (A') (A") (A') (A') (A') (A")
                 (A") (A') (A') (A") (A') (A') (A') (A") (A') (A')
                 (A") (A') (A") (A') (A') (A') (A") (A") (A') (A")
                 (A') (A') (A') (A") (A') (A') (A') (A') (A') (A')
                 (A") (A') (A') (A") (A") (A') (A') (A") (A') (A')
                 (A") (A') (A') (A') (A') (A") (A') (A') (A") (A")
                 (A') (A') (A') (A") (A") (A') (A') (A") (A') (A")
                 (A') (A') (A") (A') (A') (A") (A") (A') (A') (A')
                 (A') (A') (A') (A') (A') (A') (A') (A') (A') (A")
                 (A') (A') (A') (A') (A') (A') (A') (A') (A') (A')
                 (A') (A') (A') (A') (A') (A') (A') (A') (A') (A')
                 (A') (A') (A') (A') (A') (A') (A') (A') (A') (A')
                 (A') (A')
 The electronic state of the initial guess is 1-A'.
 Requested convergence on RMS density matrix=1.00D-08 within 128 cycles.
 Requested convergence on MAX density matrix=1.00D-06.
 Requested convergence on             energy=1.00D-06.
 No special actions if energy rises.
 SCF Done:  E(RM062X) =  -539.470109735     A.U. after   16 cycles
            NFock= 16  Conv=0.64D-08     -V/T= 2.0021
 DoSCS=F DFT=T ScalE2(SS,OS)=  1.000000  1.000000
 ExpMin= 3.60D-02 ExpMax= 4.56D+03 ExpMxC= 6.82D+02 IAcc=3 IRadAn=         5 AccDes= 0.00D+00
 HarFok:  IExCor=  205 AccDes= 0.00D+00 IRadAn=         5 IDoV=-2 UseB2=F ITyADJ=14
 ICtDFT= 12500011 ScaDFX=  1.000000  1.000000  1.000000  1.000000
 Range of M.O.s used for correlation:    15   379
 NBasis=   385 NAE=    47 NBE=    47 NFC=    14 NFV=     0
 NROrb=    365 NOA=    33 NOB=    33 NVA=   332 NVB=   332

 **** Warning!!: The largest alpha MO coefficient is  0.16169058D+03

 Orbital symmetries:
       Occupied  (A') (A') (A') (A') (A') (A') (A') (A') (A') (A')
                 (A') (A') (A') (A') (A') (A') (A') (A') (A') (A')
                 (A') (A') (A') (A') (A') (A') (A') (A') (A') (A')
                 (A') (A") (A') (A') (A') (A') (A") (A') (A") (A')
                 (A') (A') (A") (A") (A') (A") (A")
       Virtual   (A") (A") (A") (A') (A") (A') (A') (A') (A') (A")
                 (A') (A") (A') (A') (A") (A') (A") (A') (A') (A')
                 (A") (A") (A') (A') (A') (A') (A') (A") (A') (A')
                 (A") (A") (A') (A') (A") (A') (A') (A') (A") (A')
                 (A') (A") (A') (A') (A") (A') (A") (A") (A') (A')
                 (A') (A') (A") (A') (A') (A') (A') (A") (A') (A')
                 (A') (A') (A') (A") (A') (A') (A") (A') (A') (A')
                 (A') (A') (A') (A') (A') (A') (A') (A') (A') (A')
                 (A') (A') (A') (A') (A') (A') (A') (A') (A') (A')
                 (A') (A') (A") (A') (A") (A') (A') (A') (A") (A')
                 (A") (A') (A') (A") (A') (A") (A') (A") (A') (A")
                 (A') (A") (A') (A") (A') (A') (A") (A') (A") (A')
                 (A") (A') (A') (A") (A') (A') (A") (A') (A') (A')
                 (A') (A') (A') (A') (A') (A') (A') (A') (A') (A')
                 (A') (A') (A') (A') (A") (A') (A') (A') (A") (A')
                 (A') (A') (A') (A') (A") (A') (A") (A") (A') (A')
                 (A") (A") (A") (A') (A') (A") (A') (A") (A") (A')
                 (A") (A') (A') (A') (A') (A') (A') (A") (A') (A")
                 (A') (A') (A") (A') (A") (A") (A') (A') (A") (A')
                 (A") (A') (A") (A') (A') (A') (A") (A') (A') (A")
                 (A") (A') (A') (A") (A") (A') (A") (A') (A') (A")
                 (A') (A') (A') (A') (A") (A') (A") (A') (A') (A")
                 (A') (A") (A') (A") (A') (A') (A') (A") (A') (A")
                 (A') (A') (A") (A') (A') (A') (A") (A") (A') (A")
                 (A') (A') (A") (A') (A') (A') (A') (A') (A') (A')
                 (A") (A') (A') (A') (A') (A') (A") (A') (A") (A')
                 (A') (A') (A") (A') (A") (A') (A') (A') (A') (A')
                 (A") (A') (A") (A") (A') (A") (A") (A') (A') (A")
                 (A') (A") (A") (A') (A') (A") (A") (A') (A') (A')
                 (A') (A') (A') (A') (A') (A') (A') (A') (A") (A')
                 (A') (A') (A') (A') (A') (A') (A') (A') (A') (A')
                 (A') (A') (A') (A') (A') (A') (A') (A') (A') (A')
                 (A') (A') (A') (A') (A') (A') (A') (A') (A') (A')
                 (A') (A')
     4 initial guesses have been made.
 Convergence on wavefunction:    0.001000000000000
 Iteration     1 Dimension     4 NMult     0 NNew      4
 CISAX will form     4 AO SS matrices at one time.
 Iteration     2 Dimension     6 NMult     4 NNew      2
 Iteration     3 Dimension     8 NMult     6 NNew      2
 Iteration     4 Dimension    10 NMult     8 NNew      2
 Iteration     5 Dimension    12 NMult    10 NNew      2
 Iteration     6 Dimension    14 NMult    12 NNew      2
 ***********************************************************************
 Excited states from <AA,BB:AA,BB> singles matrix:
 ***********************************************************************
 
 Ground to excited state transition densities written to RWF  633
 Ground to excited state transition electric dipole moments (Au):
       state          X           Y           Z        Dip. S.      Osc.
         1        -0.1278      1.0910     -0.0000      1.2067      0.0418
 Ground to excited state transition velocity dipole moments (Au):
       state          X           Y           Z        Dip. S.      Osc.
         1        -0.0004     -0.0538      0.0000      0.0029      0.0371
 Ground to excited state transition magnetic dipole moments (Au):
       state          X           Y           Z
         1         0.0000     -0.0000     -0.2869
 Ground to excited state transition velocity quadrupole moments (Au):
       state          XX          YY          ZZ          XY          XZ          YZ
         1         0.0317      0.0347     -0.0050     -0.0669      0.0000      0.0000
 <0|del|b> * <b|rxdel|0> + <0|del|b> * <b|delr+rdel|0>
 Rotatory Strengths (R) in cgs (10**-40 erg-esu-cm/Gauss)
       state          XX          YY          ZZ    R(velocity)    E-M Angle
         1         0.0000     -0.0000      0.0000      0.0000       90.00
 1/2[<0|r|b>*<b|rxdel|0> + (<0|rxdel|b>*<b|r|0>)*]
 Rotatory Strengths (R) in cgs (10**-40 erg-esu-cm/Gauss)
       state          XX          YY          ZZ     R(length)
         1         0.0000      0.0000     -0.0000      0.0000
  1/2[<0|del|b>*<b|r|0> + (<0|r|b>*<b|del|0>)*] (Au)
       state          X           Y           Z        Dip. S.   Osc.(frdel)
         1         0.0000     -0.0587     -0.0000      0.0587      0.0391

 Excitation energies and oscillator strengths:
 
 Excited State   1:      Singlet-A'     1.4155 eV  875.88 nm  f=0.0418  <S**2>=0.000
      47 -> 48         0.70245
 This state for optimization and/or second-order correction.
 Total Energy, E(TD-HF/TD-DFT) =  -539.418089737    
 Copying the excited state density for this state as the 1-particle RhoCI density.
 SavETr:  write IOETrn=   770 NScale= 10 NData=  16 NLR=1 NState=    1 LETran=      28.

 **********************************************************************

            Population analysis using the SCF Density.

 **********************************************************************

 Orbital symmetries:
       Occupied  (A') (A') (A') (A') (A') (A') (A') (A') (A') (A')
                 (A') (A') (A') (A') (A') (A') (A') (A') (A') (A')
                 (A') (A') (A') (A') (A') (A') (A') (A') (A') (A')
                 (A') (A") (A') (A') (A') (A') (A") (A') (A") (A')
                 (A') (A') (A") (A") (A') (A") (A")
       Virtual   (A") (A") (A") (A') (A") (A') (A') (A') (A') (A")
                 (A') (A") (A') (A') (A") (A') (A") (A') (A') (A')
                 (A") (A") (A') (A') (A') (A') (A') (A") (A') (A')
                 (A") (A") (A') (A') (A") (A') (A') (A') (A") (A')
                 (A') (A") (A') (A') (A") (A') (A") (A") (A') (A')
                 (A') (A') (A") (A') (A') (A') (A') (A") (A') (A')
                 (A') (A') (A') (A") (A') (A') (A") (A') (A') (A')
                 (A') (A') (A') (A') (A') (A') (A') (A') (A') (A')
                 (A') (A') (A') (A') (A') (A') (A') (A') (A') (A')
                 (A') (A') (A") (A') (A") (A') (A') (A') (A") (A')
                 (A") (A') (A') (A") (A') (A") (A') (A") (A') (A")
                 (A') (A") (A') (A") (A') (A') (A") (A') (A") (A')
                 (A") (A') (A') (A") (A') (A') (A") (A') (A') (A')
                 (A') (A') (A') (A') (A') (A') (A') (A') (A') (A')
                 (A') (A') (A') (A') (A") (A') (A') (A') (A") (A')
                 (A') (A') (A') (A') (A") (A') (A") (A") (A') (A')
                 (A") (A") (A") (A') (A') (A") (A') (A") (A") (A')
                 (A") (A') (A') (A') (A') (A') (A') (A") (A') (A")
                 (A') (A') (A") (A') (A") (A") (A') (A') (A") (A')
                 (A") (A') (A") (A') (A') (A') (A") (A') (A') (A")
                 (A") (A') (A') (A") (A") (A') (A") (A') (A') (A")
                 (A') (A') (A') (A') (A") (A') (A") (A') (A') (A")
                 (A') (A") (A') (A") (A') (A') (A') (A") (A') (A")
                 (A') (A') (A") (A') (A') (A') (A") (A") (A') (A")
                 (A') (A') (A") (A') (A') (A') (A') (A') (A') (A')
                 (A") (A') (A') (A') (A') (A') (A") (A') (A") (A')
                 (A') (A') (A") (A') (A") (A') (A') (A') (A') (A')
                 (A") (A') (A") (A") (A') (A") (A") (A') (A') (A")
                 (A') (A") (A") (A') (A') (A") (A") (A') (A') (A')
                 (A') (A') (A') (A') (A') (A') (A') (A') (A") (A')
                 (A') (A') (A') (A') (A') (A') (A') (A') (A') (A')
                 (A') (A') (A') (A') (A') (A') (A') (A') (A') (A')
                 (A') (A') (A') (A') (A') (A') (A') (A') (A') (A')
                 (A') (A')
 The electronic state is 1-A'.
 Alpha  occ. eigenvalues --  -10.77406 -10.75655 -10.75308 -10.73081 -10.72571
 Alpha  occ. eigenvalues --  -10.71512 -10.71273 -10.71057 -10.69650 -10.69550
 Alpha  occ. eigenvalues --  -10.69173 -10.68918 -10.68757 -10.66864  -1.18992
 Alpha  occ. eigenvalues --   -1.12669  -1.10126  -1.06600  -1.01952  -1.01132
 Alpha  occ. eigenvalues --   -0.94969  -0.89171  -0.86329  -0.85366  -0.83401
 Alpha  occ. eigenvalues --   -0.77345  -0.76735  -0.74353  -0.71912  -0.69914
 Alpha  occ. eigenvalues --   -0.68696  -0.67357  -0.66541  -0.65564  -0.63777
 Alpha  occ. eigenvalues --   -0.62692  -0.62472  -0.60469  -0.57526  -0.56201
 Alpha  occ. eigenvalues --   -0.55131  -0.54714  -0.53402  -0.52316  -0.50001
 Alpha  occ. eigenvalues --   -0.47011  -0.38127
 Alpha virt. eigenvalues --   -0.26686  -0.15488  -0.13631  -0.11498  -0.11130
 Alpha virt. eigenvalues --   -0.10337  -0.09779  -0.07798  -0.07650  -0.07514
 Alpha virt. eigenvalues --   -0.07408  -0.06338  -0.05768  -0.05432  -0.05382
 Alpha virt. eigenvalues --   -0.04326  -0.04069  -0.03347  -0.03195  -0.01952
 Alpha virt. eigenvalues --   -0.01692  -0.01013  -0.00348  -0.00152   0.00540
 Alpha virt. eigenvalues --    0.01056   0.01233   0.01270   0.01680   0.01909
 Alpha virt. eigenvalues --    0.02059   0.02374   0.03328   0.03445   0.03458
 Alpha virt. eigenvalues --    0.03875   0.04148   0.04529   0.04959   0.05430
 Alpha virt. eigenvalues --    0.05591   0.05849   0.06089   0.06540   0.07289
 Alpha virt. eigenvalues --    0.07766   0.07789   0.08130   0.08189   0.08525
 Alpha virt. eigenvalues --    0.08681   0.08836   0.09445   0.09678   0.10105
 Alpha virt. eigenvalues --    0.10739   0.10820   0.11297   0.11806   0.12720
 Alpha virt. eigenvalues --    0.12825   0.13345   0.13627   0.13667   0.14083
 Alpha virt. eigenvalues --    0.14581   0.15553   0.16450   0.16957   0.17852
 Alpha virt. eigenvalues --    0.18618   0.19379   0.20057   0.20618   0.20812
 Alpha virt. eigenvalues --    0.21207   0.21786   0.23287   0.23588   0.23938
 Alpha virt. eigenvalues --    0.24555   0.25050   0.25867   0.27054   0.27766
 Alpha virt. eigenvalues --    0.28636   0.29410   0.30956   0.32557   0.34066
 Alpha virt. eigenvalues --    0.36599   0.37932   0.38656   0.39133   0.39890
 Alpha virt. eigenvalues --    0.40937   0.41851   0.43083   0.43446   0.43680
 Alpha virt. eigenvalues --    0.44451   0.45011   0.46239   0.46568   0.46723
 Alpha virt. eigenvalues --    0.48024   0.48999   0.49023   0.50677   0.51392
 Alpha virt. eigenvalues --    0.51660   0.52222   0.52799   0.53636   0.53811
 Alpha virt. eigenvalues --    0.55123   0.55576   0.57009   0.57748   0.58858
 Alpha virt. eigenvalues --    0.59188   0.61027   0.62193   0.62335   0.62959
 Alpha virt. eigenvalues --    0.63952   0.64472   0.65068   0.66174   0.68117
 Alpha virt. eigenvalues --    0.69591   0.71349   0.73078   0.73649   0.74064
 Alpha virt. eigenvalues --    0.74571   0.75799   0.76733   0.77279   0.77733
 Alpha virt. eigenvalues --    0.79041   0.79651   0.80084   0.81125   0.81289
 Alpha virt. eigenvalues --    0.81859   0.82564   0.84339   0.84469   0.85003
 Alpha virt. eigenvalues --    0.86913   0.88320   0.89342   0.89854   0.90128
 Alpha virt. eigenvalues --    0.91264   0.92116   0.95288   0.95543   0.97165
 Alpha virt. eigenvalues --    0.97537   0.98975   1.01731   1.01872   1.03901
 Alpha virt. eigenvalues --    1.05179   1.05588   1.06474   1.07428   1.10730
 Alpha virt. eigenvalues --    1.15637   1.17144   1.21608   1.22046   1.28365
 Alpha virt. eigenvalues --    1.30600   1.31743   1.33771   1.35192   1.35216
 Alpha virt. eigenvalues --    1.38276   1.39003   1.39308   1.40389   1.40840
 Alpha virt. eigenvalues --    1.44101   1.44317   1.45724   1.47066   1.48627
 Alpha virt. eigenvalues --    1.48931   1.50178   1.52270   1.54587   1.56219
 Alpha virt. eigenvalues --    1.56544   1.56953   1.57003   1.58563   1.60043
 Alpha virt. eigenvalues --    1.62985   1.63524   1.64696   1.65333   1.67906
 Alpha virt. eigenvalues --    1.69842   1.70061   1.71291   1.73768   1.75023
 Alpha virt. eigenvalues --    1.76506   1.77115   1.78487   1.79347   1.79618
 Alpha virt. eigenvalues --    1.81736   1.81746   1.83814   1.85711   1.85937
 Alpha virt. eigenvalues --    1.86578   1.86709   1.87876   1.90993   1.92001
 Alpha virt. eigenvalues --    1.92198   1.93332   1.96910   1.99270   1.99669
 Alpha virt. eigenvalues --    1.99701   2.04288   2.09443   2.10497   2.14135
 Alpha virt. eigenvalues --    2.15571   2.16993   2.18412   2.18663   2.21014
 Alpha virt. eigenvalues --    2.23496   2.24916   2.29810   2.30423   2.32069
 Alpha virt. eigenvalues --    2.33551   2.37570   2.39015   2.40011   2.42368
 Alpha virt. eigenvalues --    2.43562   2.43702   2.47775   2.49854   2.52013
 Alpha virt. eigenvalues --    2.55716   2.56379   2.57955   2.58490   2.60461
 Alpha virt. eigenvalues --    2.61231   2.62103   2.62518   2.63784   2.64497
 Alpha virt. eigenvalues --    2.64916   2.66241   2.66876   2.68608   2.69843
 Alpha virt. eigenvalues --    2.70722   2.72199   2.73805   2.74223   2.75456
 Alpha virt. eigenvalues --    2.76257   2.78661   2.79722   2.80588   2.84452
 Alpha virt. eigenvalues --    2.86894   2.87742   2.92179   2.93883   2.98158
 Alpha virt. eigenvalues --    2.98660   3.00800   3.02287   3.06181   3.08964
 Alpha virt. eigenvalues --    3.09789   3.15192   3.22101   3.25463   3.28975
 Alpha virt. eigenvalues --    3.31792   3.36701   3.39487   3.44753   3.50279
 Alpha virt. eigenvalues --    3.52867   3.54029   3.58731   3.69721   3.72454
 Alpha virt. eigenvalues --    3.74901   3.82807   3.86091   3.89346   3.91925
 Alpha virt. eigenvalues --    3.99096   4.01122   4.07150   4.11850   4.28623
 Alpha virt. eigenvalues --    4.40115   4.48440   4.56235  23.42008  23.50095
 Alpha virt. eigenvalues --   23.57700  23.59598  23.62143  23.80389  23.83724
 Alpha virt. eigenvalues --   23.93646  24.10568  24.27189  24.29882  24.39262
 Alpha virt. eigenvalues --   24.74598  25.03902
          Condensed to atoms (all electrons):
               1          2          3          4          5          6
     1  C   18.973502  -6.213976   1.028438   4.986992  -0.499130  -0.197191
     2  C   -6.213976  11.860895  -0.888207  -2.893180   0.201424  -0.014764
     3  C    1.028438  -0.888207   6.521919   1.557749  -0.125534   0.010597
     4  C    4.986992  -2.893180   1.557749  11.082342  -1.171663  -0.098983
     5  C   -0.499130   0.201424  -0.125534  -1.171663  11.173977   0.918997
     6  C   -0.197191  -0.014764   0.010597  -0.098983   0.918997   7.312671
     7  C    0.099515  -0.021550  -0.009102  -0.095213  -0.395128   0.503143
     8  C    0.007059   0.093254  -0.088076  -0.396863   1.866581  -0.333518
     9  C    1.201514  -2.474764   0.322401   0.735335  -0.434615   0.038341
    10  C   -0.174019  -0.021861  -0.202369  -0.218678  -3.060480  -0.004494
    11  C   -7.024179   3.101141  -0.520039  -2.822237   0.544049  -0.418171
    12  C   -5.877480   3.546030  -1.186073  -3.374265  -0.433086   0.769648
    13  C    1.216926  -0.717675   0.098250  -0.557515  -1.401022  -0.858000
    14  C   -2.199336   0.662899  -0.534366  -0.814473  -1.509250  -1.651205
    15  H    0.512943  -0.241574   0.043676   0.073227  -0.012991   0.000411
    16  H   -0.071862   0.407531  -0.031101  -0.017180   0.001447  -0.000135
    17  H   -0.039051  -0.001911   0.371677  -0.043153  -0.000625   0.000363
    18  H    0.131344  -0.064720  -0.023365   0.473818   0.003176  -0.002395
    19  H   -0.071831   0.006783   0.023383  -0.069504   0.032801   0.065656
    20  H    0.010210   0.004018  -0.003928  -0.010795   0.475589  -0.059973
    21  H   -0.003167  -0.000103   0.000244   0.000300  -0.056508   0.401868
    22  H    0.003364   0.000701  -0.000286  -0.003158   0.023389  -0.028028
    23  H    0.000103  -0.001666   0.000642   0.003667   0.007268   0.001581
    24  H   -0.043286   0.024689  -0.002274  -0.028164   0.009607   0.000163
    25  H   -0.043286   0.024689  -0.002274  -0.028164   0.009607   0.000163
               7          8          9         10         11         12
     1  C    0.099515   0.007059   1.201514  -0.174019  -7.024179  -5.877480
     2  C   -0.021550   0.093254  -2.474764  -0.021861   3.101141   3.546030
     3  C   -0.009102  -0.088076   0.322401  -0.202369  -0.520039  -1.186073
     4  C   -0.095213  -0.396863   0.735335  -0.218678  -2.822237  -3.374265
     5  C   -0.395128   1.866581  -0.434615  -3.060480   0.544049  -0.433086
     6  C    0.503143  -0.333518   0.038341  -0.004494  -0.418171   0.769648
     7  C    7.317049   1.037561  -0.392427  -0.417303  -0.385522  -0.498477
     8  C    1.037561   8.279101  -0.004341  -1.090240   0.417822  -1.271191
     9  C   -0.392427  -0.004341   9.538915   0.660980  -1.998625  -0.737212
    10  C   -0.417303  -1.090240   0.660980   8.136572  -0.429935   0.740397
    11  C   -0.385522   0.417822  -1.998625  -0.429935  14.570207   2.677451
    12  C   -0.498477  -1.271191  -0.737212   0.740397   2.677451  13.126122
    13  C    0.224383  -0.293981   1.279089   1.001278  -2.243170  -2.221376
    14  C   -0.986464  -2.425800  -1.985776   0.887052   0.169532   0.403073
    15  H    0.002274  -0.009012   0.178347   0.002420  -0.219561  -0.066758
    16  H   -0.000167   0.000620  -0.021493  -0.003438   0.046666   0.027295
    17  H   -0.000309  -0.001427   0.001761   0.001565   0.027260   0.034748
    18  H    0.000815   0.000018   0.002382   0.052889   0.007613  -0.240824
    19  H   -0.005504  -0.021818   0.057806   0.385601  -0.000780   0.193369
    20  H    0.021617   0.041224  -0.025315  -0.000802   0.019709  -0.074465
    21  H   -0.036055  -0.001647  -0.000744   0.014919  -0.008421   0.011713
    22  H    0.400384  -0.040988   0.000043  -0.018939   0.005499  -0.018827
    23  H   -0.068896   0.368478   0.011627  -0.002265  -0.021310   0.005206
    24  H    0.010048   0.041397   0.363981   0.002528  -0.018676  -0.010036
    25  H    0.010048   0.041397   0.363981   0.002528  -0.018676  -0.010036
              13         14         15         16         17         18
     1  C    1.216926  -2.199336   0.512943  -0.071862  -0.039051   0.131344
     2  C   -0.717675   0.662899  -0.241574   0.407531  -0.001911  -0.064720
     3  C    0.098250  -0.534366   0.043676  -0.031101   0.371677  -0.023365
     4  C   -0.557515  -0.814473   0.073227  -0.017180  -0.043153   0.473818
     5  C   -1.401022  -1.509250  -0.012991   0.001447  -0.000625   0.003176
     6  C   -0.858000  -1.651205   0.000411  -0.000135   0.000363  -0.002395
     7  C    0.224383  -0.986464   0.002274  -0.000167  -0.000309   0.000815
     8  C   -0.293981  -2.425800  -0.009012   0.000620  -0.001427   0.000018
     9  C    1.279089  -1.985776   0.178347  -0.021493   0.001761   0.002382
    10  C    1.001278   0.887052   0.002420  -0.003438   0.001565   0.052889
    11  C   -2.243170   0.169532  -0.219561   0.046666   0.027260   0.007613
    12  C   -2.221376   0.403073  -0.066758   0.027295   0.034748  -0.240824
    13  C   13.491292  -2.446498   0.056994  -0.009242  -0.000725  -0.003101
    14  C   -2.446498  18.092287  -0.039669   0.009329  -0.005762  -0.002825
    15  H    0.056994  -0.039669   0.505394  -0.008832   0.000025  -0.000372
    16  H   -0.009242   0.009329  -0.008832   0.430600  -0.003593   0.000977
    17  H   -0.000725  -0.005762   0.000025  -0.003593   0.428899  -0.005188
    18  H   -0.003101  -0.002825  -0.000372   0.000977  -0.005188   0.450238
    19  H   -0.002318  -0.238024  -0.000236  -0.000258   0.000909  -0.008856
    20  H   -0.018032  -0.040065  -0.000085   0.000029  -0.000162   0.001071
    21  H   -0.026497   0.048140  -0.000023  -0.000003   0.000008  -0.000162
    22  H    0.052734  -0.038390  -0.000203   0.000006  -0.000006   0.000001
    23  H   -0.034760   0.078372   0.000555  -0.000068   0.000021  -0.000121
    24  H    0.014050  -0.031682  -0.003253   0.000486   0.000035   0.000131
    25  H    0.014050  -0.031682  -0.003253   0.000486   0.000035   0.000131
              19         20         21         22         23         24
     1  C   -0.071831   0.010210  -0.003167   0.003364   0.000103  -0.043286
     2  C    0.006783   0.004018  -0.000103   0.000701  -0.001666   0.024689
     3  C    0.023383  -0.003928   0.000244  -0.000286   0.000642  -0.002274
     4  C   -0.069504  -0.010795   0.000300  -0.003158   0.003667  -0.028164
     5  C    0.032801   0.475589  -0.056508   0.023389   0.007268   0.009607
     6  C    0.065656  -0.059973   0.401868  -0.028028   0.001581   0.000163
     7  C   -0.005504   0.021617  -0.036055   0.400384  -0.068896   0.010048
     8  C   -0.021818   0.041224  -0.001647  -0.040988   0.368478   0.041397
     9  C    0.057806  -0.025315  -0.000744   0.000043   0.011627   0.363981
    10  C    0.385601  -0.000802   0.014919  -0.018939  -0.002265   0.002528
    11  C   -0.000780   0.019709  -0.008421   0.005499  -0.021310  -0.018676
    12  C    0.193369  -0.074465   0.011713  -0.018827   0.005206  -0.010036
    13  C   -0.002318  -0.018032  -0.026497   0.052734  -0.034760   0.014050
    14  C   -0.238024  -0.040065   0.048140  -0.038390   0.078372  -0.031682
    15  H   -0.000236  -0.000085  -0.000023  -0.000203   0.000555  -0.003253
    16  H   -0.000258   0.000029  -0.000003   0.000006  -0.000068   0.000486
    17  H    0.000909  -0.000162   0.000008  -0.000006   0.000021   0.000035
    18  H   -0.008856   0.001071  -0.000162   0.000001  -0.000121   0.000131
    19  H    0.461569   0.001729   0.001908  -0.000297   0.000451   0.000861
    20  H    0.001729   0.445825  -0.011642   0.002210   0.000184  -0.000001
    21  H    0.001908  -0.011642   0.408946  -0.004490   0.001748  -0.000085
    22  H   -0.000297   0.002210  -0.004490   0.389472  -0.005077   0.000412
    23  H    0.000451   0.000184   0.001748  -0.005077   0.407743  -0.000338
    24  H    0.000861  -0.000001  -0.000085   0.000412  -0.000338   0.475520
    25  H    0.000861  -0.000001  -0.000085   0.000412  -0.000338  -0.072898
              25
     1  C   -0.043286
     2  C    0.024689
     3  C   -0.002274
     4  C   -0.028164
     5  C    0.009607
     6  C    0.000163
     7  C    0.010048
     8  C    0.041397
     9  C    0.363981
    10  C    0.002528
    11  C   -0.018676
    12  C   -0.010036
    13  C    0.014050
    14  C   -0.031682
    15  H   -0.003253
    16  H    0.000486
    17  H    0.000035
    18  H    0.000131
    19  H    0.000861
    20  H   -0.000001
    21  H   -0.000085
    22  H    0.000412
    23  H   -0.000338
    24  H   -0.072898
    25  H    0.475520
 Mulliken charges:
               1
     1  C    0.285884
     2  C   -0.378102
     3  C   -0.361980
     4  C   -0.270242
     5  C   -0.167881
     6  C   -0.356743
     7  C   -0.314720
     8  C   -0.215610
     9  C   -0.681190
    10  C   -0.243903
    11  C    0.542353
    12  C    0.485053
    13  C   -0.615136
    14  C    0.630584
    15  H    0.229554
    16  H    0.241899
    17  H    0.234604
    18  H    0.227324
    19  H    0.185740
    20  H    0.221850
    21  H    0.259838
    22  H    0.280061
    23  H    0.247193
    24  H    0.266785
    25  H    0.266785
 Sum of Mulliken charges =   1.00000
 Mulliken charges with hydrogens summed into heavy atoms:
               1
     1  C    0.515438
     2  C   -0.136202
     3  C   -0.127376
     4  C   -0.042919
     5  C    0.053969
     6  C   -0.096905
     7  C   -0.034659
     8  C    0.031583
     9  C   -0.147621
    10  C   -0.058163
    11  C    0.542353
    12  C    0.485053
    13  C   -0.615136
    14  C    0.630584
 Electronic spatial extent (au):  <R**2>=           2864.4598
 Charge=              1.0000 electrons
 Dipole moment (field-independent basis, Debye):
    X=              2.3657    Y=             -4.2955    Z=             -0.0000  Tot=              4.9038
 Quadrupole moment (field-independent basis, Debye-Ang):
   XX=            -53.9533   YY=            -30.4248   ZZ=            -83.9535
   XY=             -9.0701   XZ=             -0.0000   YZ=              0.0000
 Traceless Quadrupole moment (field-independent basis, Debye-Ang):
   XX=              2.1572   YY=             25.6858   ZZ=            -27.8430
   XY=             -9.0701   XZ=             -0.0000   YZ=              0.0000
 Octapole moment (field-independent basis, Debye-Ang**2):
  XXX=             14.1251  YYY=            -36.3296  ZZZ=             -0.0000  XYY=             14.7685
  XXY=            -19.8315  XXZ=              0.0000  XZZ=              5.7549  YZZ=             -6.2931
  YYZ=              0.0000  XYZ=              0.0000
 Hexadecapole moment (field-independent basis, Debye-Ang**3):
 XXXX=           -832.9832 YYYY=          -1945.2774 ZZZZ=            -99.2194 XXXY=            275.9490
 XXXZ=              0.0000 YYYX=            194.4294 YYYZ=              0.0000 ZZZX=             -0.0000
 ZZZY=              0.0000 XXYY=           -465.1216 XXZZ=           -203.1333 YYZZ=           -530.9693
 XXYZ=              0.0000 YYXZ=             -0.0000 ZZXY=            145.7531
 N-N= 7.818714741944D+02 E-N=-2.800480679237D+03  KE= 5.383608214039D+02
 Symmetry A'   KE= 5.234945483918D+02
 Symmetry A"   KE= 1.486627301214D+01
 Unable to Open any file for archive entry.
 1\1\GINC-GADI-CPU-CLX-0240\SP\RM062X TD-FC\6-311++G(d,p)\C14H11(1+)\TS
 1578\02-Aug-2022\0\\#n M062X/6-311++G(d,p) TD(NStates=1) EmpiricalDisp
 ersion=GD3 SP\\SP_-8\\1,1\C,0,0.,2.542655,1.294431\C,0,0.,3.815508,0.7
 65989\C,0,0.,3.803861,-0.54983\C,0,0.,2.375156,-1.397538\C,0,0.,-2.551
 156,-1.417538\C,0,0.,-3.563861,-0.87783\C,0,0.,-3.587508,0.577989\C,0,
 0.,-2.442655,1.426431\C,0,0.,0.088,1.453369\C,0,0.,-0.268,-1.429189\C,
 0,0.,1.154055,0.463065\C,0,0.,1.189471,-0.836804\C,0,0.,-1.370055,0.89
 1065\C,0,0.,-1.285471,-0.624804\H,0,0.,2.366071,2.377647\H,0,0.,4.7087
 53,1.369689\H,0,0.,4.701262,-1.166349\H,0,0.,2.55155,-2.480059\H,0,0.,
 -0.386,-2.510266\H,0,0.,-2.38355,-2.500059\H,0,0.,-4.517262,-1.378349\
 H,0,0.,-4.564753,1.053689\H,0,0.,-2.610071,2.509647\H,0,-0.859585,0.49
 6,2.145787\H,0,0.859585,0.496,2.145787\\Version=ES64L-G16RevC.01\State
 =1-A'\HF=-539.4701097\RMSD=6.413e-09\PG=CS [SG(C14H9),X(H2)]\\@
 The archive entry for this job was punched.


 THE TRULY SUCCESSFUL PERFORMANCE OF RESEARCHES IN
 INORGANIC CHEMISTRY IS POSSIBLE ONLY TO ONE WHO IS NOT
 ONLY A THEORETICAL CHEMIST, BUT ALSO AN ACCOMPLISHED
 ANALYST AND, MOREOVER, NOT MERELY A PRACTICALLY TRAINED,
 MECHANICAL WORKER, BUT A THINKING CREATIVE ARTIST.
   --  CLEMENS WINKLER, BER. 33, 1697(1900)
 Job cpu time:       0 days  0 hours 53 minutes 21.5 seconds.
 Elapsed time:       0 days  0 hours  1 minutes  6.8 seconds.
 File lengths (MBytes):  RWF=    460 Int=      0 D2E=      0 Chk=     15 Scr=      1
 Normal termination of Gaussian 16 at Tue Aug  2 12:04:38 2022.
