 Entering Gaussian System, Link 0=g16
 Initial command:
 /apps/gaussian/g16c01/g16/l1.exe "/jobfs/53803565.gadi-pbs/Gau-1063327.inp" -scrdir="/jobfs/53803565.gadi-pbs/"
 Entering Link 1 = /apps/gaussian/g16c01/g16/l1.exe PID=   1063328.
  
 Copyright (c) 1988-2019, Gaussian, Inc.  All Rights Reserved.
  
 This is part of the Gaussian(R) 16 program.  It is based on
 the Gaussian(R) 09 system (copyright 2009, Gaussian, Inc.),
 the Gaussian(R) 03 system (copyright 2003, Gaussian, Inc.),
 the Gaussian(R) 98 system (copyright 1998, Gaussian, Inc.),
 the Gaussian(R) 94 system (copyright 1995, Gaussian, Inc.),
 the Gaussian 92(TM) system (copyright 1992, Gaussian, Inc.),
 the Gaussian 90(TM) system (copyright 1990, Gaussian, Inc.),
 the Gaussian 88(TM) system (copyright 1988, Gaussian, Inc.),
 the Gaussian 86(TM) system (copyright 1986, Carnegie Mellon
 University), and the Gaussian 82(TM) system (copyright 1983,
 Carnegie Mellon University). Gaussian is a federally registered
 trademark of Gaussian, Inc.
  
 This software contains proprietary and confidential information,
 including trade secrets, belonging to Gaussian, Inc.
  
 This software is provided under written license and may be
 used, copied, transmitted, or stored only in accord with that
 written license.
  
 The following legend is applicable only to US Government
 contracts under FAR:
  
                    RESTRICTED RIGHTS LEGEND
  
 Use, reproduction and disclosure by the US Government is
 subject to restrictions as set forth in subparagraphs (a)
 and (c) of the Commercial Computer Software - Restricted
 Rights clause in FAR 52.227-19.
  
 Gaussian, Inc.
 340 Quinnipiac St., Bldg. 40, Wallingford CT 06492
  
  
 ---------------------------------------------------------------
 Warning -- This program may not be used in any manner that
 competes with the business of Gaussian, Inc. or will provide
 assistance to any competitor of Gaussian, Inc.  The licensee
 of this program is prohibited from giving any competitor of
 Gaussian, Inc. access to this program.  By using this program,
 the user acknowledges that Gaussian, Inc. is engaged in the
 business of creating and licensing software in the field of
 computational chemistry and represents and warrants to the
 licensee that it is not a competitor of Gaussian, Inc. and that
 it will not use this program in any manner prohibited above.
 ---------------------------------------------------------------
  

 Cite this work as:
 Gaussian 16, Revision C.01,
 M. J. Frisch, G. W. Trucks, H. B. Schlegel, G. E. Scuseria, 
 M. A. Robb, J. R. Cheeseman, G. Scalmani, V. Barone, 
 G. A. Petersson, H. Nakatsuji, X. Li, M. Caricato, A. V. Marenich, 
 J. Bloino, B. G. Janesko, R. Gomperts, B. Mennucci, H. P. Hratchian, 
 J. V. Ortiz, A. F. Izmaylov, J. L. Sonnenberg, D. Williams-Young, 
 F. Ding, F. Lipparini, F. Egidi, J. Goings, B. Peng, A. Petrone, 
 T. Henderson, D. Ranasinghe, V. G. Zakrzewski, J. Gao, N. Rega, 
 G. Zheng, W. Liang, M. Hada, M. Ehara, K. Toyota, R. Fukuda, 
 J. Hasegawa, M. Ishida, T. Nakajima, Y. Honda, O. Kitao, H. Nakai, 
 T. Vreven, K. Throssell, J. A. Montgomery, Jr., J. E. Peralta, 
 F. Ogliaro, M. J. Bearpark, J. J. Heyd, E. N. Brothers, K. N. Kudin, 
 V. N. Staroverov, T. A. Keith, R. Kobayashi, J. Normand, 
 K. Raghavachari, A. P. Rendell, J. C. Burant, S. S. Iyengar, 
 J. Tomasi, M. Cossi, J. M. Millam, M. Klene, C. Adamo, R. Cammi, 
 J. W. Ochterski, R. L. Martin, K. Morokuma, O. Farkas, 
 J. B. Foresman, and D. J. Fox, Gaussian, Inc., Wallingford CT, 2019.
 
 ******************************************
 Gaussian 16:  ES64L-G16RevC.01  3-Jul-2019
                 2-Aug-2022 
 ******************************************
 %NProcShared=48
 Will use up to   48 processors via shared memory.
 %mem = 190GB
 ---------------------------------------------------------------
 #n M062X/6-311++G(d,p) TD(NStates=1) EmpiricalDispersion=GD3 SP
 ---------------------------------------------------------------
 1/38=1,172=1/1;
 2/12=2,17=6,18=5,40=1/2;
 3/5=4,6=6,7=1111,11=9,25=1,30=1,74=-55,124=31/1,2,3,8;
 4//1;
 5/5=2,38=5/2;
 8/6=1,10=2,108=1/1;
 9/41=1,42=1,70=2/14;
 6/7=2,8=2,9=2,10=2/1;
 99/5=1,9=1/99;
 ----
 SP_8
 ----
 Symbolic Z-matrix:
 Charge =  1 Multiplicity = 1
 C                     0.        2.41665   1.40443 
 C                     0.        3.57751   0.58799 
 C                     0.        3.57986  -0.86583 
 C                     0.        2.57516  -1.43554 
 C                     0.       -2.35116  -1.37954 
 C                     0.       -3.78786  -0.56183 
 C                     0.       -3.82551   0.75599 
 C                     0.       -2.56866   1.31643 
 C                     0.       -0.08      1.45337 
 C                     0.        0.256    -1.42919 
 C                     0.        1.35806   0.84907 
 C                     0.        1.29347  -0.6628 
 C                     0.       -1.16606   0.50507 
 C                     0.       -1.18147  -0.7988 
 H                     0.        2.55607   2.48765 
 H                     0.        4.54075   1.08769 
 H                     0.        4.54526  -1.34835 
 H                     0.        2.43555  -2.51806 
 H                     0.        0.324    -2.51027 
 H                     0.       -2.49955  -2.46206 
 H                     0.       -4.67326  -1.19635 
 H                     0.       -4.73275   1.33569 
 H                     0.       -2.42007   2.39965 
 H                    -0.85959  -0.448     2.14579 
 H                     0.85959  -0.448     2.14579 
 
                          Input orientation:                          
 ---------------------------------------------------------------------
 Center     Atomic      Atomic             Coordinates (Angstroms)
 Number     Number       Type             X           Y           Z
 ---------------------------------------------------------------------
      1          6           0        0.000000    2.416655    1.404431
      2          6           0        0.000000    3.577508    0.587989
      3          6           0        0.000000    3.579861   -0.865830
      4          6           0        0.000000    2.575156   -1.435538
      5          6           0        0.000000   -2.351156   -1.379538
      6          6           0        0.000000   -3.787861   -0.561830
      7          6           0        0.000000   -3.825508    0.755989
      8          6           0        0.000000   -2.568655    1.316431
      9          6           0        0.000000   -0.080000    1.453369
     10          6           0        0.000000    0.256000   -1.429189
     11          6           0        0.000000    1.358055    0.849065
     12          6           0        0.000000    1.293471   -0.662804
     13          6           0        0.000000   -1.166055    0.505065
     14          6           0        0.000000   -1.181471   -0.798804
     15          1           0        0.000000    2.556071    2.487647
     16          1           0        0.000000    4.540753    1.087689
     17          1           0        0.000000    4.545262   -1.348349
     18          1           0        0.000000    2.435550   -2.518059
     19          1           0        0.000000    0.324000   -2.510266
     20          1           0        0.000000   -2.499550   -2.462059
     21          1           0        0.000000   -4.673262   -1.196349
     22          1           0        0.000000   -4.732753    1.335689
     23          1           0        0.000000   -2.420071    2.399647
     24          1           0       -0.859585   -0.448000    2.145787
     25          1           0        0.859585   -0.448000    2.145787
 ---------------------------------------------------------------------
                    Distance matrix (angstroms):
                    1          2          3          4          5
     1  C    0.000000
     2  C    1.419210   0.000000
     3  C    2.550908   1.453821   0.000000
     4  C    2.844389   2.258179   1.154989   0.000000
     5  C    5.521096   6.246617   5.953223   4.926630   0.000000
     6  C    6.508625   7.454579   7.373991   6.422721   1.653108
     7  C    6.275753   7.404922   7.580883   6.765448   2.595032
     8  C    4.986087   6.189180   6.524302   5.833706   2.704728
     9  C    2.497135   3.758490   4.332813   3.923727   3.630911
    10  C    3.563402   3.886055   3.371265   2.319165   2.607629
    11  C    1.195435   2.234756   2.806650   2.588580   4.327230
    12  C    2.352659   2.604094   2.295386   1.496608   3.714433
    13  C    3.693869   4.744288   4.939947   4.214570   2.226251
    14  C    4.219094   4.956922   4.761804   3.810207   1.305915
    15  H    1.092151   2.156857   3.506274   3.923231   6.247879
    16  H    2.147584   1.085146   2.177051   3.198476   7.320220
    17  H    3.479765   2.164706   1.079270   1.972034   6.896489
    18  H    3.922536   3.309321   2.009803   1.091486   4.920242
    19  H    4.438925   4.492716   3.647575   2.494543   2.904308
    20  H    6.254504   6.799517   6.285474   5.177488   1.092645
    21  H    7.551886   8.441509   8.259739   7.252363   2.329321
    22  H    7.149738   8.343830   8.599200   7.815704   3.611712
    23  H    4.938054   6.265226   6.830997   6.297693   3.779813
    24  H    3.081354   4.401174   5.102194   4.764897   4.097414
    25  H    3.081354   4.401174   5.102194   4.764897   4.097414
                    6          7          8          9         10
     6  C    0.000000
     7  C    1.318357   0.000000
     8  C    2.239269   1.376145   0.000000
     9  C    4.220102   3.809878   2.492420   0.000000
    10  C    4.135834   4.629656   3.939176   2.902075   0.000000
    11  C    5.335829   5.184399   3.954426   1.559867   2.530804
    12  C    5.082335   5.311960   4.339745   2.522818   1.289842
    13  C    2.830571   2.671264   1.620371   1.441803   2.400746
    14  C    2.617141   3.067297   2.529525   2.507094   1.569620
    15  H    7.038806   6.612351   5.256859   2.831713   4.542239
    16  H    8.490390   8.372834   7.113087   4.635200   4.969284
    17  H    8.370158   8.631224   7.596635   5.407649   4.290024
    18  H    6.523624   7.065426   6.304394   4.701088   2.436406
    19  H    4.550143   5.280799   4.796985   3.984171   1.083213
    20  H    2.295782   3.480517   3.779122   4.602695   2.942767
    21  H    1.089288   2.128453   3.277718   5.302741   4.934758
    22  H    2.119764   1.076636   2.164184   4.654241   5.703701
    23  H    3.262085   2.162606   1.093359   2.524158   4.671332
    24  H    4.384603   3.752064   2.433905   1.163509   3.743655
    25  H    4.384603   3.752064   2.433905   1.163509   3.743655
                   11         12         13         14         15
    11  C    0.000000
    12  C    1.513248   0.000000
    13  C    2.547443   2.722717   0.000000
    14  C    3.027320   2.478676   1.303960   0.000000
    15  H    2.029826   3.394039   4.217209   4.976945   0.000000
    16  H    3.191631   3.689047   5.736472   6.025172   2.428754
    17  H    3.871294   3.323269   6.004522   5.753040   4.321082
    18  H    3.535325   2.178604   4.702216   4.004832   5.007157
    19  H    3.514879   2.086382   3.363404   2.279374   5.473689
    20  H    5.083764   4.198134   3.253004   2.122204   7.075231
    21  H    6.368713   5.990540   3.898116   3.514349   8.113882
    22  H    6.110216   6.348964   3.662140   4.143388   7.379293
    23  H    4.083937   4.813419   2.272003   3.429901   4.976920
    24  H    2.383738   3.414644   1.986569   3.153963   3.143278
    25  H    2.383738   3.414644   1.986569   3.153963   3.143278
                   16         17         18         19         20
    16  H    0.000000
    17  H    2.436042   0.000000
    18  H    4.175320   2.412282   0.000000
    19  H    5.543130   4.378254   2.111564   0.000000
    20  H    7.884578   7.132302   4.935418   2.823961   0.000000
    21  H    9.492887   9.219777   7.230638   5.167108   2.515362
    22  H    9.276822   9.658448   8.138547   6.353119   4.405688
    23  H    7.083382   7.909699   6.910925   5.624693   4.862356
    24  H    5.171665   6.154717   5.550244   4.797260   5.116638
    25  H    5.171665   6.154717   5.550244   4.797260   5.116638
                   21         22         23         24         25
    21  H    0.000000
    22  H    2.532737   0.000000
    23  H    4.243590   2.545684   0.000000
    24  H    5.455419   4.444576   2.166194   0.000000
    25  H    5.455419   4.444576   2.166194   1.719170   0.000000
 Stoichiometry    C14H11(1+)
 Framework group  CS[SG(C14H9),X(H2)]
 Deg. of freedom    46
 Full point group                 CS      NOp   2
 Largest Abelian subgroup         CS      NOp   2
 Largest concise Abelian subgroup CS      NOp   2
                         Standard orientation:                         
 ---------------------------------------------------------------------
 Center     Atomic      Atomic             Coordinates (Angstroms)
 Number     Number       Type             X           Y           Z
 ---------------------------------------------------------------------
      1          6           0       -2.251611   -1.659915    0.000000
      2          6           0       -1.964936   -3.049870    0.000000
      3          6           0       -0.632285   -3.630934    0.000000
      4          6           0        0.290379   -2.936173    0.000000
      5          6           0        2.200650    1.605033    0.000000
      6          6           0        2.022657    3.248531    0.000000
      7          6           0        0.828812    3.807815    0.000000
      8          6           0       -0.185756    2.878070    0.000000
      9          6           0       -1.302343    0.649754    0.000000
     10          6           0        1.208034   -0.806283    0.000000
     11          6           0       -1.320643   -0.910005    0.000000
     12          6           0        0.091912   -1.452783    0.000000
     13          6           0        0.000000    1.268382    0.000000
     14          6           0        1.202178    0.763327    0.000000
     15          1           0       -3.300760   -1.356468    0.000000
     16          1           0       -2.806872   -3.734476    0.000000
     17          1           0       -0.574089   -4.708633    0.000000
     18          1           0        1.338966   -3.239169    0.000000
     19          1           0        2.172629   -1.299140    0.000000
     20          1           0        3.252736    1.310099    0.000000
     21          1           0        2.957265    3.808046    0.000000
     22          1           0        0.658315    4.870866    0.000000
     23          1           0       -1.238556    3.173106    0.000000
     24          1           0       -1.790962    1.263039    0.859585
     25          1           0       -1.790962    1.263039   -0.859585
 ---------------------------------------------------------------------
 Rotational constants (GHZ):           2.1294051           0.4431933           0.3676373
 Standard basis: 6-311++G(d,p) (5D, 7F)
 There are   299 symmetry adapted cartesian basis functions of A'  symmetry.
 There are   100 symmetry adapted cartesian basis functions of A"  symmetry.
 There are   285 symmetry adapted basis functions of A'  symmetry.
 There are   100 symmetry adapted basis functions of A"  symmetry.
   385 basis functions,   603 primitive gaussians,   399 cartesian basis functions
    47 alpha electrons       47 beta electrons
       nuclear repulsion energy       782.4802278651 Hartrees.
 NAtoms=   25 NActive=   25 NUniq=   24 SFac= 1.09D+00 NAtFMM=   60 NAOKFM=F Big=F
 Integral buffers will be    131072 words long.
 Regular integral format.
 Two-electron integral symmetry is turned on.
 Nuclear repulsion after empirical dispersion term =      782.4792602979 Hartrees.
 One-electron integrals computed using PRISM.
 NBasis=   385 RedAO= T EigKep=  1.01D-06  NBF=   285   100
 NBsUse=   379 1.00D-06 EigRej=  7.58D-07 NBFU=   279   100
 ExpMin= 3.60D-02 ExpMax= 4.56D+03 ExpMxC= 6.82D+02 IAcc=3 IRadAn=         5 AccDes= 0.00D+00
 Harris functional with IExCor= 1009 and IRadAn=       5 diagonalized for initial guess.
 HarFok:  IExCor= 1009 AccDes= 0.00D+00 IRadAn=         5 IDoV= 1 UseB2=F ITyADJ=14
 ICtDFT=  3500011 ScaDFX=  1.000000  1.000000  1.000000  1.000000
 FoFCou: FMM=F IPFlag=           0 FMFlag=      100000 FMFlg1=           0
         NFxFlg=           0 DoJE=T BraDBF=F KetDBF=T FulRan=T
         wScrn=  0.000000 ICntrl=       500 IOpCl=  0 I1Cent=   200000004 NGrid=           0
         NMat0=    1 NMatS0=      1 NMatT0=    0 NMatD0=    1 NMtDS0=    0 NMtDT0=    0
 Petite list used in FoFCou.
 Initial guess orbital symmetries:
       Occupied  (A') (A') (A') (A') (A') (A') (A') (A') (A') (A')
                 (A') (A') (A') (A') (A') (A') (A') (A') (A') (A')
                 (A') (A') (A') (A') (A') (A') (A') (A') (A') (A')
                 (A') (A') (A') (A") (A') (A') (A") (A') (A') (A")
                 (A') (A') (A") (A") (A') (A") (A")
       Virtual   (A") (A") (A") (A") (A") (A') (A') (A') (A') (A')
                 (A") (A') (A') (A") (A') (A') (A") (A') (A') (A')
                 (A') (A") (A') (A') (A") (A') (A") (A') (A') (A")
                 (A') (A') (A') (A") (A') (A') (A') (A') (A") (A')
                 (A") (A') (A") (A') (A') (A') (A') (A') (A') (A')
                 (A") (A') (A") (A") (A') (A') (A") (A') (A') (A")
                 (A') (A') (A') (A') (A') (A") (A') (A') (A") (A')
                 (A') (A') (A') (A') (A') (A') (A') (A') (A') (A')
                 (A') (A') (A') (A') (A') (A') (A') (A') (A') (A')
                 (A') (A') (A') (A') (A") (A') (A") (A') (A') (A")
                 (A') (A') (A") (A') (A") (A') (A') (A") (A') (A")
                 (A") (A') (A") (A") (A') (A') (A') (A') (A") (A")
                 (A") (A') (A') (A') (A') (A") (A') (A') (A") (A')
                 (A') (A') (A') (A') (A') (A') (A') (A') (A") (A')
                 (A') (A') (A') (A') (A') (A") (A') (A') (A') (A')
                 (A") (A") (A') (A') (A") (A') (A') (A') (A") (A")
                 (A') (A') (A") (A") (A") (A") (A') (A') (A') (A')
                 (A") (A') (A') (A') (A') (A') (A') (A') (A") (A")
                 (A') (A") (A') (A') (A") (A') (A') (A") (A") (A')
                 (A") (A') (A') (A") (A') (A') (A') (A") (A') (A")
                 (A') (A") (A") (A') (A") (A") (A') (A') (A") (A')
                 (A') (A') (A') (A") (A') (A") (A') (A') (A') (A")
                 (A") (A') (A') (A") (A') (A') (A') (A") (A') (A')
                 (A") (A') (A") (A') (A') (A') (A") (A") (A') (A")
                 (A') (A') (A') (A') (A") (A') (A') (A') (A') (A')
                 (A") (A') (A') (A") (A") (A') (A') (A") (A') (A')
                 (A") (A') (A') (A') (A') (A") (A') (A') (A") (A")
                 (A') (A') (A') (A") (A") (A') (A') (A") (A') (A')
                 (A") (A') (A") (A') (A') (A") (A") (A') (A') (A')
                 (A') (A') (A') (A') (A') (A') (A') (A') (A') (A')
                 (A") (A') (A') (A') (A') (A') (A') (A') (A') (A')
                 (A') (A') (A') (A') (A') (A') (A') (A') (A') (A')
                 (A') (A') (A') (A') (A') (A') (A') (A') (A') (A')
                 (A') (A')
 The electronic state of the initial guess is 1-A'.
 Requested convergence on RMS density matrix=1.00D-08 within 128 cycles.
 Requested convergence on MAX density matrix=1.00D-06.
 Requested convergence on             energy=1.00D-06.
 No special actions if energy rises.
 SCF Done:  E(RM062X) =  -539.489797183     A.U. after   16 cycles
            NFock= 16  Conv=0.57D-08     -V/T= 2.0019
 DoSCS=F DFT=T ScalE2(SS,OS)=  1.000000  1.000000
 ExpMin= 3.60D-02 ExpMax= 4.56D+03 ExpMxC= 6.82D+02 IAcc=3 IRadAn=         5 AccDes= 0.00D+00
 HarFok:  IExCor=  205 AccDes= 0.00D+00 IRadAn=         5 IDoV=-2 UseB2=F ITyADJ=14
 ICtDFT= 12500011 ScaDFX=  1.000000  1.000000  1.000000  1.000000
 Range of M.O.s used for correlation:    15   379
 NBasis=   385 NAE=    47 NBE=    47 NFC=    14 NFV=     0
 NROrb=    365 NOA=    33 NOB=    33 NVA=   332 NVB=   332

 **** Warning!!: The largest alpha MO coefficient is  0.17406764D+03

 Orbital symmetries:
       Occupied  (A') (A') (A') (A') (A') (A') (A') (A') (A') (A')
                 (A') (A') (A') (A') (A') (A') (A') (A') (A') (A')
                 (A') (A') (A') (A') (A') (A') (A') (A') (A') (A')
                 (A') (A") (A') (A') (A') (A') (A") (A') (A") (A')
                 (A') (A') (A") (A") (A') (A") (A")
       Virtual   (A") (A") (A") (A') (A") (A') (A') (A') (A') (A")
                 (A') (A") (A') (A') (A") (A') (A") (A') (A') (A')
                 (A") (A") (A') (A') (A') (A') (A') (A") (A') (A')
                 (A") (A") (A') (A') (A") (A') (A') (A') (A") (A')
                 (A') (A") (A') (A') (A") (A") (A') (A") (A') (A')
                 (A') (A') (A") (A') (A') (A') (A') (A") (A') (A')
                 (A') (A') (A') (A") (A') (A') (A") (A') (A') (A')
                 (A') (A') (A') (A') (A') (A') (A') (A') (A') (A')
                 (A') (A') (A') (A') (A') (A') (A') (A') (A') (A')
                 (A') (A') (A") (A') (A") (A') (A') (A') (A") (A')
                 (A") (A') (A') (A') (A") (A") (A') (A") (A') (A")
                 (A') (A") (A') (A") (A') (A') (A") (A') (A") (A')
                 (A") (A') (A') (A") (A') (A") (A') (A') (A') (A')
                 (A') (A') (A') (A') (A') (A') (A') (A') (A') (A')
                 (A') (A') (A') (A") (A') (A') (A') (A') (A") (A')
                 (A') (A') (A') (A') (A") (A') (A") (A") (A') (A')
                 (A") (A") (A") (A') (A') (A") (A") (A') (A") (A')
                 (A") (A') (A') (A') (A') (A') (A') (A") (A") (A')
                 (A') (A') (A') (A") (A") (A') (A") (A') (A") (A')
                 (A") (A') (A") (A') (A') (A") (A') (A') (A') (A")
                 (A') (A") (A') (A") (A") (A') (A") (A') (A') (A")
                 (A') (A') (A') (A') (A") (A') (A") (A') (A') (A")
                 (A") (A') (A') (A") (A') (A') (A') (A") (A') (A')
                 (A") (A') (A") (A') (A') (A') (A") (A") (A') (A")
                 (A') (A') (A") (A') (A') (A') (A') (A') (A') (A')
                 (A") (A') (A') (A') (A') (A') (A") (A') (A") (A')
                 (A') (A") (A') (A') (A") (A') (A') (A') (A') (A')
                 (A") (A') (A") (A') (A") (A") (A') (A") (A') (A")
                 (A') (A") (A") (A') (A") (A') (A") (A') (A') (A')
                 (A') (A') (A') (A') (A') (A') (A') (A') (A") (A')
                 (A') (A') (A') (A') (A') (A') (A') (A') (A') (A')
                 (A') (A') (A') (A') (A') (A') (A') (A') (A') (A')
                 (A') (A') (A') (A') (A') (A') (A') (A') (A') (A')
                 (A') (A')
     4 initial guesses have been made.
 Convergence on wavefunction:    0.001000000000000
 Iteration     1 Dimension     4 NMult     0 NNew      4
 CISAX will form     4 AO SS matrices at one time.
 Iteration     2 Dimension     6 NMult     4 NNew      2
 Iteration     3 Dimension     8 NMult     6 NNew      2
 Iteration     4 Dimension    10 NMult     8 NNew      2
 Iteration     5 Dimension    12 NMult    10 NNew      2
 Iteration     6 Dimension    14 NMult    12 NNew      2
 ***********************************************************************
 Excited states from <AA,BB:AA,BB> singles matrix:
 ***********************************************************************
 
 Ground to excited state transition densities written to RWF  633
 Ground to excited state transition electric dipole moments (Au):
       state          X           Y           Z        Dip. S.      Osc.
         1         0.1295      1.0357     -0.0000      1.0894      0.0375
 Ground to excited state transition velocity dipole moments (Au):
       state          X           Y           Z        Dip. S.      Osc.
         1         0.0001     -0.0507      0.0000      0.0026      0.0332
 Ground to excited state transition magnetic dipole moments (Au):
       state          X           Y           Z
         1         0.0000      0.0000      0.2650
 Ground to excited state transition velocity quadrupole moments (Au):
       state          XX          YY          ZZ          XY          XZ          YZ
         1         0.0337      0.0314     -0.0048      0.0648     -0.0000      0.0000
 <0|del|b> * <b|rxdel|0> + <0|del|b> * <b|delr+rdel|0>
 Rotatory Strengths (R) in cgs (10**-40 erg-esu-cm/Gauss)
       state          XX          YY          ZZ    R(velocity)    E-M Angle
         1        -0.0000      0.0000     -0.0000     -0.0000       90.00
 1/2[<0|r|b>*<b|rxdel|0> + (<0|rxdel|b>*<b|r|0>)*]
 Rotatory Strengths (R) in cgs (10**-40 erg-esu-cm/Gauss)
       state          XX          YY          ZZ     R(length)
         1        -0.0000     -0.0000      0.0000     -0.0000
  1/2[<0|del|b>*<b|r|0> + (<0|r|b>*<b|del|0>)*] (Au)
       state          X           Y           Z        Dip. S.   Osc.(frdel)
         1         0.0000     -0.0525     -0.0000      0.0525      0.0350

 Excitation energies and oscillator strengths:
 
 Excited State   1:      Singlet-A'     1.4061 eV  881.75 nm  f=0.0375  <S**2>=0.000
      47 -> 48         0.70275
 This state for optimization and/or second-order correction.
 Total Energy, E(TD-HF/TD-DFT) =  -539.438123170    
 Copying the excited state density for this state as the 1-particle RhoCI density.
 SavETr:  write IOETrn=   770 NScale= 10 NData=  16 NLR=1 NState=    1 LETran=      28.

 **********************************************************************

            Population analysis using the SCF Density.

 **********************************************************************

 Orbital symmetries:
       Occupied  (A') (A') (A') (A') (A') (A') (A') (A') (A') (A')
                 (A') (A') (A') (A') (A') (A') (A') (A') (A') (A')
                 (A') (A') (A') (A') (A') (A') (A') (A') (A') (A')
                 (A') (A") (A') (A') (A') (A') (A") (A') (A") (A')
                 (A') (A') (A") (A") (A') (A") (A")
       Virtual   (A") (A") (A") (A') (A") (A') (A') (A') (A') (A")
                 (A') (A") (A') (A') (A") (A') (A") (A') (A') (A')
                 (A") (A") (A') (A') (A') (A') (A') (A") (A') (A')
                 (A") (A") (A') (A') (A") (A') (A') (A') (A") (A')
                 (A') (A") (A') (A') (A") (A") (A') (A") (A') (A')
                 (A') (A') (A") (A') (A') (A') (A') (A") (A') (A')
                 (A') (A') (A') (A") (A') (A') (A") (A') (A') (A')
                 (A') (A') (A') (A') (A') (A') (A') (A') (A') (A')
                 (A') (A') (A') (A') (A') (A') (A') (A') (A') (A')
                 (A') (A') (A") (A') (A") (A') (A') (A') (A") (A')
                 (A") (A') (A') (A') (A") (A") (A') (A") (A') (A")
                 (A') (A") (A') (A") (A') (A') (A") (A') (A") (A')
                 (A") (A') (A') (A") (A') (A") (A') (A') (A') (A')
                 (A') (A') (A') (A') (A') (A') (A') (A') (A') (A')
                 (A') (A') (A') (A") (A') (A') (A') (A') (A") (A')
                 (A') (A') (A') (A') (A") (A') (A") (A") (A') (A')
                 (A") (A") (A") (A') (A') (A") (A") (A') (A") (A')
                 (A") (A') (A') (A') (A') (A') (A') (A") (A") (A')
                 (A') (A') (A') (A") (A") (A') (A") (A') (A") (A')
                 (A") (A') (A") (A') (A') (A") (A') (A') (A') (A")
                 (A') (A") (A') (A") (A") (A') (A") (A') (A') (A")
                 (A') (A') (A') (A') (A") (A') (A") (A') (A') (A")
                 (A") (A') (A') (A") (A') (A') (A') (A") (A') (A')
                 (A") (A') (A") (A') (A') (A') (A") (A") (A') (A")
                 (A') (A') (A") (A') (A') (A') (A') (A') (A') (A')
                 (A") (A') (A') (A') (A') (A') (A") (A') (A") (A')
                 (A') (A") (A') (A') (A") (A') (A') (A') (A') (A')
                 (A") (A') (A") (A') (A") (A") (A') (A") (A') (A")
                 (A') (A") (A") (A') (A") (A') (A") (A') (A') (A')
                 (A') (A') (A') (A') (A') (A') (A') (A') (A") (A')
                 (A') (A') (A') (A') (A') (A') (A') (A') (A') (A')
                 (A') (A') (A') (A') (A') (A') (A') (A') (A') (A')
                 (A') (A') (A') (A') (A') (A') (A') (A') (A') (A')
                 (A') (A')
 The electronic state is 1-A'.
 Alpha  occ. eigenvalues --  -10.77351 -10.75446 -10.75124 -10.73059 -10.72140
 Alpha  occ. eigenvalues --  -10.71524 -10.71264 -10.70898 -10.69841 -10.69386
 Alpha  occ. eigenvalues --  -10.69117 -10.68718 -10.68605 -10.66808  -1.19058
 Alpha  occ. eigenvalues --   -1.12707  -1.10102  -1.06643  -1.02074  -1.01170
 Alpha  occ. eigenvalues --   -0.95088  -0.89207  -0.86405  -0.85245  -0.83564
 Alpha  occ. eigenvalues --   -0.77497  -0.76811  -0.74439  -0.71953  -0.69798
 Alpha  occ. eigenvalues --   -0.68870  -0.67586  -0.66581  -0.65565  -0.63824
 Alpha  occ. eigenvalues --   -0.62855  -0.62640  -0.60619  -0.57586  -0.56290
 Alpha  occ. eigenvalues --   -0.55430  -0.54767  -0.53479  -0.52361  -0.50071
 Alpha  occ. eigenvalues --   -0.46970  -0.38184
 Alpha virt. eigenvalues --   -0.26736  -0.15311  -0.13427  -0.11496  -0.11218
 Alpha virt. eigenvalues --   -0.10313  -0.09752  -0.07780  -0.07656  -0.07530
 Alpha virt. eigenvalues --   -0.07374  -0.06327  -0.05751  -0.05431  -0.05427
 Alpha virt. eigenvalues --   -0.04292  -0.04057  -0.03305  -0.03171  -0.01969
 Alpha virt. eigenvalues --   -0.01664  -0.00983  -0.00292  -0.00062   0.00605
 Alpha virt. eigenvalues --    0.01070   0.01256   0.01284   0.01745   0.02049
 Alpha virt. eigenvalues --    0.02070   0.02442   0.03331   0.03383   0.03595
 Alpha virt. eigenvalues --    0.04073   0.04128   0.04519   0.05078   0.05440
 Alpha virt. eigenvalues --    0.05679   0.05848   0.06093   0.06604   0.07293
 Alpha virt. eigenvalues --    0.07754   0.07754   0.08043   0.08313   0.08517
 Alpha virt. eigenvalues --    0.08774   0.09118   0.09512   0.09726   0.10111
 Alpha virt. eigenvalues --    0.10865   0.11060   0.11296   0.11845   0.12720
 Alpha virt. eigenvalues --    0.12887   0.13403   0.13671   0.13684   0.14108
 Alpha virt. eigenvalues --    0.14625   0.15727   0.16532   0.17124   0.17693
 Alpha virt. eigenvalues --    0.18274   0.19250   0.19936   0.20659   0.20845
 Alpha virt. eigenvalues --    0.21255   0.21936   0.23295   0.23801   0.23933
 Alpha virt. eigenvalues --    0.24637   0.25313   0.26111   0.27163   0.27906
 Alpha virt. eigenvalues --    0.28983   0.29851   0.30915   0.32134   0.34926
 Alpha virt. eigenvalues --    0.36841   0.38000   0.38606   0.39089   0.39974
 Alpha virt. eigenvalues --    0.40467   0.42249   0.43106   0.43394   0.43838
 Alpha virt. eigenvalues --    0.44490   0.45027   0.46104   0.46435   0.46593
 Alpha virt. eigenvalues --    0.47975   0.48731   0.49047   0.50649   0.51474
 Alpha virt. eigenvalues --    0.51611   0.52316   0.52820   0.53795   0.54050
 Alpha virt. eigenvalues --    0.54889   0.55437   0.57050   0.57892   0.58581
 Alpha virt. eigenvalues --    0.59109   0.61243   0.62132   0.62522   0.62858
 Alpha virt. eigenvalues --    0.64170   0.64268   0.65124   0.66218   0.68179
 Alpha virt. eigenvalues --    0.69477   0.71377   0.73303   0.73410   0.74189
 Alpha virt. eigenvalues --    0.74589   0.75743   0.76878   0.77347   0.77580
 Alpha virt. eigenvalues --    0.79246   0.79530   0.80039   0.81206   0.81269
 Alpha virt. eigenvalues --    0.81717   0.82512   0.84507   0.84527   0.84858
 Alpha virt. eigenvalues --    0.86710   0.88609   0.89527   0.90428   0.90517
 Alpha virt. eigenvalues --    0.91865   0.92746   0.95206   0.95924   0.96972
 Alpha virt. eigenvalues --    0.97323   0.99156   1.01723   1.02391   1.03983
 Alpha virt. eigenvalues --    1.05316   1.06125   1.06951   1.07397   1.10730
 Alpha virt. eigenvalues --    1.16033   1.17680   1.21405   1.22369   1.28634
 Alpha virt. eigenvalues --    1.30839   1.31680   1.34364   1.35617   1.35637
 Alpha virt. eigenvalues --    1.38059   1.38828   1.39480   1.39795   1.41045
 Alpha virt. eigenvalues --    1.44507   1.44591   1.45814   1.47049   1.48822
 Alpha virt. eigenvalues --    1.49102   1.50504   1.52905   1.54516   1.56126
 Alpha virt. eigenvalues --    1.56709   1.56771   1.57235   1.58226   1.60167
 Alpha virt. eigenvalues --    1.63146   1.63653   1.64933   1.65281   1.67993
 Alpha virt. eigenvalues --    1.69595   1.70537   1.71363   1.73948   1.75635
 Alpha virt. eigenvalues --    1.76687   1.77182   1.79107   1.79554   1.79865
 Alpha virt. eigenvalues --    1.81880   1.82341   1.83763   1.85351   1.86176
 Alpha virt. eigenvalues --    1.86355   1.87154   1.88240   1.91820   1.91912
 Alpha virt. eigenvalues --    1.93114   1.94079   1.97535   1.99617   1.99986
 Alpha virt. eigenvalues --    2.00079   2.04892   2.09497   2.09997   2.13155
 Alpha virt. eigenvalues --    2.15752   2.17263   2.18768   2.18898   2.21301
 Alpha virt. eigenvalues --    2.24114   2.24872   2.30622   2.31025   2.32292
 Alpha virt. eigenvalues --    2.34694   2.38299   2.39410   2.40310   2.42507
 Alpha virt. eigenvalues --    2.43832   2.44737   2.48144   2.52529   2.52636
 Alpha virt. eigenvalues --    2.56275   2.56362   2.57940   2.58550   2.60994
 Alpha virt. eigenvalues --    2.61292   2.61880   2.62258   2.64237   2.64589
 Alpha virt. eigenvalues --    2.64898   2.66325   2.67179   2.68042   2.69264
 Alpha virt. eigenvalues --    2.70620   2.71117   2.73921   2.74408   2.74423
 Alpha virt. eigenvalues --    2.76235   2.78259   2.78750   2.81113   2.84557
 Alpha virt. eigenvalues --    2.87401   2.87886   2.92436   2.93927   2.98821
 Alpha virt. eigenvalues --    2.99200   3.01000   3.03483   3.07116   3.09579
 Alpha virt. eigenvalues --    3.10147   3.16229   3.23539   3.25403   3.29570
 Alpha virt. eigenvalues --    3.33222   3.37017   3.39868   3.48877   3.50173
 Alpha virt. eigenvalues --    3.53847   3.54751   3.59595   3.68950   3.72667
 Alpha virt. eigenvalues --    3.74788   3.83916   3.86421   3.89340   3.92648
 Alpha virt. eigenvalues --    3.99414   4.02093   4.07601   4.12175   4.28961
 Alpha virt. eigenvalues --    4.42651   4.50787   4.56772  23.41990  23.50593
 Alpha virt. eigenvalues --   23.58490  23.60080  23.62011  23.83363  23.85377
 Alpha virt. eigenvalues --   23.94202  24.11465  24.29279  24.30066  24.39701
 Alpha virt. eigenvalues --   24.76639  24.99801
          Condensed to atoms (all electrons):
               1          2          3          4          5          6
     1  C    7.847373   0.988616  -0.479802   1.673459  -0.259005  -0.082718
     2  C    0.988616   7.535352   0.568518  -0.543491  -0.106708  -0.009973
     3  C   -0.479802   0.568518   7.106410   0.992086  -0.075397   0.010882
     4  C    1.673459  -0.543491   0.992086  12.740179  -1.039020  -0.184163
     5  C   -0.259005  -0.106708  -0.075397  -1.039020  10.016165   1.538725
     6  C   -0.082718  -0.009973   0.010882  -0.184163   1.538725   6.783133
     7  C    0.026948  -0.024469  -0.010522   0.271971  -2.534345  -1.131217
     8  C    0.156704   0.081915  -0.170258  -0.618536   4.243550   1.248604
     9  C   -0.025558  -0.698045   0.142055   0.273692   0.087241   0.359052
    10  C   -1.000028  -0.354225  -0.003329  -3.260432  -0.921229  -0.401952
    11  C    0.171504   0.205343  -0.473426  -1.688576  -0.686594   0.188916
    12  C   -2.179894  -0.687602  -1.771293  -1.945731  -0.507509  -0.654121
    13  C    0.197300  -0.357095  -0.474319  -0.254758  -1.319511  -0.098517
    14  C   -1.345904  -0.545259   0.626141  -0.755607  -2.542489  -1.523465
    15  H    0.371961  -0.082667  -0.001788   0.009951   0.004953   0.000953
    16  H   -0.028434   0.391144  -0.026833   0.024111  -0.003087  -0.000362
    17  H   -0.004295  -0.036259   0.394994  -0.061749   0.000901   0.000329
    18  H    0.041372   0.019278  -0.052034   0.519049  -0.010884  -0.004765
    19  H   -0.028772  -0.006454   0.052395  -0.034051  -0.036579   0.033951
    20  H    0.001440   0.000899  -0.003249   0.003656   0.446607  -0.039958
    21  H   -0.001458  -0.000357   0.000348  -0.000871  -0.045390   0.354299
    22  H    0.000100  -0.000147  -0.000147   0.001583  -0.010792  -0.022184
    23  H    0.001071   0.003028   0.000894  -0.014467   0.056301   0.048159
    24  H    0.039883   0.011615  -0.000863   0.007091  -0.022997  -0.003562
    25  H    0.039883   0.011615  -0.000863   0.007091  -0.022997  -0.003562
               7          8          9         10         11         12
     1  C    0.026948   0.156704  -0.025558  -1.000028   0.171504  -2.179894
     2  C   -0.024469   0.081915  -0.698045  -0.354225   0.205343  -0.687602
     3  C   -0.010522  -0.170258   0.142055  -0.003329  -0.473426  -1.771293
     4  C    0.271971  -0.618536   0.273692  -3.260432  -1.688576  -1.945731
     5  C   -2.534345   4.243550   0.087241  -0.921229  -0.686594  -0.507509
     6  C   -1.131217   1.248604   0.359052  -0.401952   0.188916  -0.654121
     7  C   11.291113  -5.563928  -1.936014   0.377074  -0.940637   0.756920
     8  C   -5.563928  17.222045   0.397490  -0.870857   1.453778  -1.938241
     9  C   -1.936014   0.397490   9.581000   0.244272   0.870219  -2.317124
    10  C    0.377074  -0.870857   0.244272   8.163056   0.909987   1.371449
    11  C   -0.940637   1.453778   0.870219   0.909987  14.425858  -3.423944
    12  C    0.756920  -1.938241  -2.317124   1.371449  -3.423944  18.827396
    13  C    1.705345  -4.194308  -0.745981  -0.040592  -1.732452  -0.804445
    14  C    3.939539  -6.129145  -0.614202   1.529882  -2.708322   0.899899
    15  H   -0.002501   0.001111   0.029131  -0.001267  -0.041714   0.073585
    16  H    0.000665   0.002882  -0.003928  -0.018191   0.040085  -0.028286
    17  H   -0.000214  -0.002392  -0.000694   0.017694  -0.021820   0.053488
    18  H    0.004614   0.005064  -0.017512  -0.015853  -0.020677  -0.059605
    19  H   -0.002163  -0.054027   0.069595   0.422717   0.042629  -0.231953
    20  H   -0.051177   0.112122  -0.008466   0.035623  -0.006328   0.005811
    21  H    0.026110  -0.060333  -0.001476   0.002257  -0.001627  -0.004004
    22  H    0.384103  -0.043399  -0.014477  -0.000212  -0.009673   0.007733
    23  H   -0.232484   0.498367   0.163007  -0.006373   0.071991  -0.041508
    24  H    0.018370  -0.027212   0.371456   0.005245   0.022313  -0.034979
    25  H    0.018370  -0.027212   0.371456   0.005245   0.022313  -0.034979
              13         14         15         16         17         18
     1  C    0.197300  -1.345904   0.371961  -0.028434  -0.004295   0.041372
     2  C   -0.357095  -0.545259  -0.082667   0.391144  -0.036259   0.019278
     3  C   -0.474319   0.626141  -0.001788  -0.026833   0.394994  -0.052034
     4  C   -0.254758  -0.755607   0.009951   0.024111  -0.061749   0.519049
     5  C   -1.319511  -2.542489   0.004953  -0.003087   0.000901  -0.010884
     6  C   -0.098517  -1.523465   0.000953  -0.000362   0.000329  -0.004765
     7  C    1.705345   3.939539  -0.002501   0.000665  -0.000214   0.004614
     8  C   -4.194308  -6.129145   0.001111   0.002882  -0.002392   0.005064
     9  C   -0.745981  -0.614202   0.029131  -0.003928  -0.000694  -0.017512
    10  C   -0.040592   1.529882  -0.001267  -0.018191   0.017694  -0.015853
    11  C   -1.732452  -2.708322  -0.041714   0.040085  -0.021820  -0.020677
    12  C   -0.804445   0.899899   0.073585  -0.028286   0.053488  -0.059605
    13  C   12.319730   1.751669  -0.023603   0.005904  -0.008439   0.007763
    14  C    1.751669  12.985744   0.007057  -0.019213   0.010913  -0.074942
    15  H   -0.023603   0.007057   0.412378  -0.004961   0.001772   0.000145
    16  H    0.005904  -0.019213  -0.004961   0.390696  -0.004646   0.002206
    17  H   -0.008439   0.010913   0.001772  -0.004646   0.409878  -0.011702
    18  H    0.007763  -0.074942   0.000145   0.002206  -0.011702   0.441918
    19  H   -0.001255   0.136286   0.000539  -0.000422   0.002154  -0.000280
    20  H    0.036699  -0.201639  -0.000140   0.000011  -0.000173   0.000989
    21  H    0.021027   0.056527   0.000028  -0.000007   0.000009  -0.000132
    22  H    0.026060   0.021321  -0.000088   0.000007  -0.000004   0.000027
    23  H   -0.170753  -0.092551   0.000446  -0.000191  -0.000008  -0.000174
    24  H   -0.038663  -0.014026  -0.000409   0.000469  -0.000102   0.000071
    25  H   -0.038663  -0.014026  -0.000409   0.000469  -0.000102   0.000071
              19         20         21         22         23         24
     1  C   -0.028772   0.001440  -0.001458   0.000100   0.001071   0.039883
     2  C   -0.006454   0.000899  -0.000357  -0.000147   0.003028   0.011615
     3  C    0.052395  -0.003249   0.000348  -0.000147   0.000894  -0.000863
     4  C   -0.034051   0.003656  -0.000871   0.001583  -0.014467   0.007091
     5  C   -0.036579   0.446607  -0.045390  -0.010792   0.056301  -0.022997
     6  C    0.033951  -0.039958   0.354299  -0.022184   0.048159  -0.003562
     7  C   -0.002163  -0.051177   0.026110   0.384103  -0.232484   0.018370
     8  C   -0.054027   0.112122  -0.060333  -0.043399   0.498367  -0.027212
     9  C    0.069595  -0.008466  -0.001476  -0.014477   0.163007   0.371456
    10  C    0.422717   0.035623   0.002257  -0.000212  -0.006373   0.005245
    11  C    0.042629  -0.006328  -0.001627  -0.009673   0.071991   0.022313
    12  C   -0.231953   0.005811  -0.004004   0.007733  -0.041508  -0.034979
    13  C   -0.001255   0.036699   0.021027   0.026060  -0.170753  -0.038663
    14  C    0.136286  -0.201639   0.056527   0.021321  -0.092551  -0.014026
    15  H    0.000539  -0.000140   0.000028  -0.000088   0.000446  -0.000409
    16  H   -0.000422   0.000011  -0.000007   0.000007  -0.000191   0.000469
    17  H    0.002154  -0.000173   0.000009  -0.000004  -0.000008  -0.000102
    18  H   -0.000280   0.000989  -0.000132   0.000027  -0.000174   0.000071
    19  H    0.462744  -0.009216   0.000698  -0.000336   0.000232   0.000593
    20  H   -0.009216   0.457730  -0.005097   0.001163  -0.000774   0.000278
    21  H    0.000698  -0.005097   0.427537  -0.002475   0.000022  -0.000025
    22  H   -0.000336   0.001163  -0.002475   0.429648  -0.008523   0.000552
    23  H    0.000232  -0.000774   0.000022  -0.008523   0.496709  -0.002042
    24  H    0.000593   0.000278  -0.000025   0.000552  -0.002042   0.474647
    25  H    0.000593   0.000278  -0.000025   0.000552  -0.002042  -0.072121
              25
     1  C    0.039883
     2  C    0.011615
     3  C   -0.000863
     4  C    0.007091
     5  C   -0.022997
     6  C   -0.003562
     7  C    0.018370
     8  C   -0.027212
     9  C    0.371456
    10  C    0.005245
    11  C    0.022313
    12  C   -0.034979
    13  C   -0.038663
    14  C   -0.014026
    15  H   -0.000409
    16  H    0.000469
    17  H   -0.000102
    18  H    0.000071
    19  H    0.000593
    20  H    0.000278
    21  H   -0.000025
    22  H    0.000552
    23  H   -0.002042
    24  H   -0.072121
    25  H    0.474647
 Mulliken charges:
               1
     1  C   -0.121742
     2  C   -0.364570
     3  C   -0.350600
     4  C   -0.122468
     5  C   -0.249910
     6  C   -0.406486
     7  C   -0.391470
     8  C    0.276215
     9  C   -0.576188
    10  C   -0.189963
    11  C   -0.669145
    12  C    0.668937
    13  C    0.231857
    14  C    0.615811
    15  H    0.245538
    16  H    0.279914
    17  H    0.260468
    18  H    0.225991
    19  H    0.180381
    20  H    0.222909
    21  H    0.234413
    22  H    0.239610
    23  H    0.231663
    24  H    0.264419
    25  H    0.264419
 Sum of Mulliken charges =   1.00000
 Mulliken charges with hydrogens summed into heavy atoms:
               1
     1  C    0.123796
     2  C   -0.084656
     3  C   -0.090132
     4  C    0.103523
     5  C   -0.027001
     6  C   -0.172073
     7  C   -0.151860
     8  C    0.507878
     9  C   -0.047350
    10  C   -0.009583
    11  C   -0.669145
    12  C    0.668937
    13  C    0.231857
    14  C    0.615811
 Electronic spatial extent (au):  <R**2>=           2862.5133
 Charge=              1.0000 electrons
 Dipole moment (field-independent basis, Debye):
    X=             -2.4551    Y=             -4.3366    Z=              0.0000  Tot=              4.9833
 Quadrupole moment (field-independent basis, Debye-Ang):
   XX=            -53.4390   YY=            -31.0550   ZZ=            -83.8406
   XY=              9.5862   XZ=             -0.0000   YZ=              0.0000
 Traceless Quadrupole moment (field-independent basis, Debye-Ang):
   XX=              2.6725   YY=             25.0565   ZZ=            -27.7291
   XY=              9.5862   XZ=             -0.0000   YZ=              0.0000
 Octapole moment (field-independent basis, Debye-Ang**2):
  XXX=            -15.3941  YYY=            -36.4898  ZZZ=              0.0000  XYY=            -14.6493
  XXY=            -20.3057  XXZ=              0.0000  XZZ=             -6.0076  YZZ=             -6.2175
  YYZ=              0.0000  XYZ=             -0.0000
 Hexadecapole moment (field-independent basis, Debye-Ang**3):
 XXXX=           -856.1890 YYYY=          -1930.7131 ZZZZ=            -98.9456 XXXY=           -289.3897
 XXXZ=             -0.0000 YYYX=           -207.6730 YYYZ=              0.0000 ZZZX=             -0.0000
 ZZZY=             -0.0000 XXYY=           -461.4221 XXZZ=           -208.7632 YYZZ=           -524.4542
 XXYZ=              0.0000 YYXZ=             -0.0000 ZZXY=           -152.8091
 N-N= 7.824792602979D+02 E-N=-2.801799412722D+03  KE= 5.384535603673D+02
 Symmetry A'   KE= 5.235768193092D+02
 Symmetry A"   KE= 1.487674105809D+01
 Unable to Open any file for archive entry.
 1\1\GINC-GADI-CPU-CLX-0240\SP\RM062X TD-FC\6-311++G(d,p)\C14H11(1+)\TS
 1578\02-Aug-2022\0\\#n M062X/6-311++G(d,p) TD(NStates=1) EmpiricalDisp
 ersion=GD3 SP\\SP_8\\1,1\C,0,0.,2.416655,1.404431\C,0,0.,3.577508,0.58
 7989\C,0,0.,3.579861,-0.86583\C,0,0.,2.575156,-1.435538\C,0,0.,-2.3511
 56,-1.379538\C,0,0.,-3.787861,-0.56183\C,0,0.,-3.825508,0.755989\C,0,0
 .,-2.568655,1.316431\C,0,0.,-0.08,1.453369\C,0,0.,0.256,-1.429189\C,0,
 0.,1.358055,0.849065\C,0,0.,1.293471,-0.662804\C,0,0.,-1.166055,0.5050
 65\C,0,0.,-1.181471,-0.798804\H,0,0.,2.556071,2.487647\H,0,0.,4.540753
 ,1.087689\H,0,0.,4.545262,-1.348349\H,0,0.,2.43555,-2.518059\H,0,0.,0.
 324,-2.510266\H,0,0.,-2.49955,-2.462059\H,0,0.,-4.673262,-1.196349\H,0
 ,0.,-4.732753,1.335689\H,0,0.,-2.420071,2.399647\H,0,-0.859585,-0.448,
 2.145787\H,0,0.859585,-0.448,2.145787\\Version=ES64L-G16RevC.01\State=
 1-A'\HF=-539.4897972\RMSD=5.668e-09\PG=CS [SG(C14H9),X(H2)]\\@
 The archive entry for this job was punched.


 ALMOST ANYTHING IS EASIER TO GET INTO THAN OUT OF.

                         -- AGNES ALLEN'S LAW FROM
                PAUL DICKSON'S "THE OFFICIAL RULES"
 Job cpu time:       0 days  0 hours 53 minutes 23.9 seconds.
 Elapsed time:       0 days  0 hours  1 minutes  7.0 seconds.
 File lengths (MBytes):  RWF=    460 Int=      0 D2E=      0 Chk=     15 Scr=      1
 Normal termination of Gaussian 16 at Tue Aug  2 13:13:04 2022.
