 Entering Gaussian System, Link 0=g16
 Initial command:
 /apps/gaussian/g16c01/g16/l1.exe "/jobfs/53803565.gadi-pbs/Gau-1021695.inp" -scrdir="/jobfs/53803565.gadi-pbs/"
 Entering Link 1 = /apps/gaussian/g16c01/g16/l1.exe PID=   1021696.
  
 Copyright (c) 1988-2019, Gaussian, Inc.  All Rights Reserved.
  
 This is part of the Gaussian(R) 16 program.  It is based on
 the Gaussian(R) 09 system (copyright 2009, Gaussian, Inc.),
 the Gaussian(R) 03 system (copyright 2003, Gaussian, Inc.),
 the Gaussian(R) 98 system (copyright 1998, Gaussian, Inc.),
 the Gaussian(R) 94 system (copyright 1995, Gaussian, Inc.),
 the Gaussian 92(TM) system (copyright 1992, Gaussian, Inc.),
 the Gaussian 90(TM) system (copyright 1990, Gaussian, Inc.),
 the Gaussian 88(TM) system (copyright 1988, Gaussian, Inc.),
 the Gaussian 86(TM) system (copyright 1986, Carnegie Mellon
 University), and the Gaussian 82(TM) system (copyright 1983,
 Carnegie Mellon University). Gaussian is a federally registered
 trademark of Gaussian, Inc.
  
 This software contains proprietary and confidential information,
 including trade secrets, belonging to Gaussian, Inc.
  
 This software is provided under written license and may be
 used, copied, transmitted, or stored only in accord with that
 written license.
  
 The following legend is applicable only to US Government
 contracts under FAR:
  
                    RESTRICTED RIGHTS LEGEND
  
 Use, reproduction and disclosure by the US Government is
 subject to restrictions as set forth in subparagraphs (a)
 and (c) of the Commercial Computer Software - Restricted
 Rights clause in FAR 52.227-19.
  
 Gaussian, Inc.
 340 Quinnipiac St., Bldg. 40, Wallingford CT 06492
  
  
 ---------------------------------------------------------------
 Warning -- This program may not be used in any manner that
 competes with the business of Gaussian, Inc. or will provide
 assistance to any competitor of Gaussian, Inc.  The licensee
 of this program is prohibited from giving any competitor of
 Gaussian, Inc. access to this program.  By using this program,
 the user acknowledges that Gaussian, Inc. is engaged in the
 business of creating and licensing software in the field of
 computational chemistry and represents and warrants to the
 licensee that it is not a competitor of Gaussian, Inc. and that
 it will not use this program in any manner prohibited above.
 ---------------------------------------------------------------
  

 Cite this work as:
 Gaussian 16, Revision C.01,
 M. J. Frisch, G. W. Trucks, H. B. Schlegel, G. E. Scuseria, 
 M. A. Robb, J. R. Cheeseman, G. Scalmani, V. Barone, 
 G. A. Petersson, H. Nakatsuji, X. Li, M. Caricato, A. V. Marenich, 
 J. Bloino, B. G. Janesko, R. Gomperts, B. Mennucci, H. P. Hratchian, 
 J. V. Ortiz, A. F. Izmaylov, J. L. Sonnenberg, D. Williams-Young, 
 F. Ding, F. Lipparini, F. Egidi, J. Goings, B. Peng, A. Petrone, 
 T. Henderson, D. Ranasinghe, V. G. Zakrzewski, J. Gao, N. Rega, 
 G. Zheng, W. Liang, M. Hada, M. Ehara, K. Toyota, R. Fukuda, 
 J. Hasegawa, M. Ishida, T. Nakajima, Y. Honda, O. Kitao, H. Nakai, 
 T. Vreven, K. Throssell, J. A. Montgomery, Jr., J. E. Peralta, 
 F. Ogliaro, M. J. Bearpark, J. J. Heyd, E. N. Brothers, K. N. Kudin, 
 V. N. Staroverov, T. A. Keith, R. Kobayashi, J. Normand, 
 K. Raghavachari, A. P. Rendell, J. C. Burant, S. S. Iyengar, 
 J. Tomasi, M. Cossi, J. M. Millam, M. Klene, C. Adamo, R. Cammi, 
 J. W. Ochterski, R. L. Martin, K. Morokuma, O. Farkas, 
 J. B. Foresman, and D. J. Fox, Gaussian, Inc., Wallingford CT, 2019.
 
 ******************************************
 Gaussian 16:  ES64L-G16RevC.01  3-Jul-2019
                 2-Aug-2022 
 ******************************************
 %NProcShared=48
 Will use up to   48 processors via shared memory.
 %mem = 190GB
 ---------------------------------------------------------------
 #n M062X/6-311++G(d,p) TD(NStates=1) EmpiricalDispersion=GD3 SP
 ---------------------------------------------------------------
 1/38=1,172=1/1;
 2/12=2,17=6,18=5,40=1/2;
 3/5=4,6=6,7=1111,11=9,25=1,30=1,74=-55,124=31/1,2,3,8;
 4//1;
 5/5=2,38=5/2;
 8/6=1,10=2,108=1/1;
 9/41=1,42=1,70=2/14;
 6/7=2,8=2,9=2,10=2/1;
 99/5=1,9=1/99;
 ------
 SP_-10
 ------
 Symbolic Z-matrix:
 Charge =  1 Multiplicity = 1
 C                     0.        2.60066   1.31643 
 C                     0.        3.86151   0.77199 
 C                     0.        3.80586  -0.52983 
 C                     0.        2.31116  -1.36354 
 C                     0.       -2.61516  -1.45154 
 C                     0.       -3.56186  -0.89783 
 C                     0.       -3.54151   0.57199 
 C                     0.       -2.38465   1.40443 
 C                     0.        0.096     1.45337 
 C                     0.       -0.314    -1.42919 
 C                     0.        1.14805   0.48307 
 C                     0.        1.16347  -0.7968 
 C                     0.       -1.37606   0.87107 
 C                     0.       -1.31147  -0.6648 
 H                     0.        2.43007   2.39965 
 H                     0.        4.76875   1.34969 
 H                     0.        4.67526  -1.19235 
 H                     0.        2.48155  -2.44606 
 H                     0.       -0.374    -2.51027 
 H                     0.       -2.45355  -2.53406 
 H                     0.       -4.54326  -1.35235 
 H                     0.       -4.50475   1.07369 
 H                     0.       -2.54607   2.48765 
 H                    -0.85959   0.536     2.14579 
 H                     0.85959   0.536     2.14579 
 
                          Input orientation:                          
 ---------------------------------------------------------------------
 Center     Atomic      Atomic             Coordinates (Angstroms)
 Number     Number       Type             X           Y           Z
 ---------------------------------------------------------------------
      1          6           0        0.000000    2.600655    1.316431
      2          6           0        0.000000    3.861508    0.771989
      3          6           0        0.000000    3.805861   -0.529830
      4          6           0        0.000000    2.311156   -1.363538
      5          6           0        0.000000   -2.615156   -1.451538
      6          6           0        0.000000   -3.561861   -0.897830
      7          6           0        0.000000   -3.541508    0.571989
      8          6           0        0.000000   -2.384655    1.404431
      9          6           0        0.000000    0.096000    1.453369
     10          6           0        0.000000   -0.314000   -1.429189
     11          6           0        0.000000    1.148055    0.483065
     12          6           0        0.000000    1.163471   -0.796804
     13          6           0        0.000000   -1.376055    0.871065
     14          6           0        0.000000   -1.311471   -0.664804
     15          1           0        0.000000    2.430071    2.399647
     16          1           0        0.000000    4.768753    1.349689
     17          1           0        0.000000    4.675262   -1.192349
     18          1           0        0.000000    2.481550   -2.446059
     19          1           0        0.000000   -0.374000   -2.510266
     20          1           0        0.000000   -2.453550   -2.534059
     21          1           0        0.000000   -4.543262   -1.352349
     22          1           0        0.000000   -4.504753    1.073689
     23          1           0        0.000000   -2.546071    2.487647
     24          1           0       -0.859585    0.536000    2.145787
     25          1           0        0.859585    0.536000    2.145787
 ---------------------------------------------------------------------
                    Distance matrix (angstroms):
                    1          2          3          4          5
     1  C    0.000000
     2  C    1.373378   0.000000
     3  C    2.204813   1.303008   0.000000
     4  C    2.695560   2.638952   1.711494   0.000000
     5  C    5.904772   6.847719   6.486833   4.927098   0.000000
     6  C    6.548248   7.608857   7.376907   5.891453   1.096742
     7  C    6.187112   7.405717   7.429525   6.164409   2.225486
     8  C    4.986087   6.278100   6.485665   5.450898   2.865256
     9  C    2.508396   3.826660   4.206679   3.583557   3.973519
    10  C    4.004203   4.720175   4.216883   2.625977   2.301265
    11  C    1.674678   2.728792   2.844273   2.182372   4.231365
    12  C    2.555633   3.120980   2.655843   1.279988   3.834931
    13  C    4.001571   5.238500   5.367938   4.311493   2.632462
    14  C    4.385205   5.368807   5.119112   3.689398   1.522677
    15  H    1.096565   2.167552   3.236454   3.765063   6.347121
    16  H    2.168353   1.075561   2.111813   3.660790   7.897404
    17  H    3.255453   2.126222   1.093064   2.370296   7.295024
    18  H    3.764375   3.501445   2.329320   1.095849   5.192830
    19  H    4.846873   5.358426   4.625296   2.919768   2.478646
    20  H    6.353838   7.128107   6.572455   4.906378   1.094517
    21  H    7.626135   8.669081   8.389541   6.854427   1.930656
    22  H    7.109553   8.371699   8.463899   7.238556   3.153942
    23  H    5.278308   6.633291   7.032226   6.198732   3.939791
    24  H    2.385271   3.699353   4.311589   4.025596   4.858952
    25  H    2.385271   3.699353   4.311589   4.025596   4.858952
                    6          7          8          9         10
     6  C    0.000000
     7  C    1.469960   0.000000
     8  C    2.585773   1.425226   0.000000
     9  C    4.348343   3.742766   2.481138   0.000000
    10  C    3.291040   3.797568   3.509560   2.911570   0.000000
    11  C    4.908175   4.690406   3.650884   1.431192   2.407139
    12  C    4.726412   4.900043   4.175480   2.490537   1.607119
    13  C    2.811892   2.186008   1.140944   1.583043   2.533600
    14  C    2.262423   2.550044   2.330978   2.543154   1.256675
    15  H    6.839342   6.245005   4.916507   2.518597   4.710617
    16  H    8.628469   8.346571   7.153617   4.673903   5.792801
    17  H    8.242387   8.404058   7.522346   5.288616   4.994880
    18  H    6.238576   6.736901   6.205338   4.571257   2.974748
    19  H    3.572451   4.419661   4.400862   3.991404   1.082741
    20  H    1.976259   3.291077   3.939093   4.732841   2.407989
    21  H    1.081543   2.169467   3.501345   5.421698   4.229960
    22  H    2.185391   1.086068   2.145741   4.616393   4.881271
    23  H    3.534584   2.158852   1.095177   2.837300   4.508186
    24  H    5.176384   4.454413   3.133484   1.188246   3.773836
    25  H    5.176384   4.454413   3.133484   1.188246   3.773836
                   11         12         13         14         15
    11  C    0.000000
    12  C    1.279962   0.000000
    13  C    2.553757   3.038253   0.000000
    14  C    2.714198   2.478460   1.537226   0.000000
    15  H    2.305830   3.438252   4.101604   4.836321   0.000000
    16  H    3.722968   4.195890   6.163420   6.405256   2.563561
    17  H    3.904895   3.533997   6.393443   6.009931   4.235955
    18  H    3.218381   2.111249   5.087674   4.190451   4.845979
    19  H    3.358077   2.302123   3.526686   2.069923   5.654207
    20  H    4.698361   4.012592   3.571535   2.190538   6.941989
    21  H    5.979953   5.733710   3.869725   3.304117   7.918639
    22  H    5.683579   5.968878   3.135252   3.635850   7.060450
    23  H    4.202965   4.954626   1.995564   3.385585   4.976920
    24  H    1.969300   3.129129   2.453519   3.471521   2.095432
    25  H    1.969300   3.129129   2.453519   3.471521   2.095432
                   16         17         18         19         20
    16  H    0.000000
    17  H    2.543757   0.000000
    18  H    4.431591   2.526690   0.000000
    19  H    6.430176   5.218424   2.856272   0.000000
    20  H    8.200315   7.253975   4.935885   2.079686   0.000000
    21  H    9.696114   9.219912   7.109443   4.327068   2.400695
    22  H    9.277612   9.455559   7.822855   5.468807   4.150094
    23  H    7.402810   8.104938   7.044035   5.449498   5.022558
    24  H    4.391908   5.386606   5.060544   4.821391   5.619364
    25  H    4.391908   5.386606   5.060544   4.821391   5.619364
                   21         22         23         24         25
    21  H    0.000000
    22  H    2.426344   0.000000
    23  H    4.328319   2.415722   0.000000
    24  H    6.226937   5.224698   3.217906   0.000000
    25  H    6.226937   5.224698   3.217906   1.719170   0.000000
 Stoichiometry    C14H11(1+)
 Framework group  CS[SG(C14H9),X(H2)]
 Deg. of freedom    46
 Full point group                 CS      NOp   2
 Largest Abelian subgroup         CS      NOp   2
 Largest concise Abelian subgroup CS      NOp   2
                         Standard orientation:                         
 ---------------------------------------------------------------------
 Center     Atomic      Atomic             Coordinates (Angstroms)
 Number     Number       Type             X           Y           Z
 ---------------------------------------------------------------------
      1          6           0        0.203142    2.904965    0.000000
      2          6           0       -0.788618    3.855007    0.000000
      3          6           0       -1.966416    3.297672    0.000000
      4          6           0       -2.153506    1.596434    0.000000
      5          6           0       -0.319547   -2.976627    0.000000
      6          6           0        0.558630   -3.633626    0.000000
      7          6           0        1.904934   -3.043502    0.000000
      8          6           0        2.222193   -1.654036    0.000000
      9          6           0        1.302961    0.650537    0.000000
     10          6           0       -1.193499   -0.847772    0.000000
     11          6           0        0.000000    1.242654    0.000000
     12          6           0       -1.185199    0.759326    0.000000
     13          6           0        1.338697   -0.932102    0.000000
     14          6           0       -0.101480   -1.469646    0.000000
     15          1           0        1.267475    3.168884    0.000000
     16          1           0       -0.609034    4.915469    0.000000
     17          1           0       -2.914795    3.841148    0.000000
     18          1           0       -3.217124    1.332611    0.000000
     19          1           0       -2.166224   -1.323307    0.000000
     20          1           0       -1.379749   -3.248547    0.000000
     21          1           0        0.521366   -4.714527    0.000000
     22          1           0        2.741623   -3.735958    0.000000
     23          1           0        3.282961   -1.381671    0.000000
     24          1           0        1.769875    1.325099    0.859585
     25          1           0        1.769875    1.325099   -0.859585
 ---------------------------------------------------------------------
 Rotational constants (GHZ):           2.1307140           0.4423255           0.3670788
 Standard basis: 6-311++G(d,p) (5D, 7F)
 There are   299 symmetry adapted cartesian basis functions of A'  symmetry.
 There are   100 symmetry adapted cartesian basis functions of A"  symmetry.
 There are   285 symmetry adapted basis functions of A'  symmetry.
 There are   100 symmetry adapted basis functions of A"  symmetry.
   385 basis functions,   603 primitive gaussians,   399 cartesian basis functions
    47 alpha electrons       47 beta electrons
       nuclear repulsion energy       783.5611691932 Hartrees.
 NAtoms=   25 NActive=   25 NUniq=   24 SFac= 1.09D+00 NAtFMM=   60 NAOKFM=F Big=F
 Integral buffers will be    131072 words long.
 Regular integral format.
 Two-electron integral symmetry is turned on.
 Nuclear repulsion after empirical dispersion term =      783.5602080435 Hartrees.
 One-electron integrals computed using PRISM.
 NBasis=   385 RedAO= T EigKep=  1.06D-06  NBF=   285   100
 NBsUse=   379 1.00D-06 EigRej=  7.16D-07 NBFU=   279   100
 ExpMin= 3.60D-02 ExpMax= 4.56D+03 ExpMxC= 6.82D+02 IAcc=3 IRadAn=         5 AccDes= 0.00D+00
 Harris functional with IExCor= 1009 and IRadAn=       5 diagonalized for initial guess.
 HarFok:  IExCor= 1009 AccDes= 0.00D+00 IRadAn=         5 IDoV= 1 UseB2=F ITyADJ=14
 ICtDFT=  3500011 ScaDFX=  1.000000  1.000000  1.000000  1.000000
 FoFCou: FMM=F IPFlag=           0 FMFlag=      100000 FMFlg1=           0
         NFxFlg=           0 DoJE=T BraDBF=F KetDBF=T FulRan=T
         wScrn=  0.000000 ICntrl=       500 IOpCl=  0 I1Cent=   200000004 NGrid=           0
         NMat0=    1 NMatS0=      1 NMatT0=    0 NMatD0=    1 NMtDS0=    0 NMtDT0=    0
 Petite list used in FoFCou.
 Initial guess orbital symmetries:
       Occupied  (A') (A') (A') (A') (A') (A') (A') (A') (A') (A')
                 (A') (A') (A') (A') (A') (A') (A') (A') (A') (A')
                 (A') (A') (A') (A') (A') (A') (A') (A') (A') (A')
                 (A') (A') (A") (A') (A') (A') (A") (A') (A') (A")
                 (A') (A') (A") (A") (A') (A") (A")
       Virtual   (A") (A") (A") (A") (A") (A') (A') (A') (A') (A')
                 (A') (A") (A') (A') (A") (A') (A') (A") (A') (A')
                 (A') (A") (A') (A') (A') (A") (A') (A") (A') (A")
                 (A') (A') (A') (A') (A") (A') (A') (A') (A") (A')
                 (A") (A') (A") (A') (A') (A') (A') (A') (A') (A')
                 (A") (A') (A") (A") (A') (A') (A") (A') (A") (A')
                 (A') (A') (A') (A') (A") (A') (A') (A') (A") (A')
                 (A') (A') (A') (A') (A') (A') (A') (A') (A') (A')
                 (A') (A') (A') (A') (A') (A') (A') (A') (A') (A')
                 (A') (A') (A') (A') (A") (A') (A") (A') (A') (A")
                 (A') (A") (A') (A') (A") (A') (A") (A') (A') (A")
                 (A") (A") (A") (A') (A') (A') (A") (A') (A') (A")
                 (A") (A') (A') (A') (A") (A') (A') (A') (A") (A')
                 (A') (A') (A') (A') (A') (A') (A') (A') (A") (A')
                 (A') (A') (A') (A') (A") (A') (A') (A') (A') (A')
                 (A") (A') (A") (A') (A") (A') (A') (A') (A") (A")
                 (A') (A') (A") (A") (A") (A') (A") (A') (A') (A')
                 (A") (A') (A') (A') (A') (A') (A') (A') (A") (A")
                 (A') (A") (A') (A') (A") (A') (A") (A') (A") (A')
                 (A") (A') (A") (A') (A') (A') (A') (A") (A') (A")
                 (A") (A') (A") (A') (A") (A") (A') (A') (A') (A")
                 (A') (A') (A') (A") (A') (A') (A") (A') (A') (A")
                 (A') (A") (A') (A") (A') (A') (A') (A") (A') (A')
                 (A") (A') (A") (A') (A') (A') (A") (A") (A') (A")
                 (A') (A') (A') (A') (A") (A') (A') (A') (A') (A")
                 (A') (A') (A') (A") (A") (A') (A') (A") (A') (A')
                 (A") (A') (A') (A') (A") (A') (A') (A') (A") (A")
                 (A') (A') (A") (A') (A") (A') (A') (A") (A') (A')
                 (A") (A') (A") (A') (A') (A") (A") (A') (A') (A')
                 (A') (A') (A') (A') (A') (A') (A') (A') (A") (A')
                 (A') (A') (A') (A') (A') (A') (A') (A') (A') (A')
                 (A') (A') (A') (A') (A') (A') (A') (A') (A') (A')
                 (A') (A') (A') (A') (A') (A') (A') (A') (A') (A')
                 (A') (A')
 The electronic state of the initial guess is 1-A'.
 Requested convergence on RMS density matrix=1.00D-08 within 128 cycles.
 Requested convergence on MAX density matrix=1.00D-06.
 Requested convergence on             energy=1.00D-06.
 No special actions if energy rises.
 SCF Done:  E(RM062X) =  -539.326705649     A.U. after   17 cycles
            NFock= 17  Conv=0.51D-08     -V/T= 2.0005
 DoSCS=F DFT=T ScalE2(SS,OS)=  1.000000  1.000000
 ExpMin= 3.60D-02 ExpMax= 4.56D+03 ExpMxC= 6.82D+02 IAcc=3 IRadAn=         5 AccDes= 0.00D+00
 HarFok:  IExCor=  205 AccDes= 0.00D+00 IRadAn=         5 IDoV=-2 UseB2=F ITyADJ=14
 ICtDFT= 12500011 ScaDFX=  1.000000  1.000000  1.000000  1.000000
 Range of M.O.s used for correlation:    15   379
 NBasis=   385 NAE=    47 NBE=    47 NFC=    14 NFV=     0
 NROrb=    365 NOA=    33 NOB=    33 NVA=   332 NVB=   332

 **** Warning!!: The largest alpha MO coefficient is  0.20980140D+03


 **** Warning!!: The smallest alpha delta epsilon is  0.99544234D-01

 Orbital symmetries:
       Occupied  (A') (A') (A') (A') (A') (A') (A') (A') (A') (A')
                 (A') (A') (A') (A') (A') (A') (A') (A') (A') (A')
                 (A') (A') (A') (A') (A') (A') (A') (A') (A') (A')
                 (A') (A") (A') (A') (A') (A') (A") (A') (A") (A')
                 (A') (A") (A') (A") (A') (A") (A")
       Virtual   (A") (A") (A") (A') (A') (A") (A') (A') (A') (A")
                 (A') (A") (A') (A') (A") (A') (A") (A') (A') (A')
                 (A") (A") (A') (A') (A') (A') (A') (A') (A") (A')
                 (A") (A") (A') (A') (A') (A") (A') (A') (A") (A')
                 (A') (A") (A') (A') (A') (A") (A') (A") (A") (A')
                 (A') (A') (A') (A") (A') (A') (A') (A") (A') (A')
                 (A') (A') (A') (A") (A') (A') (A") (A') (A') (A')
                 (A') (A') (A') (A') (A') (A') (A') (A') (A') (A')
                 (A') (A') (A') (A') (A') (A') (A') (A') (A') (A')
                 (A') (A") (A') (A') (A") (A') (A') (A') (A") (A')
                 (A") (A') (A') (A") (A') (A") (A") (A') (A') (A")
                 (A') (A") (A') (A") (A') (A') (A") (A') (A") (A')
                 (A") (A') (A') (A") (A') (A") (A') (A') (A') (A')
                 (A') (A') (A') (A') (A') (A') (A') (A') (A') (A')
                 (A') (A') (A') (A") (A') (A') (A') (A") (A') (A')
                 (A') (A') (A') (A") (A') (A') (A") (A") (A") (A')
                 (A') (A") (A") (A') (A') (A") (A') (A") (A") (A')
                 (A") (A') (A') (A') (A') (A') (A') (A') (A") (A")
                 (A') (A") (A') (A") (A') (A") (A') (A') (A") (A')
                 (A") (A') (A") (A') (A') (A") (A') (A') (A') (A")
                 (A") (A') (A") (A') (A") (A') (A") (A') (A') (A")
                 (A') (A') (A') (A') (A") (A') (A") (A') (A') (A')
                 (A") (A') (A") (A") (A') (A') (A') (A") (A') (A')
                 (A") (A') (A") (A') (A') (A') (A") (A") (A') (A")
                 (A') (A') (A") (A') (A') (A') (A') (A') (A') (A')
                 (A") (A') (A') (A') (A') (A') (A") (A') (A") (A')
                 (A') (A') (A") (A') (A") (A') (A') (A') (A') (A")
                 (A') (A') (A") (A") (A') (A") (A") (A') (A') (A")
                 (A') (A") (A') (A") (A') (A") (A") (A') (A') (A')
                 (A') (A') (A') (A') (A') (A') (A') (A') (A") (A')
                 (A') (A') (A') (A') (A') (A') (A') (A') (A') (A')
                 (A') (A') (A') (A') (A') (A') (A') (A') (A') (A')
                 (A') (A') (A') (A') (A') (A') (A') (A') (A') (A')
                 (A') (A')
     4 initial guesses have been made.
 Convergence on wavefunction:    0.001000000000000
 Iteration     1 Dimension     4 NMult     0 NNew      4
 CISAX will form     4 AO SS matrices at one time.
 Iteration     2 Dimension     6 NMult     4 NNew      2
 Iteration     3 Dimension     8 NMult     6 NNew      2
 Iteration     4 Dimension    10 NMult     8 NNew      2
 Iteration     5 Dimension    12 NMult    10 NNew      2
 Iteration     6 Dimension    14 NMult    12 NNew      2
 ***********************************************************************
 Excited states from <AA,BB:AA,BB> singles matrix:
 ***********************************************************************
 
 Ground to excited state transition densities written to RWF  633
 Ground to excited state transition electric dipole moments (Au):
       state          X           Y           Z        Dip. S.      Osc.
         1        -0.3574      1.4392     -0.0000      2.1990      0.0644
 Ground to excited state transition velocity dipole moments (Au):
       state          X           Y           Z        Dip. S.      Osc.
         1         0.0094     -0.0605      0.0000      0.0038      0.0569
 Ground to excited state transition magnetic dipole moments (Au):
       state          X           Y           Z
         1         0.0000     -0.0000     -0.3689
 Ground to excited state transition velocity quadrupole moments (Au):
       state          XX          YY          ZZ          XY          XZ          YZ
         1         0.0209      0.0318     -0.0050     -0.0588      0.0000      0.0000
 <0|del|b> * <b|rxdel|0> + <0|del|b> * <b|delr+rdel|0>
 Rotatory Strengths (R) in cgs (10**-40 erg-esu-cm/Gauss)
       state          XX          YY          ZZ    R(velocity)    E-M Angle
         1         0.0000     -0.0000      0.0000      0.0000       90.00
 1/2[<0|r|b>*<b|rxdel|0> + (<0|rxdel|b>*<b|r|0>)*]
 Rotatory Strengths (R) in cgs (10**-40 erg-esu-cm/Gauss)
       state          XX          YY          ZZ     R(length)
         1         0.0000      0.0000     -0.0000      0.0000
  1/2[<0|del|b>*<b|r|0> + (<0|r|b>*<b|del|0>)*] (Au)
       state          X           Y           Z        Dip. S.   Osc.(frdel)
         1        -0.0034     -0.0871     -0.0000      0.0904      0.0603

 Excitation energies and oscillator strengths:
 
 Excited State   1:      Singlet-A'     1.1954 eV 1037.14 nm  f=0.0644  <S**2>=0.000
      47 -> 48         0.70578
 This state for optimization and/or second-order correction.
 Total Energy, E(TD-HF/TD-DFT) =  -539.282774030    
 Copying the excited state density for this state as the 1-particle RhoCI density.
 SavETr:  write IOETrn=   770 NScale= 10 NData=  16 NLR=1 NState=    1 LETran=      28.

 **********************************************************************

            Population analysis using the SCF Density.

 **********************************************************************

 Orbital symmetries:
       Occupied  (A') (A') (A') (A') (A') (A') (A') (A') (A') (A')
                 (A') (A') (A') (A') (A') (A') (A') (A') (A') (A')
                 (A') (A') (A') (A') (A') (A') (A') (A') (A') (A')
                 (A') (A") (A') (A') (A') (A') (A") (A') (A") (A')
                 (A') (A") (A') (A") (A') (A") (A")
       Virtual   (A") (A") (A") (A') (A') (A") (A') (A') (A') (A")
                 (A') (A") (A') (A') (A") (A') (A") (A') (A') (A')
                 (A") (A") (A') (A') (A') (A') (A') (A') (A") (A')
                 (A") (A") (A') (A') (A') (A") (A') (A') (A") (A')
                 (A') (A") (A') (A') (A') (A") (A') (A") (A") (A')
                 (A') (A') (A') (A") (A') (A') (A') (A") (A') (A')
                 (A') (A') (A') (A") (A') (A') (A") (A') (A') (A')
                 (A') (A') (A') (A') (A') (A') (A') (A') (A') (A')
                 (A') (A') (A') (A') (A') (A') (A') (A') (A') (A')
                 (A') (A") (A') (A') (A") (A') (A') (A') (A") (A')
                 (A") (A') (A') (A") (A') (A") (A") (A') (A') (A")
                 (A') (A") (A') (A") (A') (A') (A") (A') (A") (A')
                 (A") (A') (A') (A") (A') (A") (A') (A') (A') (A')
                 (A') (A') (A') (A') (A') (A') (A') (A') (A') (A')
                 (A') (A') (A') (A") (A') (A') (A') (A") (A') (A')
                 (A') (A') (A') (A") (A') (A') (A") (A") (A") (A')
                 (A') (A") (A") (A') (A') (A") (A') (A") (A") (A')
                 (A") (A') (A') (A') (A') (A') (A') (A') (A") (A")
                 (A') (A") (A') (A") (A') (A") (A') (A') (A") (A')
                 (A") (A') (A") (A') (A') (A") (A') (A') (A') (A")
                 (A") (A') (A") (A') (A") (A') (A") (A') (A') (A")
                 (A') (A') (A') (A') (A") (A') (A") (A') (A') (A')
                 (A") (A') (A") (A") (A') (A') (A') (A") (A') (A')
                 (A") (A') (A") (A') (A') (A') (A") (A") (A') (A")
                 (A') (A') (A") (A') (A') (A') (A') (A') (A') (A')
                 (A") (A') (A') (A') (A') (A') (A") (A') (A") (A')
                 (A') (A') (A") (A') (A") (A') (A') (A') (A') (A")
                 (A') (A') (A") (A") (A') (A") (A") (A') (A') (A")
                 (A') (A") (A') (A") (A') (A") (A") (A') (A') (A')
                 (A') (A') (A') (A') (A') (A') (A') (A') (A") (A')
                 (A') (A') (A') (A') (A') (A') (A') (A') (A') (A')
                 (A') (A') (A') (A') (A') (A') (A') (A') (A') (A')
                 (A') (A') (A') (A') (A') (A') (A') (A') (A') (A')
                 (A') (A')
 The electronic state is 1-A'.
 Alpha  occ. eigenvalues --  -10.78297 -10.75252 -10.73812 -10.72548 -10.72540
 Alpha  occ. eigenvalues --  -10.71050 -10.70876 -10.70814 -10.69431 -10.69370
 Alpha  occ. eigenvalues --  -10.68720 -10.68657 -10.68388 -10.66555  -1.19976
 Alpha  occ. eigenvalues --   -1.12911  -1.11671  -1.06699  -1.02543  -1.01216
 Alpha  occ. eigenvalues --   -0.95513  -0.88505  -0.86203  -0.84954  -0.83457
 Alpha  occ. eigenvalues --   -0.77527  -0.76626  -0.74478  -0.72749  -0.69893
 Alpha  occ. eigenvalues --   -0.69033  -0.67825  -0.66567  -0.65025  -0.63528
 Alpha  occ. eigenvalues --   -0.63142  -0.62957  -0.59892  -0.57988  -0.56304
 Alpha  occ. eigenvalues --   -0.54892  -0.54521  -0.53268  -0.52424  -0.48765
 Alpha  occ. eigenvalues --   -0.47568  -0.36951
 Alpha virt. eigenvalues --   -0.26996  -0.15777  -0.12866  -0.11543  -0.10366
 Alpha virt. eigenvalues --   -0.10152  -0.09855  -0.07830  -0.07689  -0.07513
 Alpha virt. eigenvalues --   -0.07365  -0.06153  -0.05819  -0.05425  -0.05286
 Alpha virt. eigenvalues --   -0.04442  -0.04083  -0.03454  -0.03193  -0.01962
 Alpha virt. eigenvalues --   -0.01893  -0.00950  -0.00680  -0.00595   0.00516
 Alpha virt. eigenvalues --    0.00645   0.01078   0.01396   0.01420   0.01607
 Alpha virt. eigenvalues --    0.02062   0.02599   0.03125   0.03194   0.03512
 Alpha virt. eigenvalues --    0.03785   0.03796   0.04034   0.05177   0.05488
 Alpha virt. eigenvalues --    0.05546   0.05819   0.05975   0.06426   0.07345
 Alpha virt. eigenvalues --    0.07371   0.07874   0.07962   0.08213   0.08226
 Alpha virt. eigenvalues --    0.08466   0.08810   0.09569   0.09768   0.10081
 Alpha virt. eigenvalues --    0.10465   0.10706   0.11300   0.11713   0.12380
 Alpha virt. eigenvalues --    0.12750   0.12979   0.13348   0.13712   0.14068
 Alpha virt. eigenvalues --    0.14321   0.15660   0.16635   0.17092   0.17595
 Alpha virt. eigenvalues --    0.18321   0.19076   0.20047   0.20600   0.20892
 Alpha virt. eigenvalues --    0.21427   0.22052   0.23041   0.23949   0.24137
 Alpha virt. eigenvalues --    0.24635   0.25483   0.26024   0.27170   0.28165
 Alpha virt. eigenvalues --    0.29102   0.30186   0.31417   0.32083   0.34925
 Alpha virt. eigenvalues --    0.36978   0.37816   0.37897   0.39132   0.39262
 Alpha virt. eigenvalues --    0.40553   0.41954   0.42644   0.43448   0.43913
 Alpha virt. eigenvalues --    0.44125   0.44810   0.46348   0.46460   0.46862
 Alpha virt. eigenvalues --    0.48125   0.48905   0.49099   0.51064   0.51382
 Alpha virt. eigenvalues --    0.51798   0.52252   0.53161   0.53716   0.54346
 Alpha virt. eigenvalues --    0.54832   0.55650   0.57949   0.58023   0.59216
 Alpha virt. eigenvalues --    0.59256   0.61810   0.62261   0.62994   0.63074
 Alpha virt. eigenvalues --    0.64330   0.64580   0.65702   0.66736   0.67629
 Alpha virt. eigenvalues --    0.69738   0.72180   0.73414   0.73879   0.74345
 Alpha virt. eigenvalues --    0.74712   0.75798   0.76709   0.77460   0.77864
 Alpha virt. eigenvalues --    0.79357   0.79550   0.80663   0.81338   0.81945
 Alpha virt. eigenvalues --    0.82359   0.82698   0.84303   0.84891   0.86068
 Alpha virt. eigenvalues --    0.86817   0.88564   0.89953   0.90083   0.91267
 Alpha virt. eigenvalues --    0.92875   0.93427   0.95452   0.98269   0.98530
 Alpha virt. eigenvalues --    1.00328   1.00387   1.02610   1.02922   1.05542
 Alpha virt. eigenvalues --    1.06078   1.07528   1.07668   1.08045   1.11147
 Alpha virt. eigenvalues --    1.14929   1.17064   1.20517   1.20815   1.27794
 Alpha virt. eigenvalues --    1.30656   1.31015   1.34139   1.34370   1.36340
 Alpha virt. eigenvalues --    1.37568   1.38831   1.39118   1.39683   1.39864
 Alpha virt. eigenvalues --    1.44190   1.44901   1.46951   1.47279   1.49360
 Alpha virt. eigenvalues --    1.49699   1.51713   1.52572   1.55564   1.56422
 Alpha virt. eigenvalues --    1.56820   1.56874   1.57545   1.59458   1.59908
 Alpha virt. eigenvalues --    1.63370   1.63633   1.65087   1.65422   1.68333
 Alpha virt. eigenvalues --    1.70035   1.70641   1.71972   1.73552   1.74572
 Alpha virt. eigenvalues --    1.76548   1.77467   1.78827   1.79572   1.79701
 Alpha virt. eigenvalues --    1.82140   1.83331   1.83796   1.85382   1.86892
 Alpha virt. eigenvalues --    1.87155   1.88342   1.88350   1.92000   1.92853
 Alpha virt. eigenvalues --    1.94083   1.95363   1.97992   2.00070   2.00814
 Alpha virt. eigenvalues --    2.01152   2.05063   2.10679   2.10695   2.15053
 Alpha virt. eigenvalues --    2.16435   2.18059   2.18983   2.20117   2.21496
 Alpha virt. eigenvalues --    2.23832   2.26082   2.31068   2.31079   2.31304
 Alpha virt. eigenvalues --    2.34739   2.37735   2.38882   2.40955   2.43049
 Alpha virt. eigenvalues --    2.43334   2.43959   2.49027   2.51810   2.52643
 Alpha virt. eigenvalues --    2.56511   2.56752   2.57780   2.59204   2.60797
 Alpha virt. eigenvalues --    2.61598   2.62381   2.63372   2.64284   2.64842
 Alpha virt. eigenvalues --    2.65134   2.66626   2.67764   2.69087   2.70661
 Alpha virt. eigenvalues --    2.71203   2.72138   2.73552   2.74624   2.75513
 Alpha virt. eigenvalues --    2.76530   2.78513   2.79620   2.82820   2.84576
 Alpha virt. eigenvalues --    2.88330   2.89095   2.92479   2.92674   2.96149
 Alpha virt. eigenvalues --    2.98803   3.01215   3.03772   3.04895   3.08215
 Alpha virt. eigenvalues --    3.08792   3.15771   3.19807   3.25393   3.27686
 Alpha virt. eigenvalues --    3.33627   3.36420   3.38005   3.42464   3.51424
 Alpha virt. eigenvalues --    3.54906   3.58489   3.62465   3.72113   3.73543
 Alpha virt. eigenvalues --    3.74509   3.79520   3.83713   3.87742   3.90563
 Alpha virt. eigenvalues --    3.97682   4.01234   4.06359   4.15241   4.26325
 Alpha virt. eigenvalues --    4.34834   4.44284   4.52117  23.41661  23.47877
 Alpha virt. eigenvalues --   23.54376  23.57577  23.58524  23.81242  23.83601
 Alpha virt. eigenvalues --   23.95283  24.18832  24.35056  24.46018  24.52532
 Alpha virt. eigenvalues --   25.05656  25.30095
          Condensed to atoms (all electrons):
               1          2          3          4          5          6
     1  C   17.510840  -6.318147   1.577163   3.701582  -0.550287  -0.163806
     2  C   -6.318147  12.161951  -1.542680  -2.404261   0.261760  -0.009323
     3  C    1.577163  -1.542680   6.952540   1.596974  -0.178999   0.009751
     4  C    3.701582  -2.404261   1.596974   9.237028  -0.909634  -0.060230
     5  C   -0.550287   0.261760  -0.178999  -0.909634  11.943895   0.913227
     6  C   -0.163806  -0.009323   0.009751  -0.060230   0.913227   7.090408
     7  C    0.061467  -0.019770  -0.014456  -0.149678  -0.215338   0.596552
     8  C    0.151987   0.007532  -0.080994  -0.223686   1.223878  -0.473791
     9  C    0.439774  -1.988250   0.378876   0.019446   0.222633   0.099489
    10  C   -0.662338   0.422783  -0.498722  -0.843186  -3.026542   0.096678
    11  C   -4.574404   2.134369  -0.298443  -1.180624  -0.149339  -0.470362
    12  C   -5.262993   3.659605  -1.411828  -1.659108  -1.084723   0.696847
    13  C    1.147601  -0.870225   0.175017  -0.800472  -1.104420  -0.506309
    14  C   -1.750451   0.786413  -0.667306  -0.410349  -1.629085  -1.850339
    15  H    0.491038  -0.245507   0.057354   0.051218  -0.015469   0.000807
    16  H   -0.043069   0.384707  -0.025045  -0.012163   0.001575  -0.000116
    17  H   -0.053630   0.023115   0.353198  -0.036229  -0.001050   0.000318
    18  H    0.113975  -0.055744  -0.034384   0.426304   0.005294  -0.003158
    19  H   -0.054615   0.000235   0.030785  -0.027142  -0.046944   0.051141
    20  H    0.005410   0.004229  -0.004305  -0.009713   0.507453  -0.042392
    21  H   -0.002524  -0.000160   0.000348   0.001316  -0.056388   0.394335
    22  H    0.003061   0.000761  -0.000430  -0.003500   0.032110  -0.028687
    23  H    0.001458  -0.003222   0.001401   0.005248  -0.000762   0.000013
    24  H   -0.040815   0.020758  -0.005024  -0.024811   0.008723  -0.000865
    25  H   -0.040815   0.020758  -0.005024  -0.024811   0.008723  -0.000865
               7          8          9         10         11         12
     1  C    0.061467   0.151987   0.439774  -0.662338  -4.574404  -5.262993
     2  C   -0.019770   0.007532  -1.988250   0.422783   2.134369   3.659605
     3  C   -0.014456  -0.080994   0.378876  -0.498722  -0.298443  -1.411828
     4  C   -0.149678  -0.223686   0.019446  -0.843186  -1.180624  -1.659108
     5  C   -0.215338   1.223878   0.222633  -3.026542  -0.149339  -1.084723
     6  C    0.596552  -0.473791   0.099489   0.096678  -0.470362   0.696847
     7  C    7.803049   1.211278  -0.680041  -0.586343  -0.393713  -0.660536
     8  C    1.211278   7.477962  -0.058737  -0.763221   0.060813  -1.319941
     9  C   -0.680041  -0.058737   9.433299   0.101982  -0.883772  -0.305633
    10  C   -0.586343  -0.763221   0.101982   8.380469  -0.241202   1.338534
    11  C   -0.393713   0.060813  -0.883772  -0.241202  12.363144   1.677489
    12  C   -0.660536  -1.319941  -0.305633   1.338534   1.677489  12.397428
    13  C    0.070348   0.311862   1.028152   0.638851  -1.826269  -2.214060
    14  C   -0.958980  -1.828521  -2.199472   1.370971  -0.377878  -0.282320
    15  H    0.002755   0.001228   0.170510  -0.008726  -0.177432  -0.079745
    16  H   -0.000134   0.000156  -0.015490   0.000461   0.031896   0.020723
    17  H   -0.000397  -0.001506  -0.000511   0.001293   0.021604   0.043810
    18  H    0.000793   0.001172  -0.006535   0.048253   0.031810  -0.196408
    19  H   -0.009772  -0.024595   0.067761   0.428875  -0.003589   0.173409
    20  H    0.025946   0.033417  -0.017302  -0.011952   0.009758  -0.087572
    21  H   -0.037810  -0.000666   0.000664   0.019924  -0.008649   0.013156
    22  H    0.388711  -0.021689  -0.002327  -0.025674   0.007020  -0.022983
    23  H   -0.075420   0.369569   0.017147   0.004926  -0.030653   0.008275
    24  H    0.011923   0.039469   0.375416   0.006078  -0.046173  -0.010624
    25  H    0.011923   0.039469   0.375416   0.006078  -0.046173  -0.010624
              13         14         15         16         17         18
     1  C    1.147601  -1.750451   0.491038  -0.043069  -0.053630   0.113975
     2  C   -0.870225   0.786413  -0.245507   0.384707   0.023115  -0.055744
     3  C    0.175017  -0.667306   0.057354  -0.025045   0.353198  -0.034384
     4  C   -0.800472  -0.410349   0.051218  -0.012163  -0.036229   0.426304
     5  C   -1.104420  -1.629085  -0.015469   0.001575  -0.001050   0.005294
     6  C   -0.506309  -1.850339   0.000807  -0.000116   0.000318  -0.003158
     7  C    0.070348  -0.958980   0.002755  -0.000134  -0.000397   0.000793
     8  C    0.311862  -1.828521   0.001228   0.000156  -0.001506   0.001172
     9  C    1.028152  -2.199472   0.170510  -0.015490  -0.000511  -0.006535
    10  C    0.638851   1.370971  -0.008726   0.000461   0.001293   0.048253
    11  C   -1.826269  -0.377878  -0.177432   0.031896   0.021604   0.031810
    12  C   -2.214060  -0.282320  -0.079745   0.020723   0.043810  -0.196408
    13  C   13.629693  -3.105938   0.070454  -0.009830  -0.000921  -0.006494
    14  C   -3.105938  18.600004  -0.041876   0.008612  -0.005483   0.010828
    15  H    0.070454  -0.041876   0.506048  -0.007562   0.000010  -0.000981
    16  H   -0.009830   0.008612  -0.007562   0.426771  -0.002156   0.001145
    17  H   -0.000921  -0.005483   0.000010  -0.002156   0.426891  -0.003991
    18  H   -0.006494   0.010828  -0.000981   0.001145  -0.003991   0.454989
    19  H    0.035209  -0.262969   0.000150  -0.000257   0.000593  -0.009764
    20  H   -0.012136  -0.056876  -0.000170   0.000022  -0.000119   0.001040
    21  H   -0.020665   0.039464  -0.000014  -0.000003   0.000008  -0.000189
    22  H    0.042656  -0.033367  -0.000215   0.000007  -0.000007   0.000013
    23  H   -0.036795   0.084595   0.000681  -0.000093   0.000034  -0.000166
    24  H    0.024460  -0.027164  -0.002158   0.000523   0.000005   0.000291
    25  H    0.024460  -0.027164  -0.002158   0.000523   0.000005   0.000291
              19         20         21         22         23         24
     1  C   -0.054615   0.005410  -0.002524   0.003061   0.001458  -0.040815
     2  C    0.000235   0.004229  -0.000160   0.000761  -0.003222   0.020758
     3  C    0.030785  -0.004305   0.000348  -0.000430   0.001401  -0.005024
     4  C   -0.027142  -0.009713   0.001316  -0.003500   0.005248  -0.024811
     5  C   -0.046944   0.507453  -0.056388   0.032110  -0.000762   0.008723
     6  C    0.051141  -0.042392   0.394335  -0.028687   0.000013  -0.000865
     7  C   -0.009772   0.025946  -0.037810   0.388711  -0.075420   0.011923
     8  C   -0.024595   0.033417  -0.000666  -0.021689   0.369569   0.039469
     9  C    0.067761  -0.017302   0.000664  -0.002327   0.017147   0.375416
    10  C    0.428875  -0.011952   0.019924  -0.025674   0.004926   0.006078
    11  C   -0.003589   0.009758  -0.008649   0.007020  -0.030653  -0.046173
    12  C    0.173409  -0.087572   0.013156  -0.022983   0.008275  -0.010624
    13  C    0.035209  -0.012136  -0.020665   0.042656  -0.036795   0.024460
    14  C   -0.262969  -0.056876   0.039464  -0.033367   0.084595  -0.027164
    15  H    0.000150  -0.000170  -0.000014  -0.000215   0.000681  -0.002158
    16  H   -0.000257   0.000022  -0.000003   0.000007  -0.000093   0.000523
    17  H    0.000593  -0.000119   0.000008  -0.000007   0.000034   0.000005
    18  H   -0.009764   0.001040  -0.000189   0.000013  -0.000166   0.000291
    19  H    0.475939   0.000083   0.002451  -0.000481   0.000734   0.000636
    20  H    0.000083   0.437859  -0.011927   0.002461  -0.000072   0.000068
    21  H    0.002451  -0.011927   0.408706  -0.003689   0.001684  -0.000085
    22  H   -0.000481   0.002461  -0.003689   0.388164  -0.003912   0.000455
    23  H    0.000734  -0.000072   0.001684  -0.003912   0.411528  -0.000392
    24  H    0.000636   0.000068  -0.000085   0.000455  -0.000392   0.469482
    25  H    0.000636   0.000068  -0.000085   0.000455  -0.000392  -0.069479
              25
     1  C   -0.040815
     2  C    0.020758
     3  C   -0.005024
     4  C   -0.024811
     5  C    0.008723
     6  C   -0.000865
     7  C    0.011923
     8  C    0.039469
     9  C    0.375416
    10  C    0.006078
    11  C   -0.046173
    12  C   -0.010624
    13  C    0.024460
    14  C   -0.027164
    15  H   -0.002158
    16  H    0.000523
    17  H    0.000005
    18  H    0.000291
    19  H    0.000636
    20  H    0.000068
    21  H   -0.000085
    22  H    0.000455
    23  H   -0.000392
    24  H   -0.069479
    25  H    0.469482
 Mulliken charges:
               1
     1  C    0.312537
     2  C   -0.431687
     3  C   -0.365766
     4  C   -0.259518
     5  C   -0.160291
     6  C   -0.339323
     7  C   -0.382357
     8  C   -0.132444
     9  C   -0.572496
    10  C   -0.198252
    11  C    0.370772
    12  C    0.579821
    13  C   -0.684228
    14  C    0.614653
    15  H    0.229760
    16  H    0.238798
    17  H    0.235115
    18  H    0.221617
    19  H    0.171492
    20  H    0.226722
    21  H    0.260798
    22  H    0.281088
    23  H    0.244584
    24  H    0.269302
    25  H    0.269302
 Sum of Mulliken charges =   1.00000
 Mulliken charges with hydrogens summed into heavy atoms:
               1
     1  C    0.542298
     2  C   -0.192889
     3  C   -0.130650
     4  C   -0.037901
     5  C    0.066431
     6  C   -0.078525
     7  C   -0.101269
     8  C    0.112140
     9  C   -0.033891
    10  C   -0.026761
    11  C    0.370772
    12  C    0.579821
    13  C   -0.684228
    14  C    0.614653
 Electronic spatial extent (au):  <R**2>=           2865.6557
 Charge=              1.0000 electrons
 Dipole moment (field-independent basis, Debye):
    X=              2.7882    Y=             -4.5343    Z=              0.0000  Tot=              5.3229
 Quadrupole moment (field-independent basis, Debye-Ang):
   XX=            -53.8828   YY=            -29.4976   ZZ=            -83.6064
   XY=             -9.6159   XZ=              0.0000   YZ=              0.0000
 Traceless Quadrupole moment (field-independent basis, Debye-Ang):
   XX=              1.7795   YY=             26.1647   ZZ=            -27.9442
   XY=             -9.6159   XZ=              0.0000   YZ=              0.0000
 Octapole moment (field-independent basis, Debye-Ang**2):
  XXX=             16.2779  YYY=            -37.2042  ZZZ=              0.0000  XYY=             15.4711
  XXY=            -21.4250  XXZ=              0.0000  XZZ=              6.3162  YZZ=             -7.3502
  YYZ=              0.0000  XYZ=              0.0000
 Hexadecapole moment (field-independent basis, Debye-Ang**3):
 XXXX=           -832.4061 YYYY=          -1938.0851 ZZZZ=            -98.5298 XXXY=            275.7607
 XXXZ=              0.0000 YYYX=            193.9498 YYYZ=              0.0000 ZZZX=              0.0000
 ZZZY=              0.0000 XXYY=           -463.9825 XXZZ=           -202.6538 YYZZ=           -528.6803
 XXYZ=              0.0000 YYXZ=              0.0000 ZZXY=            145.7640
 N-N= 7.835602080435D+02 E-N=-2.804281894662D+03  KE= 5.390766702421D+02
 Symmetry A'   KE= 5.240579613608D+02
 Symmetry A"   KE= 1.501870888132D+01
 Unable to Open any file for archive entry.
 1\1\GINC-GADI-CPU-CLX-0240\SP\RM062X TD-FC\6-311++G(d,p)\C14H11(1+)\TS
 1578\02-Aug-2022\0\\#n M062X/6-311++G(d,p) TD(NStates=1) EmpiricalDisp
 ersion=GD3 SP\\SP_-10\\1,1\C,0,0.,2.600655,1.316431\C,0,0.,3.861508,0.
 771989\C,0,0.,3.805861,-0.52983\C,0,0.,2.311156,-1.363538\C,0,0.,-2.61
 5156,-1.451538\C,0,0.,-3.561861,-0.89783\C,0,0.,-3.541508,0.571989\C,0
 ,0.,-2.384655,1.404431\C,0,0.,0.096,1.453369\C,0,0.,-0.314,-1.429189\C
 ,0,0.,1.148055,0.483065\C,0,0.,1.163471,-0.796804\C,0,0.,-1.376055,0.8
 71065\C,0,0.,-1.311471,-0.664804\H,0,0.,2.430071,2.399647\H,0,0.,4.768
 753,1.349689\H,0,0.,4.675262,-1.192349\H,0,0.,2.48155,-2.446059\H,0,0.
 ,-0.374,-2.510266\H,0,0.,-2.45355,-2.534059\H,0,0.,-4.543262,-1.352349
 \H,0,0.,-4.504753,1.073689\H,0,0.,-2.546071,2.487647\H,0,-0.859585,0.5
 36,2.145787\H,0,0.859585,0.536,2.145787\\Version=ES64L-G16RevC.01\Stat
 e=1-A'\HF=-539.3267056\RMSD=5.144e-09\PG=CS [SG(C14H9),X(H2)]\\@
 The archive entry for this job was punched.


 NEVER TEACH A PIG TO SING.
 IT WASTES YOUR TIME AND ANNOYS THE PIG.
     -- SEEN ON A GREETING CARD
 Job cpu time:       0 days  0 hours 54 minutes 38.2 seconds.
 Elapsed time:       0 days  0 hours  1 minutes  8.8 seconds.
 File lengths (MBytes):  RWF=    460 Int=      0 D2E=      0 Chk=     15 Scr=      1
 Normal termination of Gaussian 16 at Tue Aug  2 11:57:50 2022.
