 Entering Gaussian System, Link 0=g16
 Initial command:
 /apps/gaussian/g16c01/g16/l1.exe "/jobfs/53803565.gadi-pbs/Gau-1015504.inp" -scrdir="/jobfs/53803565.gadi-pbs/"
 Entering Link 1 = /apps/gaussian/g16c01/g16/l1.exe PID=   1015505.
  
 Copyright (c) 1988-2019, Gaussian, Inc.  All Rights Reserved.
  
 This is part of the Gaussian(R) 16 program.  It is based on
 the Gaussian(R) 09 system (copyright 2009, Gaussian, Inc.),
 the Gaussian(R) 03 system (copyright 2003, Gaussian, Inc.),
 the Gaussian(R) 98 system (copyright 1998, Gaussian, Inc.),
 the Gaussian(R) 94 system (copyright 1995, Gaussian, Inc.),
 the Gaussian 92(TM) system (copyright 1992, Gaussian, Inc.),
 the Gaussian 90(TM) system (copyright 1990, Gaussian, Inc.),
 the Gaussian 88(TM) system (copyright 1988, Gaussian, Inc.),
 the Gaussian 86(TM) system (copyright 1986, Carnegie Mellon
 University), and the Gaussian 82(TM) system (copyright 1983,
 Carnegie Mellon University). Gaussian is a federally registered
 trademark of Gaussian, Inc.
  
 This software contains proprietary and confidential information,
 including trade secrets, belonging to Gaussian, Inc.
  
 This software is provided under written license and may be
 used, copied, transmitted, or stored only in accord with that
 written license.
  
 The following legend is applicable only to US Government
 contracts under FAR:
  
                    RESTRICTED RIGHTS LEGEND
  
 Use, reproduction and disclosure by the US Government is
 subject to restrictions as set forth in subparagraphs (a)
 and (c) of the Commercial Computer Software - Restricted
 Rights clause in FAR 52.227-19.
  
 Gaussian, Inc.
 340 Quinnipiac St., Bldg. 40, Wallingford CT 06492
  
  
 ---------------------------------------------------------------
 Warning -- This program may not be used in any manner that
 competes with the business of Gaussian, Inc. or will provide
 assistance to any competitor of Gaussian, Inc.  The licensee
 of this program is prohibited from giving any competitor of
 Gaussian, Inc. access to this program.  By using this program,
 the user acknowledges that Gaussian, Inc. is engaged in the
 business of creating and licensing software in the field of
 computational chemistry and represents and warrants to the
 licensee that it is not a competitor of Gaussian, Inc. and that
 it will not use this program in any manner prohibited above.
 ---------------------------------------------------------------
  

 Cite this work as:
 Gaussian 16, Revision C.01,
 M. J. Frisch, G. W. Trucks, H. B. Schlegel, G. E. Scuseria, 
 M. A. Robb, J. R. Cheeseman, G. Scalmani, V. Barone, 
 G. A. Petersson, H. Nakatsuji, X. Li, M. Caricato, A. V. Marenich, 
 J. Bloino, B. G. Janesko, R. Gomperts, B. Mennucci, H. P. Hratchian, 
 J. V. Ortiz, A. F. Izmaylov, J. L. Sonnenberg, D. Williams-Young, 
 F. Ding, F. Lipparini, F. Egidi, J. Goings, B. Peng, A. Petrone, 
 T. Henderson, D. Ranasinghe, V. G. Zakrzewski, J. Gao, N. Rega, 
 G. Zheng, W. Liang, M. Hada, M. Ehara, K. Toyota, R. Fukuda, 
 J. Hasegawa, M. Ishida, T. Nakajima, Y. Honda, O. Kitao, H. Nakai, 
 T. Vreven, K. Throssell, J. A. Montgomery, Jr., J. E. Peralta, 
 F. Ogliaro, M. J. Bearpark, J. J. Heyd, E. N. Brothers, K. N. Kudin, 
 V. N. Staroverov, T. A. Keith, R. Kobayashi, J. Normand, 
 K. Raghavachari, A. P. Rendell, J. C. Burant, S. S. Iyengar, 
 J. Tomasi, M. Cossi, J. M. Millam, M. Klene, C. Adamo, R. Cammi, 
 J. W. Ochterski, R. L. Martin, K. Morokuma, O. Farkas, 
 J. B. Foresman, and D. J. Fox, Gaussian, Inc., Wallingford CT, 2019.
 
 ******************************************
 Gaussian 16:  ES64L-G16RevC.01  3-Jul-2019
                 2-Aug-2022 
 ******************************************
 %NProcShared=48
 Will use up to   48 processors via shared memory.
 %mem = 190GB
 ---------------------------------------------------------------
 #n M062X/6-311++G(d,p) TD(NStates=1) EmpiricalDispersion=GD3 SP
 ---------------------------------------------------------------
 1/38=1,172=1/1;
 2/12=2,17=6,18=5,40=1/2;
 3/5=4,6=6,7=1111,11=9,25=1,30=1,74=-55,124=31/1,2,3,8;
 4//1;
 5/5=2,38=5/2;
 8/6=1,10=2,108=1/1;
 9/41=1,42=1,70=2/14;
 6/7=2,8=2,9=2,10=2/1;
 99/5=1,9=1/99;
 ------
 SP_-14
 ------
 Symbolic Z-matrix:
 Charge =  1 Multiplicity = 1
 C                     0.        2.76866   1.40443 
 C                     0.        3.97351   0.76399 
 C                     0.        3.77786  -0.51383 
 C                     0.        2.13516  -1.25954 
 C                     0.       -2.79116  -1.55554 
 C                     0.       -3.58986  -0.91383 
 C                     0.       -3.42951   0.57999 
 C                     0.       -2.21666   1.31643 
 C                     0.        0.096     1.45337 
 C                     0.       -0.382    -1.42919 
 C                     0.        1.16005   0.60707 
 C                     0.        1.09547  -0.6408 
 C                     0.       -1.36406   0.74707 
 C                     0.       -1.37947  -0.8208 
 H                     0.        2.66607   2.48765 
 H                     0.        4.93675   1.24169 
 H                     0.        4.56726  -1.30435 
 H                     0.        2.23755  -2.34206 
 H                     0.       -0.226    -2.51027 
 H                     0.       -2.69755  -2.63806 
 H                     0.       -4.65126  -1.24035 
 H                     0.       -4.33675   1.18169 
 H                     0.       -2.31007   2.39965 
 H                    -0.85959   0.52      2.14579 
 H                     0.85959   0.52      2.14579 
 
                          Input orientation:                          
 ---------------------------------------------------------------------
 Center     Atomic      Atomic             Coordinates (Angstroms)
 Number     Number       Type             X           Y           Z
 ---------------------------------------------------------------------
      1          6           0        0.000000    2.768655    1.404431
      2          6           0        0.000000    3.973508    0.763989
      3          6           0        0.000000    3.777861   -0.513830
      4          6           0        0.000000    2.135156   -1.259538
      5          6           0        0.000000   -2.791156   -1.555538
      6          6           0        0.000000   -3.589861   -0.913830
      7          6           0        0.000000   -3.429508    0.579989
      8          6           0        0.000000   -2.216655    1.316431
      9          6           0        0.000000    0.096000    1.453369
     10          6           0        0.000000   -0.382000   -1.429189
     11          6           0        0.000000    1.160055    0.607065
     12          6           0        0.000000    1.095471   -0.640804
     13          6           0        0.000000   -1.364055    0.747065
     14          6           0        0.000000   -1.379471   -0.820804
     15          1           0        0.000000    2.666071    2.487647
     16          1           0        0.000000    4.936753    1.241689
     17          1           0        0.000000    4.567262   -1.304349
     18          1           0        0.000000    2.237550   -2.342059
     19          1           0        0.000000   -0.226000   -2.510266
     20          1           0        0.000000   -2.697550   -2.638059
     21          1           0        0.000000   -4.651262   -1.240349
     22          1           0        0.000000   -4.336753    1.181689
     23          1           0        0.000000   -2.310071    2.399647
     24          1           0       -0.859585    0.520000    2.145787
     25          1           0        0.859585    0.520000    2.145787
 ---------------------------------------------------------------------
                    Distance matrix (angstroms):
                    1          2          3          4          5
     1  C    0.000000
     2  C    1.364491   0.000000
     3  C    2.167538   1.292710   0.000000
     4  C    2.738257   2.733898   1.804040   0.000000
     5  C    6.298644   7.151286   6.651101   4.935197   0.000000
     6  C    6.767944   7.747234   7.378572   5.735445   1.024558
     7  C    6.252754   7.405302   7.289898   5.860831   2.228894
     8  C    4.986087   6.214765   6.267701   5.057062   2.928866
     9  C    2.673103   3.938313   4.174443   3.393821   4.170035
    10  C    4.237456   4.876523   4.259381   2.522867   2.412467
    11  C    1.795379   2.817826   2.847686   2.105951   4.504322
    12  C    2.642448   3.202583   2.685394   1.209866   3.992820
    13  C    4.184665   5.337590   5.294257   4.033724   2.708985
    14  C    4.707294   5.582647   5.166460   3.541905   1.591442
    15  H    1.088063   2.163421   3.200772   3.784609   6.791809
    16  H    2.174197   1.075192   2.103539   3.755673   8.218580
    17  H    3.251534   2.151875   1.117172   2.432519   7.362704
    18  H    3.783948   3.558242   2.390602   1.087353   5.089843
    19  H    4.928774   5.325093   4.473998   2.671961   2.737066
    20  H    6.798612   7.488454   6.814932   5.025472   1.086561
    21  H    7.877184   8.854605   8.460375   6.786445   1.886621
    22  H    7.108898   8.320752   8.289858   6.917022   3.143451
    23  H    5.175318   6.492976   6.749168   5.757576   3.984336
    24  H    2.518917   3.817718   4.292564   3.865728   5.040084
    25  H    2.518917   3.817718   4.292564   3.865728   5.040084
                    6          7          8          9         10
     6  C    0.000000
     7  C    1.502401   0.000000
     8  C    2.619114   1.418929   0.000000
     9  C    4.380548   3.632079   2.316706   0.000000
    10  C    3.248995   3.650219   3.302179   2.921921   0.000000
    11  C    4.987467   4.589643   3.450416   1.359575   2.554264
    12  C    4.693280   4.686765   3.847200   2.320453   1.674656
    13  C    2.777190   2.072199   1.025234   1.621920   2.387575
    14  C    2.212347   2.482916   2.295354   2.710881   1.168367
    15  H    7.120866   6.387115   5.021231   2.770378   4.963098
    16  H    8.794851   8.392388   7.153798   4.845379   5.951699
    17  H    8.166466   8.215781   7.272552   5.253303   4.950836
    18  H    5.999880   6.376042   5.764069   4.357925   2.774054
    19  H    3.723462   4.451083   4.313504   3.976693   1.092274
    20  H    1.941439   3.300242   3.983623   4.954160   2.612114
    21  H    1.110489   2.192331   3.530501   5.458261   4.273436
    22  H    2.224645   1.088640   2.124375   4.441071   4.738856
    23  H    3.552041   2.136421   1.087237   2.585463   4.286892
    24  H    5.195296   4.334654   2.985967   1.182415   3.785887
    25  H    5.195296   4.334654   2.985967   1.182415   3.785887
                   11         12         13         14         15
    11  C    0.000000
    12  C    1.249539   0.000000
    13  C    2.527990   2.824084   0.000000
    14  C    2.913418   2.481479   1.567945   0.000000
    15  H    2.409289   3.500570   4.389936   5.226113   0.000000
    16  H    3.829647   4.277760   6.320193   6.644439   2.590059
    17  H    3.906733   3.534632   6.276051   5.966360   4.241905
    18  H    3.139797   2.049052   4.744918   3.923908   4.848679
    19  H    3.411583   2.289361   3.450417   2.045673   5.774358
    20  H    5.041026   4.286728   3.638306   2.244938   7.418982
    21  H    6.097897   5.777923   3.841295   3.298581   8.212266
    22  H    5.526761   5.729794   3.004302   3.571484   7.123557
    23  H    3.905781   4.565310   1.904199   3.352211   4.976920
    24  H    1.875159   2.972397   2.498994   3.625953   2.336959
    25  H    1.875159   2.972397   2.498994   3.625953   2.336959
                   16         17         18         19         20
    16  H    0.000000
    17  H    2.572709   0.000000
    18  H    4.486529   2.550373   0.000000
    19  H    6.382099   4.942631   2.469286   0.000000
    20  H    8.563587   7.386222   4.943969   2.474852   0.000000
    21  H    9.904067   9.218746   6.976353   4.603872   2.402204
    22  H    9.273700   9.244559   7.459106   5.525289   4.156617
    23  H    7.338755   7.811357   6.569980   5.333910   5.052586
    24  H    4.589552   5.387268   4.881560   4.793144   5.828953
    25  H    4.589552   5.387268   4.881560   4.793144   5.828953
                   21         22         23         24         25
    21  H    0.000000
    22  H    2.442373   0.000000
    23  H    4.327903   2.364500   0.000000
    24  H    6.240733   5.025577   2.968608   0.000000
    25  H    6.240733   5.025577   2.968608   1.719170   0.000000
 Stoichiometry    C14H11(1+)
 Framework group  CS[SG(C14H9),X(H2)]
 Deg. of freedom    46
 Full point group                 CS      NOp   2
 Largest Abelian subgroup         CS      NOp   2
 Largest concise Abelian subgroup CS      NOp   2
                         Standard orientation:                         
 ---------------------------------------------------------------------
 Center     Atomic      Atomic             Coordinates (Angstroms)
 Number     Number       Type             X           Y           Z
 ---------------------------------------------------------------------
      1          6           0        2.610802    1.673679    0.000000
      2          6           0        2.668347    3.036957    0.000000
      3          6           0        1.467290    3.515038    0.000000
      4          6           0       -0.007339    2.475794    0.000000
      5          6           0       -2.756240   -1.622951    0.000000
      6          6           0       -2.607107   -2.636597    0.000000
      7          6           0       -1.237631   -3.254453    0.000000
      8          6           0        0.011422   -2.581233    0.000000
      9          6           0        1.300151   -0.656057    0.000000
     10          6           0       -1.427796    0.390810    0.000000
     11          6           0        1.108885    0.689996    0.000000
     12          6           0        0.000000    1.265950    0.000000
     13          6           0       -0.048041   -1.557726    0.000000
     14          6           0       -1.408014   -0.777390    0.000000
     15          1           0        3.493068    1.036901    0.000000
     16          1           0        3.567907    3.625879    0.000000
     17          1           0        1.185109    4.595986    0.000000
     18          1           0       -0.889103    3.112056    0.000000
     19          1           0       -2.281179    1.072572    0.000000
     20          1           0       -3.642451   -0.994268    0.000000
     21          1           0       -3.425970   -3.386698    0.000000
     22          1           0       -1.177944   -4.341455    0.000000
     23          1           0        0.898329   -3.210105    0.000000
     24          1           0        2.111932   -0.640880    0.859585
     25          1           0        2.111932   -0.640880   -0.859585
 ---------------------------------------------------------------------
 Rotational constants (GHZ):           2.1755457           0.4383337           0.3656136
 Standard basis: 6-311++G(d,p) (5D, 7F)
 There are   299 symmetry adapted cartesian basis functions of A'  symmetry.
 There are   100 symmetry adapted cartesian basis functions of A"  symmetry.
 There are   285 symmetry adapted basis functions of A'  symmetry.
 There are   100 symmetry adapted basis functions of A"  symmetry.
   385 basis functions,   603 primitive gaussians,   399 cartesian basis functions
    47 alpha electrons       47 beta electrons
       nuclear repulsion energy       787.6831244570 Hartrees.
 NAtoms=   25 NActive=   25 NUniq=   24 SFac= 1.09D+00 NAtFMM=   60 NAOKFM=F Big=F
 Integral buffers will be    131072 words long.
 Regular integral format.
 Two-electron integral symmetry is turned on.
 Nuclear repulsion after empirical dispersion term =      787.6821767775 Hartrees.
 One-electron integrals computed using PRISM.
 NBasis=   385 RedAO= T EigKep=  1.43D-06  NBF=   285   100
 NBsUse=   379 1.00D-06 EigRej=  6.36D-07 NBFU=   279   100
 ExpMin= 3.60D-02 ExpMax= 4.56D+03 ExpMxC= 6.82D+02 IAcc=3 IRadAn=         5 AccDes= 0.00D+00
 Harris functional with IExCor= 1009 and IRadAn=       5 diagonalized for initial guess.
 HarFok:  IExCor= 1009 AccDes= 0.00D+00 IRadAn=         5 IDoV= 1 UseB2=F ITyADJ=14
 ICtDFT=  3500011 ScaDFX=  1.000000  1.000000  1.000000  1.000000
 FoFCou: FMM=F IPFlag=           0 FMFlag=      100000 FMFlg1=           0
         NFxFlg=           0 DoJE=T BraDBF=F KetDBF=T FulRan=T
         wScrn=  0.000000 ICntrl=       500 IOpCl=  0 I1Cent=   200000004 NGrid=           0
         NMat0=    1 NMatS0=      1 NMatT0=    0 NMatD0=    1 NMtDS0=    0 NMtDT0=    0
 Petite list used in FoFCou.
 Initial guess orbital symmetries:
       Occupied  (A') (A') (A') (A') (A') (A') (A') (A') (A') (A')
                 (A') (A') (A') (A') (A') (A') (A') (A') (A') (A')
                 (A') (A') (A') (A') (A') (A') (A') (A') (A') (A')
                 (A') (A") (A') (A") (A') (A') (A") (A') (A') (A')
                 (A") (A') (A") (A') (A") (A') (A")
       Virtual   (A") (A") (A") (A') (A") (A") (A') (A') (A') (A')
                 (A') (A') (A") (A') (A') (A") (A') (A') (A") (A')
                 (A') (A') (A") (A') (A') (A") (A') (A") (A') (A")
                 (A') (A') (A') (A') (A") (A') (A') (A') (A') (A")
                 (A") (A') (A') (A") (A') (A') (A') (A') (A') (A')
                 (A") (A") (A') (A") (A') (A') (A") (A') (A") (A')
                 (A') (A') (A') (A') (A') (A") (A') (A') (A") (A')
                 (A') (A') (A') (A') (A') (A') (A') (A') (A') (A')
                 (A') (A') (A') (A') (A') (A') (A') (A') (A') (A')
                 (A') (A') (A") (A') (A') (A") (A') (A") (A') (A')
                 (A') (A") (A') (A") (A') (A') (A") (A") (A') (A")
                 (A') (A") (A") (A') (A") (A') (A') (A') (A") (A')
                 (A") (A') (A') (A") (A') (A") (A') (A') (A') (A')
                 (A') (A') (A') (A') (A') (A') (A') (A') (A') (A')
                 (A") (A') (A') (A') (A") (A') (A') (A') (A') (A')
                 (A") (A') (A") (A') (A') (A") (A') (A") (A') (A")
                 (A') (A") (A") (A') (A") (A') (A') (A") (A') (A')
                 (A") (A') (A') (A') (A') (A') (A') (A") (A") (A')
                 (A") (A') (A') (A") (A') (A") (A') (A") (A') (A')
                 (A") (A') (A") (A') (A') (A") (A') (A') (A") (A")
                 (A') (A') (A") (A') (A") (A') (A") (A') (A') (A')
                 (A") (A') (A') (A') (A") (A') (A') (A') (A") (A")
                 (A') (A') (A") (A') (A") (A') (A') (A') (A") (A')
                 (A") (A') (A") (A') (A') (A") (A') (A") (A') (A')
                 (A") (A') (A') (A') (A') (A") (A') (A') (A") (A')
                 (A') (A') (A') (A") (A') (A") (A') (A") (A') (A")
                 (A') (A") (A') (A') (A') (A') (A') (A") (A") (A')
                 (A") (A') (A') (A') (A") (A') (A') (A") (A') (A')
                 (A') (A") (A") (A') (A') (A") (A") (A') (A') (A')
                 (A') (A') (A') (A') (A') (A') (A') (A') (A') (A")
                 (A') (A') (A') (A') (A') (A') (A') (A') (A') (A')
                 (A') (A') (A') (A') (A') (A') (A') (A') (A') (A')
                 (A') (A') (A') (A') (A') (A') (A') (A') (A') (A')
                 (A') (A')
 The electronic state of the initial guess is 1-A'.
 Requested convergence on RMS density matrix=1.00D-08 within 128 cycles.
 Requested convergence on MAX density matrix=1.00D-06.
 Requested convergence on             energy=1.00D-06.
 No special actions if energy rises.
 SCF Done:  E(RM062X) =  -538.925071799     A.U. after   18 cycles
            NFock= 18  Conv=0.63D-08     -V/T= 1.9963
 DoSCS=F DFT=T ScalE2(SS,OS)=  1.000000  1.000000
 ExpMin= 3.60D-02 ExpMax= 4.56D+03 ExpMxC= 6.82D+02 IAcc=3 IRadAn=         5 AccDes= 0.00D+00
 HarFok:  IExCor=  205 AccDes= 0.00D+00 IRadAn=         5 IDoV=-2 UseB2=F ITyADJ=14
 ICtDFT= 12500011 ScaDFX=  1.000000  1.000000  1.000000  1.000000
 Range of M.O.s used for correlation:    15   379
 NBasis=   385 NAE=    47 NBE=    47 NFC=    14 NFV=     0
 NROrb=    365 NOA=    33 NOB=    33 NVA=   332 NVB=   332

 **** Warning!!: The largest alpha MO coefficient is  0.19749389D+03


 **** Warning!!: The smallest alpha delta epsilon is  0.77514622D-01

 Orbital symmetries:
       Occupied  (A') (A') (A') (A') (A') (A') (A') (A') (A') (A')
                 (A') (A') (A') (A') (A') (A') (A') (A') (A') (A')
                 (A') (A') (A') (A') (A') (A') (A') (A') (A') (A')
                 (A') (A") (A') (A') (A") (A') (A') (A") (A') (A')
                 (A") (A') (A") (A') (A") (A') (A")
       Virtual   (A") (A") (A') (A') (A") (A') (A") (A') (A') (A')
                 (A") (A') (A") (A') (A") (A') (A') (A") (A') (A')
                 (A") (A') (A') (A") (A') (A') (A') (A') (A') (A")
                 (A') (A") (A') (A") (A') (A') (A') (A") (A') (A")
                 (A') (A") (A') (A') (A') (A') (A") (A') (A") (A')
                 (A") (A') (A') (A') (A') (A") (A') (A") (A') (A')
                 (A') (A') (A') (A") (A') (A') (A") (A') (A') (A')
                 (A') (A') (A') (A') (A') (A') (A') (A') (A') (A')
                 (A') (A') (A') (A') (A') (A') (A') (A') (A') (A')
                 (A") (A") (A') (A') (A') (A') (A') (A') (A") (A')
                 (A") (A') (A") (A') (A') (A") (A") (A') (A") (A')
                 (A') (A") (A') (A") (A') (A") (A') (A") (A') (A")
                 (A') (A') (A') (A") (A") (A') (A') (A') (A') (A')
                 (A') (A') (A') (A') (A') (A') (A') (A') (A') (A')
                 (A') (A') (A') (A') (A") (A') (A') (A') (A") (A')
                 (A') (A') (A") (A') (A") (A') (A") (A') (A") (A')
                 (A") (A') (A") (A') (A") (A") (A') (A") (A') (A')
                 (A") (A') (A') (A') (A') (A') (A') (A") (A") (A')
                 (A') (A") (A') (A") (A') (A") (A") (A') (A') (A')
                 (A") (A") (A') (A") (A') (A') (A') (A") (A') (A')
                 (A") (A') (A") (A') (A") (A') (A") (A') (A') (A")
                 (A') (A') (A') (A") (A') (A') (A') (A') (A") (A')
                 (A') (A") (A") (A') (A") (A') (A') (A") (A') (A')
                 (A") (A') (A') (A") (A') (A") (A') (A") (A') (A')
                 (A") (A') (A') (A') (A") (A') (A') (A') (A") (A')
                 (A') (A') (A') (A') (A') (A") (A') (A') (A") (A')
                 (A') (A") (A') (A') (A') (A') (A") (A') (A') (A")
                 (A') (A') (A") (A") (A") (A') (A") (A') (A') (A")
                 (A') (A") (A") (A') (A') (A") (A') (A") (A') (A')
                 (A') (A') (A') (A') (A') (A') (A') (A') (A") (A')
                 (A') (A') (A') (A') (A') (A') (A') (A') (A') (A')
                 (A') (A') (A') (A') (A') (A') (A') (A') (A') (A')
                 (A') (A') (A') (A') (A') (A') (A') (A') (A') (A')
                 (A') (A')
     4 initial guesses have been made.
 Convergence on wavefunction:    0.001000000000000
 Iteration     1 Dimension     4 NMult     0 NNew      4
 CISAX will form     4 AO SS matrices at one time.
 Iteration     2 Dimension     6 NMult     4 NNew      2
 Iteration     3 Dimension     8 NMult     6 NNew      2
 Iteration     4 Dimension    10 NMult     8 NNew      2
 Iteration     5 Dimension    12 NMult    10 NNew      2
 Iteration     6 Dimension    14 NMult    12 NNew      2
 ***********************************************************************
 Excited states from <AA,BB:AA,BB> singles matrix:
 ***********************************************************************
 
 Ground to excited state transition densities written to RWF  633
 Ground to excited state transition electric dipole moments (Au):
       state          X           Y           Z        Dip. S.      Osc.
         1         1.1276      1.6385      0.0000      3.9563      0.0911
 Ground to excited state transition velocity dipole moments (Au):
       state          X           Y           Z        Dip. S.      Osc.
         1        -0.0399     -0.0510     -0.0000      0.0042      0.0810
 Ground to excited state transition magnetic dipole moments (Au):
       state          X           Y           Z
         1        -0.0000     -0.0000     -0.4848
 Ground to excited state transition velocity quadrupole moments (Au):
       state          XX          YY          ZZ          XY          XZ          YZ
         1        -0.0275      0.0694     -0.0037      0.0246     -0.0000      0.0000
 <0|del|b> * <b|rxdel|0> + <0|del|b> * <b|delr+rdel|0>
 Rotatory Strengths (R) in cgs (10**-40 erg-esu-cm/Gauss)
       state          XX          YY          ZZ    R(velocity)    E-M Angle
         1         0.0000      0.0000      0.0000      0.0000       90.00
 1/2[<0|r|b>*<b|rxdel|0> + (<0|rxdel|b>*<b|r|0>)*]
 Rotatory Strengths (R) in cgs (10**-40 erg-esu-cm/Gauss)
       state          XX          YY          ZZ     R(length)
         1         0.0000      0.0000      0.0000      0.0000
  1/2[<0|del|b>*<b|r|0> + (<0|r|b>*<b|del|0>)*] (Au)
       state          X           Y           Z        Dip. S.   Osc.(frdel)
         1        -0.0450     -0.0835     -0.0000      0.1286      0.0857

 Excitation energies and oscillator strengths:
 
 Excited State   1:      Singlet-A'     0.9400 eV 1319.00 nm  f=0.0911  <S**2>=0.000
      47 -> 48         0.73429
      47 <- 48        -0.21985
 This state for optimization and/or second-order correction.
 Total Energy, E(TD-HF/TD-DFT) =  -538.890527887    
 Copying the excited state density for this state as the 1-particle RhoCI density.
 SavETr:  write IOETrn=   770 NScale= 10 NData=  16 NLR=1 NState=    1 LETran=      28.

 **********************************************************************

            Population analysis using the SCF Density.

 **********************************************************************

 Orbital symmetries:
       Occupied  (A') (A') (A') (A') (A') (A') (A') (A') (A') (A')
                 (A') (A') (A') (A') (A') (A') (A') (A') (A') (A')
                 (A') (A') (A') (A') (A') (A') (A') (A') (A') (A')
                 (A') (A") (A') (A') (A") (A') (A') (A") (A') (A')
                 (A") (A') (A") (A') (A") (A') (A")
       Virtual   (A") (A") (A') (A') (A") (A') (A") (A') (A') (A')
                 (A") (A') (A") (A') (A") (A') (A') (A") (A') (A')
                 (A") (A') (A') (A") (A') (A') (A') (A') (A') (A")
                 (A') (A") (A') (A") (A') (A') (A') (A") (A') (A")
                 (A') (A") (A') (A') (A') (A') (A") (A') (A") (A')
                 (A") (A') (A') (A') (A') (A") (A') (A") (A') (A')
                 (A') (A') (A') (A") (A') (A') (A") (A') (A') (A')
                 (A') (A') (A') (A') (A') (A') (A') (A') (A') (A')
                 (A') (A') (A') (A') (A') (A') (A') (A') (A') (A')
                 (A") (A") (A') (A') (A') (A') (A') (A') (A") (A')
                 (A") (A') (A") (A') (A') (A") (A") (A') (A") (A')
                 (A') (A") (A') (A") (A') (A") (A') (A") (A') (A")
                 (A') (A') (A') (A") (A") (A') (A') (A') (A') (A')
                 (A') (A') (A') (A') (A') (A') (A') (A') (A') (A')
                 (A') (A') (A') (A') (A") (A') (A') (A') (A") (A')
                 (A') (A') (A") (A') (A") (A') (A") (A') (A") (A')
                 (A") (A') (A") (A') (A") (A") (A') (A") (A') (A')
                 (A") (A') (A') (A') (A') (A') (A') (A") (A") (A')
                 (A') (A") (A') (A") (A') (A") (A") (A') (A') (A')
                 (A") (A") (A') (A") (A') (A') (A') (A") (A') (A')
                 (A") (A') (A") (A') (A") (A') (A") (A') (A') (A")
                 (A') (A') (A') (A") (A') (A') (A') (A') (A") (A')
                 (A') (A") (A") (A') (A") (A') (A') (A") (A') (A')
                 (A") (A') (A') (A") (A') (A") (A') (A") (A') (A')
                 (A") (A') (A') (A') (A") (A') (A') (A') (A") (A')
                 (A') (A') (A') (A') (A') (A") (A') (A') (A") (A')
                 (A') (A") (A') (A') (A') (A') (A") (A') (A') (A")
                 (A') (A') (A") (A") (A") (A') (A") (A') (A') (A")
                 (A') (A") (A") (A') (A') (A") (A') (A") (A') (A')
                 (A') (A') (A') (A') (A') (A') (A') (A') (A") (A')
                 (A') (A') (A') (A') (A') (A') (A') (A') (A') (A')
                 (A') (A') (A') (A') (A') (A') (A') (A') (A') (A')
                 (A') (A') (A') (A') (A') (A') (A') (A') (A') (A')
                 (A') (A')
 The electronic state is 1-A'.
 Alpha  occ. eigenvalues --  -10.78740 -10.73386 -10.71778 -10.71121 -10.70923
 Alpha  occ. eigenvalues --  -10.70735 -10.70566 -10.70091 -10.69304 -10.69126
 Alpha  occ. eigenvalues --  -10.68756 -10.68072 -10.67026 -10.66802  -1.21398
 Alpha  occ. eigenvalues --   -1.14238  -1.13330  -1.07125  -1.04200  -1.02260
 Alpha  occ. eigenvalues --   -0.96173  -0.87736  -0.85940  -0.84152  -0.83042
 Alpha  occ. eigenvalues --   -0.77188  -0.76255  -0.74730  -0.74026  -0.70184
 Alpha  occ. eigenvalues --   -0.69345  -0.69291  -0.66951  -0.64495  -0.64298
 Alpha  occ. eigenvalues --   -0.62538  -0.62184  -0.59904  -0.58494  -0.56818
 Alpha  occ. eigenvalues --   -0.55936  -0.54757  -0.52887  -0.50899  -0.48994
 Alpha  occ. eigenvalues --   -0.46440  -0.35227
 Alpha virt. eigenvalues --   -0.27476  -0.16482  -0.11547  -0.10412  -0.10398
 Alpha virt. eigenvalues --   -0.09884  -0.08597  -0.07900  -0.07765  -0.07340
 Alpha virt. eigenvalues --   -0.07114  -0.06281  -0.05964  -0.05546  -0.05331
 Alpha virt. eigenvalues --   -0.05236  -0.04094  -0.03908  -0.03769  -0.03048
 Alpha virt. eigenvalues --   -0.02094  -0.02076  -0.01105  -0.00971  -0.00021
 Alpha virt. eigenvalues --    0.00354   0.00816   0.00945   0.01318   0.01778
 Alpha virt. eigenvalues --    0.01955   0.02252   0.02621   0.03055   0.03180
 Alpha virt. eigenvalues --    0.03564   0.03802   0.04377   0.05223   0.05461
 Alpha virt. eigenvalues --    0.05516   0.05812   0.05850   0.06083   0.06477
 Alpha virt. eigenvalues --    0.07005   0.07417   0.07694   0.07839   0.08348
 Alpha virt. eigenvalues --    0.08426   0.08730   0.08885   0.09694   0.10113
 Alpha virt. eigenvalues --    0.10506   0.10890   0.11330   0.11352   0.11977
 Alpha virt. eigenvalues --    0.12618   0.13006   0.13303   0.13467   0.14041
 Alpha virt. eigenvalues --    0.14561   0.16220   0.16595   0.16988   0.17489
 Alpha virt. eigenvalues --    0.18148   0.18358   0.19678   0.20391   0.20542
 Alpha virt. eigenvalues --    0.21379   0.22254   0.22779   0.23444   0.24167
 Alpha virt. eigenvalues --    0.25380   0.25662   0.26328   0.26972   0.28397
 Alpha virt. eigenvalues --    0.30177   0.30681   0.31783   0.32835   0.35563
 Alpha virt. eigenvalues --    0.36217   0.38354   0.38390   0.38744   0.39627
 Alpha virt. eigenvalues --    0.41194   0.41682   0.42343   0.42776   0.44282
 Alpha virt. eigenvalues --    0.44306   0.45213   0.46112   0.46317   0.47645
 Alpha virt. eigenvalues --    0.48475   0.49137   0.49476   0.51032   0.51139
 Alpha virt. eigenvalues --    0.51678   0.52086   0.52281   0.53679   0.54341
 Alpha virt. eigenvalues --    0.55566   0.57232   0.58700   0.59103   0.59396
 Alpha virt. eigenvalues --    0.60805   0.61692   0.62280   0.62424   0.63640
 Alpha virt. eigenvalues --    0.64960   0.65714   0.66337   0.67354   0.68903
 Alpha virt. eigenvalues --    0.70671   0.71968   0.73214   0.73649   0.74410
 Alpha virt. eigenvalues --    0.75216   0.75891   0.76991   0.77451   0.78106
 Alpha virt. eigenvalues --    0.78648   0.80715   0.81296   0.81529   0.82681
 Alpha virt. eigenvalues --    0.83068   0.84120   0.84598   0.85202   0.85748
 Alpha virt. eigenvalues --    0.88853   0.90002   0.90610   0.90860   0.94254
 Alpha virt. eigenvalues --    0.94457   0.96627   0.99095   1.00367   1.00391
 Alpha virt. eigenvalues --    1.03759   1.04070   1.05297   1.05448   1.07957
 Alpha virt. eigenvalues --    1.08367   1.08526   1.10045   1.11874   1.15550
 Alpha virt. eigenvalues --    1.16244   1.17435   1.17821   1.17969   1.24670
 Alpha virt. eigenvalues --    1.27370   1.30359   1.33222   1.34625   1.35988
 Alpha virt. eigenvalues --    1.37924   1.38121   1.39945   1.41784   1.43386
 Alpha virt. eigenvalues --    1.45424   1.47327   1.47533   1.48072   1.50055
 Alpha virt. eigenvalues --    1.52072   1.53741   1.54717   1.56829   1.56935
 Alpha virt. eigenvalues --    1.57618   1.57987   1.60494   1.60547   1.61586
 Alpha virt. eigenvalues --    1.62723   1.64725   1.65233   1.68098   1.69578
 Alpha virt. eigenvalues --    1.70074   1.71208   1.71585   1.75044   1.75132
 Alpha virt. eigenvalues --    1.75689   1.76222   1.77526   1.79270   1.79431
 Alpha virt. eigenvalues --    1.83680   1.84146   1.84724   1.86256   1.88202
 Alpha virt. eigenvalues --    1.89595   1.89859   1.91028   1.93614   1.96093
 Alpha virt. eigenvalues --    1.96100   1.98484   2.01867   2.02043   2.04072
 Alpha virt. eigenvalues --    2.05572   2.06602   2.10505   2.12353   2.15954
 Alpha virt. eigenvalues --    2.18510   2.18634   2.20498   2.21672   2.24704
 Alpha virt. eigenvalues --    2.26098   2.26799   2.30604   2.33097   2.34062
 Alpha virt. eigenvalues --    2.35429   2.37400   2.40231   2.42440   2.43578
 Alpha virt. eigenvalues --    2.43987   2.45261   2.50298   2.52778   2.56036
 Alpha virt. eigenvalues --    2.57750   2.58021   2.59969   2.60569   2.61356
 Alpha virt. eigenvalues --    2.63058   2.63640   2.64067   2.64509   2.65226
 Alpha virt. eigenvalues --    2.66078   2.66431   2.67280   2.68228   2.69892
 Alpha virt. eigenvalues --    2.70243   2.72893   2.73956   2.74749   2.77092
 Alpha virt. eigenvalues --    2.78241   2.78980   2.82194   2.83612   2.85102
 Alpha virt. eigenvalues --    2.90195   2.90721   2.93323   2.95073   2.97136
 Alpha virt. eigenvalues --    2.98850   3.01433   3.01754   3.05970   3.09435
 Alpha virt. eigenvalues --    3.10937   3.11807   3.16869   3.27072   3.30306
 Alpha virt. eigenvalues --    3.33359   3.36728   3.44802   3.46156   3.51010
 Alpha virt. eigenvalues --    3.54526   3.62041   3.64778   3.67970   3.71671
 Alpha virt. eigenvalues --    3.72353   3.76370   3.77196   3.85488   3.89186
 Alpha virt. eigenvalues --    3.94597   4.01831   4.03572   4.17892   4.19971
 Alpha virt. eigenvalues --    4.24517   4.40791   4.47809  23.40827  23.47977
 Alpha virt. eigenvalues --   23.54541  23.56398  23.63387  23.81009  23.97001
 Alpha virt. eigenvalues --   23.97468  24.35742  24.38801  24.82015  24.94176
 Alpha virt. eigenvalues --   25.59778  25.62188
          Condensed to atoms (all electrons):
               1          2          3          4          5          6
     1  C   12.176953  -3.677768   1.202881   2.384184  -0.096238  -0.106381
     2  C   -3.677768  10.617940  -2.176118  -1.681682   0.166044   0.000541
     3  C    1.202881  -2.176118   7.838787   1.265861  -0.197205   0.013818
     4  C    2.384184  -1.681682   1.265861   8.158360  -0.059890  -0.014768
     5  C   -0.096238   0.166044  -0.197205  -0.059890  10.639454   0.589984
     6  C   -0.106381   0.000541   0.013818  -0.014768   0.589984   6.804224
     7  C    0.022581  -0.034644  -0.020352  -0.163430  -0.937936   0.539956
     8  C    0.303651  -0.128574  -0.025846   0.018481   0.050772  -0.454434
     9  C   -1.344764  -0.547056   0.216526  -0.967320   0.861367   0.066103
    10  C   -0.548230   0.839393  -1.170673  -0.813981  -1.650287   0.317816
    11  C   -1.921876   0.176536   0.958646  -0.704627  -0.028602  -0.323144
    12  C   -2.582613   2.753346  -1.404512  -0.807472  -2.537883   0.418568
    13  C   -0.149147  -0.679772   0.308223  -1.497815  -0.498581   0.021811
    14  C   -0.086886   0.612618  -0.795042   0.649476  -0.661633  -1.852911
    15  H    0.387618  -0.158591   0.052862   0.028731  -0.006361  -0.000034
    16  H   -0.015421   0.353856  -0.009046  -0.016546   0.000798  -0.000002
    17  H   -0.048704   0.030902   0.338064  -0.026791  -0.002104   0.000181
    18  H    0.082966  -0.001313  -0.097688   0.443442   0.027345  -0.005694
    19  H   -0.048279  -0.008889   0.057745  -0.030831  -0.196466   0.029578
    20  H    0.005302   0.002054  -0.004371   0.007200   0.544270  -0.032971
    21  H   -0.001918  -0.000070   0.000537   0.000407  -0.061348   0.402599
    22  H    0.003073   0.000412  -0.000676  -0.002534   0.037611  -0.042832
    23  H   -0.002003  -0.005306   0.003579   0.004077  -0.011529   0.005707
    24  H   -0.031443   0.014827  -0.010935  -0.023490   0.000236  -0.001090
    25  H   -0.031443   0.014827  -0.010935  -0.023490   0.000236  -0.001090
               7          8          9         10         11         12
     1  C    0.022581   0.303651  -1.344764  -0.548230  -1.921876  -2.582613
     2  C   -0.034644  -0.128574  -0.547056   0.839393   0.176536   2.753346
     3  C   -0.020352  -0.025846   0.216526  -1.170673   0.958646  -1.404512
     4  C   -0.163430   0.018481  -0.967320  -0.813981  -0.704627  -0.807472
     5  C   -0.937936   0.050772   0.861367  -1.650287  -0.028602  -2.537883
     6  C    0.539956  -0.454434   0.066103   0.317816  -0.323144   0.418568
     7  C    9.647277   0.785248  -1.963747  -0.310991  -0.600890  -0.776346
     8  C    0.785248   7.099761  -0.668638  -0.075337  -0.169383  -1.091207
     9  C   -1.963747  -0.668638  10.227736  -0.220152   0.423255   0.463980
    10  C   -0.310991  -0.075337  -0.220152   8.538588  -1.244727   0.715364
    11  C   -0.600890  -0.169383   0.423255  -1.244727  11.480790   0.475545
    12  C   -0.776346  -1.091207   0.463980   0.715364   0.475545  13.058707
    13  C   -0.806451   0.998994   1.471275  -0.245872  -1.141903  -1.131642
    14  C    0.776566  -1.149038  -2.526255   1.495667  -1.314194  -2.053853
    15  H    0.002871   0.013600   0.104279  -0.020045  -0.077033  -0.061966
    16  H   -0.000138  -0.000180  -0.002939   0.003976   0.025087   0.007053
    17  H   -0.000387  -0.000808  -0.001016  -0.003187   0.015210   0.044929
    18  H    0.001482  -0.000684  -0.030141   0.106223  -0.027871  -0.192822
    19  H   -0.006749   0.010832   0.038036   0.371505   0.060672   0.202111
    20  H    0.013997   0.009074  -0.000454  -0.021099   0.007755  -0.110086
    21  H   -0.031475   0.001005   0.000696   0.010963  -0.007799   0.011011
    22  H    0.380362  -0.025566  -0.007522  -0.027754   0.008595  -0.027499
    23  H   -0.067112   0.416028   0.019643   0.015562  -0.042769   0.011905
    24  H    0.019877   0.050425   0.377364   0.015383  -0.079570  -0.020230
    25  H    0.019877   0.050425   0.377364   0.015383  -0.079570  -0.020230
              13         14         15         16         17         18
     1  C   -0.149147  -0.086886   0.387618  -0.015421  -0.048704   0.082966
     2  C   -0.679772   0.612618  -0.158591   0.353856   0.030902  -0.001313
     3  C    0.308223  -0.795042   0.052862  -0.009046   0.338064  -0.097688
     4  C   -1.497815   0.649476   0.028731  -0.016546  -0.026791   0.443442
     5  C   -0.498581  -0.661633  -0.006361   0.000798  -0.002104   0.027345
     6  C    0.021811  -1.852911  -0.000034  -0.000002   0.000181  -0.005694
     7  C   -0.806451   0.776566   0.002871  -0.000138  -0.000387   0.001482
     8  C    0.998994  -1.149038   0.013600  -0.000180  -0.000808  -0.000684
     9  C    1.471275  -2.526255   0.104279  -0.002939  -0.001016  -0.030141
    10  C   -0.245872   1.495667  -0.020045   0.003976  -0.003187   0.106223
    11  C   -1.141903  -1.314194  -0.077033   0.025087   0.015210  -0.027871
    12  C   -1.131642  -2.053853  -0.061966   0.007053   0.044929  -0.192822
    13  C   15.268268  -5.419318   0.048015  -0.006915   0.000598  -0.044228
    14  C   -5.419318  18.159020  -0.018851   0.004205  -0.008410   0.072746
    15  H    0.048015  -0.018851   0.478810  -0.004226   0.000664  -0.001401
    16  H   -0.006915   0.004205  -0.004226   0.419716  -0.001018   0.001473
    17  H    0.000598  -0.008410   0.000664  -0.001018   0.418636  -0.003847
    18  H   -0.044228   0.072746  -0.001401   0.001473  -0.003847   0.481013
    19  H    0.164176  -0.282634   0.000096  -0.000228   0.000553  -0.016987
    20  H    0.000250  -0.069274  -0.000077   0.000007  -0.000086   0.001961
    21  H    0.013023   0.000662  -0.000027  -0.000001   0.000007  -0.000339
    22  H    0.042190  -0.006142  -0.000113   0.000004  -0.000009   0.000076
    23  H   -0.052657   0.040150   0.000694  -0.000156   0.000068  -0.000428
    24  H    0.049711  -0.030306  -0.000069   0.000843  -0.000182   0.000549
    25  H    0.049711  -0.030306  -0.000069   0.000843  -0.000182   0.000549
              19         20         21         22         23         24
     1  C   -0.048279   0.005302  -0.001918   0.003073  -0.002003  -0.031443
     2  C   -0.008889   0.002054  -0.000070   0.000412  -0.005306   0.014827
     3  C    0.057745  -0.004371   0.000537  -0.000676   0.003579  -0.010935
     4  C   -0.030831   0.007200   0.000407  -0.002534   0.004077  -0.023490
     5  C   -0.196466   0.544270  -0.061348   0.037611  -0.011529   0.000236
     6  C    0.029578  -0.032971   0.402599  -0.042832   0.005707  -0.001090
     7  C   -0.006749   0.013997  -0.031475   0.380362  -0.067112   0.019877
     8  C    0.010832   0.009074   0.001005  -0.025566   0.416028   0.050425
     9  C    0.038036  -0.000454   0.000696  -0.007522   0.019643   0.377364
    10  C    0.371505  -0.021099   0.010963  -0.027754   0.015562   0.015383
    11  C    0.060672   0.007755  -0.007799   0.008595  -0.042769  -0.079570
    12  C    0.202111  -0.110086   0.011011  -0.027499   0.011905  -0.020230
    13  C    0.164176   0.000250   0.013023   0.042190  -0.052657   0.049711
    14  C   -0.282634  -0.069274   0.000662  -0.006142   0.040150  -0.030306
    15  H    0.000096  -0.000077  -0.000027  -0.000113   0.000694  -0.000069
    16  H   -0.000228   0.000007  -0.000001   0.000004  -0.000156   0.000843
    17  H    0.000553  -0.000086   0.000007  -0.000009   0.000068  -0.000182
    18  H   -0.016987   0.001961  -0.000339   0.000076  -0.000428   0.000549
    19  H    0.513169  -0.009294   0.003773  -0.000697   0.001560   0.000575
    20  H   -0.009294   0.432563  -0.014366   0.003067  -0.000522   0.000067
    21  H    0.003773  -0.014366   0.417989  -0.004648   0.001440  -0.000031
    22  H   -0.000697   0.003067  -0.004648   0.393869  -0.002340   0.000591
    23  H    0.001560  -0.000522   0.001440  -0.002340   0.427180  -0.001111
    24  H    0.000575   0.000067  -0.000031   0.000591  -0.001111   0.457602
    25  H    0.000575   0.000067  -0.000031   0.000591  -0.001111  -0.059523
              25
     1  C   -0.031443
     2  C    0.014827
     3  C   -0.010935
     4  C   -0.023490
     5  C    0.000236
     6  C   -0.001090
     7  C    0.019877
     8  C    0.050425
     9  C    0.377364
    10  C    0.015383
    11  C   -0.079570
    12  C   -0.020230
    13  C    0.049711
    14  C   -0.030306
    15  H   -0.000069
    16  H    0.000843
    17  H   -0.000182
    18  H    0.000549
    19  H    0.000575
    20  H    0.000067
    21  H   -0.000031
    22  H    0.000591
    23  H   -0.001111
    24  H   -0.059523
    25  H    0.457602
 Mulliken charges:
               1
     1  C    0.123905
     2  C   -0.483516
     3  C   -0.334129
     4  C   -0.125551
     5  C    0.027948
     6  C   -0.375535
     7  C   -0.489445
     8  C   -0.018603
     9  C   -0.367619
    10  C   -0.093486
    11  C    0.131867
    12  C    0.655844
    13  C   -0.761944
    14  C    0.493942
    15  H    0.230623
    16  H    0.238955
    17  H    0.246919
    18  H    0.203619
    19  H    0.146099
    20  H    0.234966
    21  H    0.257940
    22  H    0.277894
    23  H    0.239450
    24  H    0.269928
    25  H    0.269928
 Sum of Mulliken charges =   1.00000
 Mulliken charges with hydrogens summed into heavy atoms:
               1
     1  C    0.354528
     2  C   -0.244561
     3  C   -0.087210
     4  C    0.078068
     5  C    0.262914
     6  C   -0.117595
     7  C   -0.211551
     8  C    0.220847
     9  C    0.172238
    10  C    0.052612
    11  C    0.131867
    12  C    0.655844
    13  C   -0.761944
    14  C    0.493942
 Electronic spatial extent (au):  <R**2>=           2874.3126
 Charge=              1.0000 electrons
 Dipole moment (field-independent basis, Debye):
    X=             -1.5671    Y=             -4.7035    Z=              0.0000  Tot=              4.9577
 Quadrupole moment (field-independent basis, Debye-Ang):
   XX=            -46.0690   YY=            -36.1523   ZZ=            -82.7488
   XY=             15.3004   XZ=              0.0000   YZ=             -0.0000
 Traceless Quadrupole moment (field-independent basis, Debye-Ang):
   XX=              8.9210   YY=             18.8378   ZZ=            -27.7588
   XY=             15.3004   XZ=              0.0000   YZ=             -0.0000
 Octapole moment (field-independent basis, Debye-Ang**2):
  XXX=            -15.4518  YYY=            -45.6682  ZZZ=              0.0000  XYY=             -8.2476
  XXY=             -3.5321  XXZ=              0.0000  XZZ=             -2.7559  YZZ=            -10.5161
  YYZ=              0.0000  XYZ=             -0.0000
 Hexadecapole moment (field-independent basis, Debye-Ang**3):
 XXXX=          -1169.4206 YYYY=          -1667.6894 ZZZZ=            -96.6583 XXXY=           -373.9679
 XXXZ=              0.0000 YYYX=           -322.0835 YYYZ=             -0.0000 ZZZX=             -0.0000
 ZZZY=             -0.0000 XXYY=           -433.0299 XXZZ=           -287.6050 YYZZ=           -442.1021
 XXYZ=             -0.0000 YYXZ=              0.0000 ZZXY=           -207.0749
 N-N= 7.876821767775D+02 E-N=-2.813534146176D+03  KE= 5.409118595074D+02
 Symmetry A'   KE= 5.254878874684D+02
 Symmetry A"   KE= 1.542397203897D+01
 Unable to Open any file for archive entry.
 1\1\GINC-GADI-CPU-CLX-0240\SP\RM062X TD-FC\6-311++G(d,p)\C14H11(1+)\TS
 1578\02-Aug-2022\0\\#n M062X/6-311++G(d,p) TD(NStates=1) EmpiricalDisp
 ersion=GD3 SP\\SP_-14\\1,1\C,0,0.,2.768655,1.404431\C,0,0.,3.973508,0.
 763989\C,0,0.,3.777861,-0.51383\C,0,0.,2.135156,-1.259538\C,0,0.,-2.79
 1156,-1.555538\C,0,0.,-3.589861,-0.91383\C,0,0.,-3.429508,0.579989\C,0
 ,0.,-2.216655,1.316431\C,0,0.,0.096,1.453369\C,0,0.,-0.382,-1.429189\C
 ,0,0.,1.160055,0.607065\C,0,0.,1.095471,-0.640804\C,0,0.,-1.364055,0.7
 47065\C,0,0.,-1.379471,-0.820804\H,0,0.,2.666071,2.487647\H,0,0.,4.936
 753,1.241689\H,0,0.,4.567262,-1.304349\H,0,0.,2.23755,-2.342059\H,0,0.
 ,-0.226,-2.510266\H,0,0.,-2.69755,-2.638059\H,0,0.,-4.651262,-1.240349
 \H,0,0.,-4.336753,1.181689\H,0,0.,-2.310071,2.399647\H,0,-0.859585,0.5
 2,2.145787\H,0,0.859585,0.52,2.145787\\Version=ES64L-G16RevC.01\State=
 1-A'\HF=-538.9250718\RMSD=6.349e-09\PG=CS [SG(C14H9),X(H2)]\\@
 The archive entry for this job was punched.


 TO DETECT ERRORS, THE PROGRAMMER MUST HAVE A CONNIVING MIND,
 ONE THAT DELIGHTS IN UNCOVERING FLAWS WHERE BEAUTY AND
 PERFECTION WERE ONCE THOUGHT TO LIE.

             -- THE PSYCHOLOGY OF COMPUTER PROGRAMMING
                GERALD M. WEINBERG
 Job cpu time:       0 days  0 hours 55 minutes 57.0 seconds.
 Elapsed time:       0 days  0 hours  1 minutes 10.1 seconds.
 File lengths (MBytes):  RWF=    460 Int=      0 D2E=      0 Chk=     15 Scr=      1
 Normal termination of Gaussian 16 at Tue Aug  2 11:46:14 2022.
