 Entering Gaussian System, Link 0=g16
 Initial command:
 /apps/gaussian/g16c01/g16/l1.exe "/jobfs/53803565.gadi-pbs/Gau-1069521.inp" -scrdir="/jobfs/53803565.gadi-pbs/"
 Entering Link 1 = /apps/gaussian/g16c01/g16/l1.exe PID=   1069522.
  
 Copyright (c) 1988-2019, Gaussian, Inc.  All Rights Reserved.
  
 This is part of the Gaussian(R) 16 program.  It is based on
 the Gaussian(R) 09 system (copyright 2009, Gaussian, Inc.),
 the Gaussian(R) 03 system (copyright 2003, Gaussian, Inc.),
 the Gaussian(R) 98 system (copyright 1998, Gaussian, Inc.),
 the Gaussian(R) 94 system (copyright 1995, Gaussian, Inc.),
 the Gaussian 92(TM) system (copyright 1992, Gaussian, Inc.),
 the Gaussian 90(TM) system (copyright 1990, Gaussian, Inc.),
 the Gaussian 88(TM) system (copyright 1988, Gaussian, Inc.),
 the Gaussian 86(TM) system (copyright 1986, Carnegie Mellon
 University), and the Gaussian 82(TM) system (copyright 1983,
 Carnegie Mellon University). Gaussian is a federally registered
 trademark of Gaussian, Inc.
  
 This software contains proprietary and confidential information,
 including trade secrets, belonging to Gaussian, Inc.
  
 This software is provided under written license and may be
 used, copied, transmitted, or stored only in accord with that
 written license.
  
 The following legend is applicable only to US Government
 contracts under FAR:
  
                    RESTRICTED RIGHTS LEGEND
  
 Use, reproduction and disclosure by the US Government is
 subject to restrictions as set forth in subparagraphs (a)
 and (c) of the Commercial Computer Software - Restricted
 Rights clause in FAR 52.227-19.
  
 Gaussian, Inc.
 340 Quinnipiac St., Bldg. 40, Wallingford CT 06492
  
  
 ---------------------------------------------------------------
 Warning -- This program may not be used in any manner that
 competes with the business of Gaussian, Inc. or will provide
 assistance to any competitor of Gaussian, Inc.  The licensee
 of this program is prohibited from giving any competitor of
 Gaussian, Inc. access to this program.  By using this program,
 the user acknowledges that Gaussian, Inc. is engaged in the
 business of creating and licensing software in the field of
 computational chemistry and represents and warrants to the
 licensee that it is not a competitor of Gaussian, Inc. and that
 it will not use this program in any manner prohibited above.
 ---------------------------------------------------------------
  

 Cite this work as:
 Gaussian 16, Revision C.01,
 M. J. Frisch, G. W. Trucks, H. B. Schlegel, G. E. Scuseria, 
 M. A. Robb, J. R. Cheeseman, G. Scalmani, V. Barone, 
 G. A. Petersson, H. Nakatsuji, X. Li, M. Caricato, A. V. Marenich, 
 J. Bloino, B. G. Janesko, R. Gomperts, B. Mennucci, H. P. Hratchian, 
 J. V. Ortiz, A. F. Izmaylov, J. L. Sonnenberg, D. Williams-Young, 
 F. Ding, F. Lipparini, F. Egidi, J. Goings, B. Peng, A. Petrone, 
 T. Henderson, D. Ranasinghe, V. G. Zakrzewski, J. Gao, N. Rega, 
 G. Zheng, W. Liang, M. Hada, M. Ehara, K. Toyota, R. Fukuda, 
 J. Hasegawa, M. Ishida, T. Nakajima, Y. Honda, O. Kitao, H. Nakai, 
 T. Vreven, K. Throssell, J. A. Montgomery, Jr., J. E. Peralta, 
 F. Ogliaro, M. J. Bearpark, J. J. Heyd, E. N. Brothers, K. N. Kudin, 
 V. N. Staroverov, T. A. Keith, R. Kobayashi, J. Normand, 
 K. Raghavachari, A. P. Rendell, J. C. Burant, S. S. Iyengar, 
 J. Tomasi, M. Cossi, J. M. Millam, M. Klene, C. Adamo, R. Cammi, 
 J. W. Ochterski, R. L. Martin, K. Morokuma, O. Farkas, 
 J. B. Foresman, and D. J. Fox, Gaussian, Inc., Wallingford CT, 2019.
 
 ******************************************
 Gaussian 16:  ES64L-G16RevC.01  3-Jul-2019
                 2-Aug-2022 
 ******************************************
 %NProcShared=48
 Will use up to   48 processors via shared memory.
 %mem = 190GB
 ---------------------------------------------------------------
 #n M062X/6-311++G(d,p) TD(NStates=1) EmpiricalDispersion=GD3 SP
 ---------------------------------------------------------------
 1/38=1,172=1/1;
 2/12=2,17=6,18=5,40=1/2;
 3/5=4,6=6,7=1111,11=9,25=1,30=1,74=-55,124=31/1,2,3,8;
 4//1;
 5/5=2,38=5/2;
 8/6=1,10=2,108=1/1;
 9/41=1,42=1,70=2/14;
 6/7=2,8=2,9=2,10=2/1;
 99/5=1,9=1/99;
 -----
 SP_12
 -----
 Symbolic Z-matrix:
 Charge =  1 Multiplicity = 1
 C                     0.        2.24866   1.31643 
 C                     0.        3.46551   0.59599 
 C                     0.        3.60786  -0.88183 
 C                     0.        2.75116  -1.53954 
 C                     0.       -2.17516  -1.27554 
 C                     0.       -3.75986  -0.54583 
 C                     0.       -3.93751   0.74799 
 C                     0.       -2.73666   1.40443 
 C                     0.       -0.08      1.45337 
 C                     0.        0.324    -1.42919 
 C                     0.        1.34606   0.72507 
 C                     0.        1.36147  -0.8188 
 C                     0.       -1.17806   0.62907 
 C                     0.       -1.11347  -0.6428 
 H                     0.        2.32007   2.39965 
 H                     0.        4.37275   1.19569 
 H                     0.        4.65326  -1.23635 
 H                     0.        2.67955  -2.62206 
 H                     0.        0.176    -2.51027 
 H                     0.       -2.25555  -2.35806 
 H                     0.       -4.56526  -1.30835 
 H                     0.       -4.90075   1.22769 
 H                     0.       -2.65607   2.48765 
 H                    -0.85959  -0.432     2.14579 
 H                     0.85959  -0.432     2.14579 
 
                          Input orientation:                          
 ---------------------------------------------------------------------
 Center     Atomic      Atomic             Coordinates (Angstroms)
 Number     Number       Type             X           Y           Z
 ---------------------------------------------------------------------
      1          6           0        0.000000    2.248655    1.316431
      2          6           0        0.000000    3.465508    0.595989
      3          6           0        0.000000    3.607861   -0.881830
      4          6           0        0.000000    2.751156   -1.539538
      5          6           0        0.000000   -2.175156   -1.275538
      6          6           0        0.000000   -3.759861   -0.545830
      7          6           0        0.000000   -3.937508    0.747989
      8          6           0        0.000000   -2.736655    1.404431
      9          6           0        0.000000   -0.080000    1.453369
     10          6           0        0.000000    0.324000   -1.429189
     11          6           0        0.000000    1.346055    0.725065
     12          6           0        0.000000    1.361471   -0.818804
     13          6           0        0.000000   -1.178055    0.629065
     14          6           0        0.000000   -1.113471   -0.642804
     15          1           0        0.000000    2.320071    2.399647
     16          1           0        0.000000    4.372753    1.195689
     17          1           0        0.000000    4.653262   -1.236349
     18          1           0        0.000000    2.679550   -2.622059
     19          1           0        0.000000    0.176000   -2.510266
     20          1           0        0.000000   -2.255550   -2.358059
     21          1           0        0.000000   -4.565262   -1.308349
     22          1           0        0.000000   -4.900753    1.227689
     23          1           0        0.000000   -2.656071    2.487647
     24          1           0       -0.859585   -0.432000    2.145787
     25          1           0        0.859585   -0.432000    2.145787
 ---------------------------------------------------------------------
                    Distance matrix (angstroms):
                    1          2          3          4          5
     1  C    0.000000
     2  C    1.414131   0.000000
     3  C    2.584529   1.484659   0.000000
     4  C    2.899839   2.251838   1.080057   0.000000
     5  C    5.127222   5.943038   5.796403   4.933381   0.000000
     6  C    6.290491   7.315033   7.375380   6.586410   1.744639
     7  C    6.212225   7.404576   7.719385   7.069017   2.683383
     8  C    4.986087   6.254631   6.743877   6.227602   2.738159
     9  C    2.332678   3.647702   4.365028   4.119822   3.440438
    10  C    3.353017   3.737702   3.329166   2.429663   2.503875
    11  C    1.079074   2.123380   2.774505   2.665096   4.049857
    12  C    2.312212   2.535471   2.247274   1.565465   3.565997
    13  C    3.494970   4.643681   5.018744   4.487932   2.149819
    14  C    3.891336   4.743591   4.727379   3.967301   1.235932
    15  H    1.085568   2.136635   3.525123   3.962703   5.806380
    16  H    2.127527   1.087536   2.213853   3.179787   6.998720
    17  H    3.506967   2.183626   1.103878   1.926118   6.828530
    18  H    3.961991   3.312637   1.972348   1.084887   5.037985
    19  H    4.351955   4.524343   3.798615   2.752043   2.655652
    20  H    5.812894   6.438704   6.046391   5.073173   1.085502
    21  H    7.301982   8.253470   8.184244   7.320070   2.390331
    22  H    7.149959   8.390076   8.766218   8.136907   3.700679
    23  H    5.042627   6.407191   7.112680   6.742130   3.793790
    24  H    2.934728   4.281510   5.121116   4.944996   3.934837
    25  H    2.934728   4.281510   5.121116   4.944996   3.934837
                    6          7          8          9         10
     6  C    0.000000
     7  C    1.305958   0.000000
     8  C    2.202378   1.368563   0.000000
     9  C    4.187860   3.921470   2.657106   0.000000
    10  C    4.178306   4.785452   4.170972   2.910731   0.000000
    11  C    5.261706   5.283613   4.138848   1.601268   2.384409
    12  C    5.128602   5.525760   4.662340   2.690838   1.203709
    13  C    2.836565   2.762014   1.740812   1.373027   2.548054
    14  C    2.648166   3.147934   2.612642   2.337093   1.638513
    15  H    6.755842   6.471883   5.153730   2.579880   4.317903
    16  H    8.316989   8.322312   7.112472   4.460203   4.825182
    17  H    8.441413   8.816968   7.847585   5.444112   4.333555
    18  H    6.765851   7.425812   6.748918   4.921812   2.640370
    19  H    4.398865   5.247587   4.879386   3.971894   1.091161
    20  H    2.355234   3.532211   3.793124   4.388622   2.741692
    21  H    1.109101   2.150024   3.271541   5.267320   4.890755
    22  H    2.108792   1.076082   2.171303   4.826033   5.861488
    23  H    3.228054   2.160669   1.086209   2.775945   4.921629
    24  H    4.365587   3.870570   2.569033   1.158548   3.753782
    25  H    4.365587   3.870570   2.569033   1.158548   3.753782
                   11         12         13         14         15
    11  C    0.000000
    12  C    1.543946   0.000000
    13  C    2.525935   2.923272   0.000000
    14  C    2.814309   2.481192   1.273508   0.000000
    15  H    1.937249   3.358175   3.920695   4.587561   0.000000
    16  H    3.063068   3.622982   5.579653   5.786079   2.379710
    17  H    3.845096   3.318167   6.122420   5.797198   4.320214
    18  H    3.602978   2.233621   5.044891   4.278371   5.034556
    19  H    3.440406   2.065523   3.418898   2.269394   5.357638
    20  H    4.741014   3.930922   3.175517   2.060690   6.600915
    21  H    6.251275   5.946917   3.902146   3.515368   7.820297
    22  H    6.266996   6.588140   3.770521   4.224009   7.315312
    23  H    4.373066   5.203197   2.374628   3.489891   4.976920
    24  H    2.432862   3.569905   1.896294   2.996586   2.894344
    25  H    2.432862   3.569905   1.896294   2.996586   2.894344
                   16         17         18         19         20
    16  H    0.000000
    17  H    2.448161   0.000000
    18  H    4.176378   2.411583   0.000000
    19  H    5.598825   4.654969   2.506045   0.000000
    20  H    7.520873   6.999280   4.942156   2.436309   0.000000
    21  H    9.282151   9.218805   7.362957   4.891234   2.537057
    22  H    9.273561   9.866645   8.501856   6.304421   4.455860
    23  H    7.146574   8.203322   7.387689   5.744542   4.862230
    24  H    4.972648   6.167465   5.757863   4.773613   4.934455
    25  H    4.972648   6.167465   5.757863   4.773613   4.934455
                   21         22         23         24         25
    21  H    0.000000
    22  H    2.558133   0.000000
    23  H    4.249070   2.574120   0.000000
    24  H    5.454704   4.642364   2.408785   0.000000
    25  H    5.454704   4.642364   2.408785   1.719170   0.000000
 Stoichiometry    C14H11(1+)
 Framework group  CS[SG(C14H9),X(H2)]
 Deg. of freedom    46
 Full point group                 CS      NOp   2
 Largest Abelian subgroup         CS      NOp   2
 Largest concise Abelian subgroup CS      NOp   2
                         Standard orientation:                         
 ---------------------------------------------------------------------
 Center     Atomic      Atomic             Coordinates (Angstroms)
 Number     Number       Type             X           Y           Z
 ---------------------------------------------------------------------
      1          6           0       -0.011114   -2.608321    0.000000
      2          6           0        1.222048   -3.300478    0.000000
      3          6           0        2.572329   -2.683263    0.000000
      4          6           0        2.712311   -1.612316    0.000000
      5          6           0        0.015670    2.518831    0.000000
      6          6           0       -1.409811    3.524698    0.000000
      7          6           0       -2.618535    3.030216    0.000000
      8          6           0       -2.584997    1.662064    0.000000
      9          6           0       -1.296320   -0.661624    0.000000
     10          6           0        1.400764    0.432950    0.000000
     11          6           0        0.048459   -1.530893    0.000000
     12          6           0        1.392305   -0.770730    0.000000
     13          6           0       -1.133081    0.701664    0.000000
     14          6           0        0.000000    1.282999    0.000000
     15          1           0       -0.912789   -3.212837    0.000000
     16          1           0        1.157590   -4.386101    0.000000
     17          1           0        3.402907   -3.410372    0.000000
     18          1           0        3.613289   -1.007984    0.000000
     19          1           0        2.262218    1.102672    0.000000
     20          1           0        0.912245    3.130768    0.000000
     21          1           0       -1.153418    4.603757    0.000000
     22          1           0       -3.516287    3.623506    0.000000
     23          1           0       -3.482078    1.049614    0.000000
     24          1           0       -2.071923   -0.703903    0.859585
     25          1           0       -2.071923   -0.703903   -0.859585
 ---------------------------------------------------------------------
 Rotational constants (GHZ):           2.1667891           0.4398405           0.3664118
 Standard basis: 6-311++G(d,p) (5D, 7F)
 There are   299 symmetry adapted cartesian basis functions of A'  symmetry.
 There are   100 symmetry adapted cartesian basis functions of A"  symmetry.
 There are   285 symmetry adapted basis functions of A'  symmetry.
 There are   100 symmetry adapted basis functions of A"  symmetry.
   385 basis functions,   603 primitive gaussians,   399 cartesian basis functions
    47 alpha electrons       47 beta electrons
       nuclear repulsion energy       785.8752225292 Hartrees.
 NAtoms=   25 NActive=   25 NUniq=   24 SFac= 1.09D+00 NAtFMM=   60 NAOKFM=F Big=F
 Integral buffers will be    131072 words long.
 Regular integral format.
 Two-electron integral symmetry is turned on.
 Nuclear repulsion after empirical dispersion term =      785.8742662301 Hartrees.
 One-electron integrals computed using PRISM.
 NBasis=   385 RedAO= T EigKep=  1.33D-06  NBF=   285   100
 NBsUse=   379 1.00D-06 EigRej=  6.81D-07 NBFU=   279   100
 ExpMin= 3.60D-02 ExpMax= 4.56D+03 ExpMxC= 6.82D+02 IAcc=3 IRadAn=         5 AccDes= 0.00D+00
 Harris functional with IExCor= 1009 and IRadAn=       5 diagonalized for initial guess.
 HarFok:  IExCor= 1009 AccDes= 0.00D+00 IRadAn=         5 IDoV= 1 UseB2=F ITyADJ=14
 ICtDFT=  3500011 ScaDFX=  1.000000  1.000000  1.000000  1.000000
 FoFCou: FMM=F IPFlag=           0 FMFlag=      100000 FMFlg1=           0
         NFxFlg=           0 DoJE=T BraDBF=F KetDBF=T FulRan=T
         wScrn=  0.000000 ICntrl=       500 IOpCl=  0 I1Cent=   200000004 NGrid=           0
         NMat0=    1 NMatS0=      1 NMatT0=    0 NMatD0=    1 NMtDS0=    0 NMtDT0=    0
 Petite list used in FoFCou.
 Initial guess orbital symmetries:
       Occupied  (A') (A') (A') (A') (A') (A') (A') (A') (A') (A')
                 (A') (A') (A') (A') (A') (A') (A') (A') (A') (A')
                 (A') (A') (A') (A') (A') (A') (A') (A') (A') (A')
                 (A') (A') (A") (A') (A") (A') (A') (A") (A') (A')
                 (A') (A") (A') (A") (A") (A') (A")
       Virtual   (A") (A") (A") (A") (A') (A") (A') (A') (A') (A')
                 (A') (A') (A") (A') (A") (A') (A') (A") (A') (A')
                 (A') (A') (A") (A') (A') (A") (A') (A") (A') (A")
                 (A') (A') (A') (A') (A") (A') (A') (A') (A") (A')
                 (A") (A') (A') (A") (A') (A') (A') (A') (A') (A')
                 (A") (A") (A') (A") (A') (A') (A") (A') (A") (A')
                 (A') (A') (A') (A') (A') (A") (A') (A') (A") (A')
                 (A') (A') (A') (A') (A') (A') (A') (A') (A') (A')
                 (A') (A') (A') (A') (A') (A') (A') (A') (A') (A')
                 (A') (A') (A') (A") (A') (A") (A') (A') (A") (A')
                 (A') (A') (A") (A') (A') (A") (A") (A") (A') (A")
                 (A') (A') (A") (A") (A') (A") (A') (A') (A") (A')
                 (A") (A') (A') (A") (A') (A') (A") (A') (A') (A')
                 (A') (A') (A') (A') (A') (A') (A') (A') (A") (A')
                 (A') (A') (A') (A') (A') (A") (A') (A') (A') (A')
                 (A') (A") (A") (A') (A") (A') (A') (A") (A') (A")
                 (A") (A') (A") (A') (A") (A') (A") (A') (A') (A')
                 (A") (A') (A') (A') (A') (A') (A') (A") (A") (A')
                 (A') (A") (A') (A") (A') (A") (A') (A") (A') (A')
                 (A") (A') (A") (A') (A') (A") (A') (A') (A") (A')
                 (A") (A') (A") (A') (A") (A") (A') (A') (A') (A")
                 (A') (A') (A') (A') (A") (A') (A') (A") (A') (A")
                 (A') (A') (A") (A') (A") (A') (A') (A") (A') (A')
                 (A") (A') (A") (A') (A') (A") (A') (A") (A') (A')
                 (A") (A') (A') (A') (A') (A") (A') (A') (A") (A')
                 (A') (A') (A') (A") (A") (A') (A') (A") (A') (A")
                 (A') (A") (A') (A') (A') (A') (A') (A") (A") (A')
                 (A') (A') (A") (A') (A") (A') (A') (A') (A") (A')
                 (A') (A") (A") (A') (A') (A") (A") (A') (A') (A')
                 (A') (A') (A') (A') (A') (A') (A') (A') (A') (A")
                 (A') (A') (A') (A') (A') (A') (A') (A') (A') (A')
                 (A') (A') (A') (A') (A') (A') (A') (A') (A') (A')
                 (A') (A') (A') (A') (A') (A') (A') (A') (A') (A')
                 (A') (A')
 The electronic state of the initial guess is 1-A'.
 Requested convergence on RMS density matrix=1.00D-08 within 128 cycles.
 Requested convergence on MAX density matrix=1.00D-06.
 Requested convergence on             energy=1.00D-06.
 No special actions if energy rises.
 SCF Done:  E(RM062X) =  -539.184647527     A.U. after   17 cycles
            NFock= 17  Conv=0.69D-08     -V/T= 1.9986
 DoSCS=F DFT=T ScalE2(SS,OS)=  1.000000  1.000000
 ExpMin= 3.60D-02 ExpMax= 4.56D+03 ExpMxC= 6.82D+02 IAcc=3 IRadAn=         5 AccDes= 0.00D+00
 HarFok:  IExCor=  205 AccDes= 0.00D+00 IRadAn=         5 IDoV=-2 UseB2=F ITyADJ=14
 ICtDFT= 12500011 ScaDFX=  1.000000  1.000000  1.000000  1.000000
 Range of M.O.s used for correlation:    15   379
 NBasis=   385 NAE=    47 NBE=    47 NFC=    14 NFV=     0
 NROrb=    365 NOA=    33 NOB=    33 NVA=   332 NVB=   332

 **** Warning!!: The largest alpha MO coefficient is  0.17962251D+03


 **** Warning!!: The smallest alpha delta epsilon is  0.85936020D-01

 Orbital symmetries:
       Occupied  (A') (A') (A') (A') (A') (A') (A') (A') (A') (A')
                 (A') (A') (A') (A') (A') (A') (A') (A') (A') (A')
                 (A') (A') (A') (A') (A') (A') (A') (A') (A') (A')
                 (A") (A') (A') (A') (A") (A') (A') (A') (A") (A')
                 (A") (A') (A") (A') (A") (A') (A")
       Virtual   (A") (A") (A') (A") (A') (A') (A") (A') (A') (A")
                 (A') (A") (A') (A") (A') (A') (A") (A') (A') (A')
                 (A") (A') (A') (A") (A') (A') (A') (A') (A") (A')
                 (A") (A') (A') (A") (A') (A') (A') (A") (A') (A")
                 (A") (A') (A') (A') (A') (A") (A') (A") (A') (A")
                 (A') (A') (A') (A') (A') (A") (A') (A") (A') (A')
                 (A') (A') (A") (A') (A') (A') (A") (A') (A') (A')
                 (A') (A') (A') (A') (A') (A') (A') (A') (A') (A')
                 (A') (A') (A') (A') (A') (A') (A') (A') (A') (A')
                 (A") (A') (A") (A') (A') (A') (A') (A') (A") (A")
                 (A') (A') (A') (A") (A') (A") (A') (A") (A') (A')
                 (A") (A') (A") (A') (A") (A") (A') (A') (A") (A")
                 (A') (A') (A') (A") (A") (A') (A') (A') (A') (A')
                 (A') (A') (A') (A') (A') (A') (A') (A') (A') (A')
                 (A') (A') (A') (A') (A") (A') (A') (A') (A") (A')
                 (A') (A') (A') (A") (A') (A") (A") (A') (A') (A")
                 (A") (A') (A') (A") (A') (A") (A") (A') (A") (A')
                 (A") (A') (A') (A') (A') (A') (A') (A") (A') (A")
                 (A') (A") (A') (A") (A') (A") (A') (A") (A') (A')
                 (A") (A") (A') (A') (A') (A") (A') (A') (A") (A')
                 (A") (A') (A") (A') (A") (A') (A') (A") (A') (A")
                 (A') (A') (A') (A') (A") (A') (A') (A") (A') (A")
                 (A') (A') (A") (A') (A") (A') (A') (A") (A') (A')
                 (A") (A') (A') (A") (A') (A") (A') (A") (A') (A")
                 (A') (A') (A') (A') (A") (A') (A') (A') (A') (A")
                 (A') (A') (A') (A') (A') (A") (A') (A') (A") (A')
                 (A') (A") (A') (A') (A') (A') (A") (A') (A') (A')
                 (A") (A') (A") (A") (A") (A') (A") (A') (A') (A")
                 (A') (A") (A') (A") (A') (A") (A') (A") (A') (A')
                 (A') (A') (A') (A') (A') (A') (A') (A') (A') (A")
                 (A') (A') (A') (A') (A') (A') (A') (A') (A') (A')
                 (A') (A') (A') (A') (A') (A') (A') (A') (A') (A')
                 (A') (A') (A') (A') (A') (A') (A') (A') (A') (A')
                 (A') (A')
     4 initial guesses have been made.
 Convergence on wavefunction:    0.001000000000000
 Iteration     1 Dimension     4 NMult     0 NNew      4
 CISAX will form     4 AO SS matrices at one time.
 Iteration     2 Dimension     6 NMult     4 NNew      2
 Iteration     3 Dimension     8 NMult     6 NNew      2
 Iteration     4 Dimension    10 NMult     8 NNew      2
 Iteration     5 Dimension    12 NMult    10 NNew      2
 Iteration     6 Dimension    14 NMult    12 NNew      2
 ***********************************************************************
 Excited states from <AA,BB:AA,BB> singles matrix:
 ***********************************************************************
 
 Ground to excited state transition densities written to RWF  633
 Ground to excited state transition electric dipole moments (Au):
       state          X           Y           Z        Dip. S.      Osc.
         1        -0.9967      1.3189     -0.0000      2.7328      0.0640
 Ground to excited state transition velocity dipole moments (Au):
       state          X           Y           Z        Dip. S.      Osc.
         1         0.0359     -0.0404      0.0000      0.0029      0.0554
 Ground to excited state transition magnetic dipole moments (Au):
       state          X           Y           Z
         1         0.0000      0.0000      0.3892
 Ground to excited state transition velocity quadrupole moments (Au):
       state          XX          YY          ZZ          XY          XZ          YZ
         1        -0.0245      0.0602     -0.0037     -0.0196     -0.0000     -0.0000
 <0|del|b> * <b|rxdel|0> + <0|del|b> * <b|delr+rdel|0>
 Rotatory Strengths (R) in cgs (10**-40 erg-esu-cm/Gauss)
       state          XX          YY          ZZ    R(velocity)    E-M Angle
         1         0.0000      0.0000      0.0000      0.0000       90.00
 1/2[<0|r|b>*<b|rxdel|0> + (<0|rxdel|b>*<b|r|0>)*]
 Rotatory Strengths (R) in cgs (10**-40 erg-esu-cm/Gauss)
       state          XX          YY          ZZ     R(length)
         1         0.0000     -0.0000      0.0000      0.0000
  1/2[<0|del|b>*<b|r|0> + (<0|r|b>*<b|del|0>)*] (Au)
       state          X           Y           Z        Dip. S.   Osc.(frdel)
         1        -0.0358     -0.0533     -0.0000      0.0890      0.0593

 Excitation energies and oscillator strengths:
 
 Excited State   1:      Singlet-A'     0.9552 eV 1297.96 nm  f=0.0640  <S**2>=0.000
      47 -> 48         0.71374
      47 <- 48        -0.13041
 This state for optimization and/or second-order correction.
 Total Energy, E(TD-HF/TD-DFT) =  -539.149543638    
 Copying the excited state density for this state as the 1-particle RhoCI density.
 SavETr:  write IOETrn=   770 NScale= 10 NData=  16 NLR=1 NState=    1 LETran=      28.

 **********************************************************************

            Population analysis using the SCF Density.

 **********************************************************************

 Orbital symmetries:
       Occupied  (A') (A') (A') (A') (A') (A') (A') (A') (A') (A')
                 (A') (A') (A') (A') (A') (A') (A') (A') (A') (A')
                 (A') (A') (A') (A') (A') (A') (A') (A') (A') (A')
                 (A") (A') (A') (A') (A") (A') (A') (A') (A") (A')
                 (A") (A') (A") (A') (A") (A') (A")
       Virtual   (A") (A") (A') (A") (A') (A') (A") (A') (A') (A")
                 (A') (A") (A') (A") (A') (A') (A") (A') (A') (A')
                 (A") (A') (A') (A") (A') (A') (A') (A') (A") (A')
                 (A") (A') (A') (A") (A') (A') (A') (A") (A') (A")
                 (A") (A') (A') (A') (A') (A") (A') (A") (A') (A")
                 (A') (A') (A') (A') (A') (A") (A') (A") (A') (A')
                 (A') (A') (A") (A') (A') (A') (A") (A') (A') (A')
                 (A') (A') (A') (A') (A') (A') (A') (A') (A') (A')
                 (A') (A') (A') (A') (A') (A') (A') (A') (A') (A')
                 (A") (A') (A") (A') (A') (A') (A') (A') (A") (A")
                 (A') (A') (A') (A") (A') (A") (A') (A") (A') (A')
                 (A") (A') (A") (A') (A") (A") (A') (A') (A") (A")
                 (A') (A') (A') (A") (A") (A') (A') (A') (A') (A')
                 (A') (A') (A') (A') (A') (A') (A') (A') (A') (A')
                 (A') (A') (A') (A') (A") (A') (A') (A') (A") (A')
                 (A') (A') (A') (A") (A') (A") (A") (A') (A') (A")
                 (A") (A') (A') (A") (A') (A") (A") (A') (A") (A')
                 (A") (A') (A') (A') (A') (A') (A') (A") (A') (A")
                 (A') (A") (A') (A") (A') (A") (A') (A") (A') (A')
                 (A") (A") (A') (A') (A') (A") (A') (A') (A") (A')
                 (A") (A') (A") (A') (A") (A') (A') (A") (A') (A")
                 (A') (A') (A') (A') (A") (A') (A') (A") (A') (A")
                 (A') (A') (A") (A') (A") (A') (A') (A") (A') (A')
                 (A") (A') (A') (A") (A') (A") (A') (A") (A') (A")
                 (A') (A') (A') (A') (A") (A') (A') (A') (A') (A")
                 (A') (A') (A') (A') (A') (A") (A') (A') (A") (A')
                 (A') (A") (A') (A') (A') (A') (A") (A') (A') (A')
                 (A") (A') (A") (A") (A") (A') (A") (A') (A') (A")
                 (A') (A") (A') (A") (A') (A") (A') (A") (A') (A')
                 (A') (A') (A') (A') (A') (A') (A') (A') (A') (A")
                 (A') (A') (A') (A') (A') (A') (A') (A') (A') (A')
                 (A') (A') (A') (A') (A') (A') (A') (A') (A') (A')
                 (A') (A') (A') (A') (A') (A') (A') (A') (A') (A')
                 (A') (A')
 The electronic state is 1-A'.
 Alpha  occ. eigenvalues --  -10.78975 -10.74106 -10.72338 -10.71993 -10.71411
 Alpha  occ. eigenvalues --  -10.71269 -10.70403 -10.69890 -10.69875 -10.69793
 Alpha  occ. eigenvalues --  -10.68596 -10.67665 -10.67419 -10.66453  -1.20960
 Alpha  occ. eigenvalues --   -1.13591  -1.12495  -1.06946  -1.03400  -1.01629
 Alpha  occ. eigenvalues --   -0.96243  -0.87959  -0.86121  -0.84024  -0.83699
 Alpha  occ. eigenvalues --   -0.77685  -0.76395  -0.74672  -0.73668  -0.70034
 Alpha  occ. eigenvalues --   -0.68941  -0.68920  -0.66627  -0.64411  -0.63955
 Alpha  occ. eigenvalues --   -0.63462  -0.62673  -0.59258  -0.58672  -0.56413
 Alpha  occ. eigenvalues --   -0.55663  -0.55304  -0.52561  -0.52090  -0.47974
 Alpha  occ. eigenvalues --   -0.47740  -0.36020
 Alpha virt. eigenvalues --   -0.27427  -0.15675  -0.11651  -0.11400  -0.10383
 Alpha virt. eigenvalues --   -0.09854  -0.09582  -0.07840  -0.07753  -0.07498
 Alpha virt. eigenvalues --   -0.07331  -0.06041  -0.05994  -0.05467  -0.05460
 Alpha virt. eigenvalues --   -0.04654  -0.04013  -0.03661  -0.03289  -0.02335
 Alpha virt. eigenvalues --   -0.01943  -0.01573  -0.00825  -0.00824   0.00148
 Alpha virt. eigenvalues --    0.00602   0.01121   0.01170   0.01616   0.01624
 Alpha virt. eigenvalues --    0.02170   0.02495   0.02792   0.02886   0.03528
 Alpha virt. eigenvalues --    0.03669   0.03837   0.04279   0.05294   0.05502
 Alpha virt. eigenvalues --    0.05761   0.05863   0.06029   0.06201   0.06928
 Alpha virt. eigenvalues --    0.07457   0.07484   0.07774   0.07942   0.08076
 Alpha virt. eigenvalues --    0.08485   0.08891   0.09172   0.09949   0.10226
 Alpha virt. eigenvalues --    0.10329   0.11225   0.11385   0.11463   0.12101
 Alpha virt. eigenvalues --    0.12767   0.13177   0.13347   0.13397   0.14044
 Alpha virt. eigenvalues --    0.14491   0.16237   0.16476   0.17022   0.17533
 Alpha virt. eigenvalues --    0.18242   0.18534   0.19759   0.20361   0.20484
 Alpha virt. eigenvalues --    0.21240   0.22255   0.22736   0.23562   0.24279
 Alpha virt. eigenvalues --    0.25439   0.25899   0.26430   0.26957   0.28314
 Alpha virt. eigenvalues --    0.29845   0.30362   0.31768   0.32798   0.35423
 Alpha virt. eigenvalues --    0.36888   0.38126   0.38751   0.38828   0.39321
 Alpha virt. eigenvalues --    0.41167   0.41982   0.42275   0.43246   0.43929
 Alpha virt. eigenvalues --    0.44072   0.44885   0.46026   0.46488   0.47514
 Alpha virt. eigenvalues --    0.48358   0.48430   0.48986   0.51226   0.51298
 Alpha virt. eigenvalues --    0.51500   0.52259   0.52424   0.54088   0.54089
 Alpha virt. eigenvalues --    0.55177   0.56846   0.58623   0.58793   0.59002
 Alpha virt. eigenvalues --    0.60304   0.61556   0.62025   0.62294   0.63566
 Alpha virt. eigenvalues --    0.64909   0.65423   0.66492   0.67627   0.67737
 Alpha virt. eigenvalues --    0.70329   0.71776   0.73277   0.73487   0.74278
 Alpha virt. eigenvalues --    0.75192   0.75671   0.76820   0.77459   0.78274
 Alpha virt. eigenvalues --    0.78904   0.80455   0.80869   0.81713   0.82073
 Alpha virt. eigenvalues --    0.82731   0.83885   0.84387   0.84623   0.84818
 Alpha virt. eigenvalues --    0.88430   0.90087   0.90788   0.90950   0.93533
 Alpha virt. eigenvalues --    0.94565   0.96229   0.97717   0.98652   0.99044
 Alpha virt. eigenvalues --    1.01953   1.02934   1.04202   1.04275   1.05726
 Alpha virt. eigenvalues --    1.07219   1.07949   1.08209   1.08248   1.13980
 Alpha virt. eigenvalues --    1.15573   1.16963   1.18434   1.19436   1.25792
 Alpha virt. eigenvalues --    1.28604   1.31792   1.34035   1.35582   1.35652
 Alpha virt. eigenvalues --    1.37884   1.39190   1.39268   1.41731   1.42351
 Alpha virt. eigenvalues --    1.45298   1.47276   1.47311   1.47597   1.49539
 Alpha virt. eigenvalues --    1.50882   1.54023   1.54456   1.56295   1.56974
 Alpha virt. eigenvalues --    1.57062   1.57665   1.59279   1.59849   1.60465
 Alpha virt. eigenvalues --    1.63706   1.63982   1.65466   1.67643   1.68784
 Alpha virt. eigenvalues --    1.69720   1.71243   1.71568   1.75019   1.75145
 Alpha virt. eigenvalues --    1.75978   1.76760   1.77606   1.79427   1.80023
 Alpha virt. eigenvalues --    1.83510   1.83644   1.84932   1.85181   1.88353
 Alpha virt. eigenvalues --    1.88615   1.89323   1.89664   1.92382   1.95167
 Alpha virt. eigenvalues --    1.95309   1.97871   2.00561   2.01509   2.03147
 Alpha virt. eigenvalues --    2.03864   2.05420   2.10191   2.11220   2.15095
 Alpha virt. eigenvalues --    2.17900   2.17926   2.20254   2.20630   2.24050
 Alpha virt. eigenvalues --    2.25049   2.27905   2.30266   2.31828   2.32418
 Alpha virt. eigenvalues --    2.36059   2.37518   2.39142   2.42654   2.42848
 Alpha virt. eigenvalues --    2.42881   2.45174   2.49796   2.52796   2.55456
 Alpha virt. eigenvalues --    2.57059   2.57795   2.59454   2.59996   2.61595
 Alpha virt. eigenvalues --    2.62602   2.62846   2.63472   2.64933   2.65262
 Alpha virt. eigenvalues --    2.65498   2.65668   2.67001   2.67837   2.69376
 Alpha virt. eigenvalues --    2.69724   2.71970   2.74118   2.75202   2.76521
 Alpha virt. eigenvalues --    2.76991   2.78810   2.80866   2.84609   2.85030
 Alpha virt. eigenvalues --    2.85947   2.89913   2.92598   2.93224   2.96237
 Alpha virt. eigenvalues --    2.98890   3.01386   3.01781   3.04885   3.06556
 Alpha virt. eigenvalues --    3.09765   3.15700   3.16910   3.27696   3.31751
 Alpha virt. eigenvalues --    3.33403   3.34903   3.43384   3.50833   3.52893
 Alpha virt. eigenvalues --    3.56336   3.62765   3.63767   3.70675   3.73014
 Alpha virt. eigenvalues --    3.74924   3.77130   3.79692   3.87346   3.88830
 Alpha virt. eigenvalues --    3.96652   4.02121   4.05365   4.17756   4.23603
 Alpha virt. eigenvalues --    4.29467   4.46092   4.49785  23.42522  23.48230
 Alpha virt. eigenvalues --   23.51548  23.56524  23.56902  23.82003  23.96074
 Alpha virt. eigenvalues --   23.96847  24.27703  24.34137  24.68164  24.74191
 Alpha virt. eigenvalues --   25.37024  25.39150
          Condensed to atoms (all electrons):
               1          2          3          4          5          6
     1  C    7.186237   0.757887  -0.565761   0.340266   0.059961  -0.027923
     2  C    0.757887   9.264367   0.504821  -0.992398  -0.129200  -0.016277
     3  C   -0.565761   0.504821   6.846383   0.489754  -0.047341   0.016717
     4  C    0.340266  -0.992398   0.489754  11.844427  -0.082149  -0.233625
     5  C    0.059961  -0.129200  -0.047341  -0.082149   8.380899   1.171984
     6  C   -0.027923  -0.016277   0.016717  -0.233625   1.171984   7.917097
     7  C   -0.130513  -0.035852  -0.000061   0.188155  -1.598248  -2.032057
     8  C    0.390569   0.044649  -0.116066  -0.137661   2.471633   1.178883
     9  C   -0.820803  -1.943547   0.155993   0.988814  -1.068778   0.283308
    10  C   -0.294980  -0.263543   0.342380  -2.017946  -0.992049  -1.222950
    11  C    0.982771  -0.775950   0.241188  -0.900557  -1.456400   0.376910
    12  C   -1.113282   0.872843  -1.894322  -1.011079   0.622066  -0.889851
    13  C   -0.042406  -0.508519  -0.353016  -0.212040  -0.854744   1.160602
    14  C   -1.236158  -0.659686   0.429618  -2.642735  -0.766495  -1.613813
    15  H    0.402895  -0.086781   0.004779  -0.004995   0.004694   0.003376
    16  H   -0.022514   0.384850  -0.045248   0.039586  -0.002050  -0.000649
    17  H   -0.003513  -0.032182   0.407864  -0.067782  -0.000148   0.000560
    18  H    0.017288   0.011050  -0.047305   0.562207   0.007846  -0.005222
    19  H    0.001440  -0.009615   0.037753  -0.211348  -0.030985   0.067151
    20  H    0.001825   0.002387  -0.006990   0.029260   0.444902  -0.113194
    21  H   -0.000777  -0.000348   0.000228  -0.002312  -0.027963   0.338637
    22  H   -0.000422  -0.000138  -0.000041   0.000773  -0.014562  -0.004762
    23  H    0.014401   0.002902  -0.000045  -0.006535   0.027633   0.046471
    24  H    0.049306   0.018903  -0.000567  -0.000905  -0.020377  -0.009265
    25  H    0.049306   0.018903  -0.000567  -0.000905  -0.020377  -0.009265
               7          8          9         10         11         12
     1  C   -0.130513   0.390569  -0.820803  -0.294980   0.982771  -1.113282
     2  C   -0.035852   0.044649  -1.943547  -0.263543  -0.775950   0.872843
     3  C   -0.000061  -0.116066   0.155993   0.342380   0.241188  -1.894322
     4  C    0.188155  -0.137661   0.988814  -2.017946  -0.900557  -1.011079
     5  C   -1.598248   2.471633  -1.068778  -0.992049  -1.456400   0.622066
     6  C   -2.032057   1.178883   0.283308  -1.222950   0.376910  -0.889851
     7  C   10.061145  -3.225328  -0.558858   0.904430  -0.789212   0.675035
     8  C   -3.225328  11.779038  -1.401422  -0.823180   0.081899  -0.303637
     9  C   -0.558858  -1.401422  10.410903  -0.090327   1.373680  -2.683472
    10  C    0.904430  -0.823180  -0.090327   8.596768  -0.130287   1.624445
    11  C   -0.789212   0.081899   1.373680  -0.130287  15.764073  -5.692803
    12  C    0.675035  -0.303637  -2.683472   1.624445  -5.692803  18.521940
    13  C   -0.163268  -1.501341   0.658883  -1.172787  -0.855644  -1.845883
    14  C    2.914658  -2.838455   0.206090   1.167793  -1.749478  -1.092304
    15  H   -0.005047  -0.002437   0.040419   0.013602  -0.043235   0.036031
    16  H    0.000368   0.003196  -0.009334  -0.025461   0.030281  -0.006300
    17  H   -0.000105  -0.001954   0.001013   0.013458   0.013593   0.006967
    18  H    0.002304   0.005268  -0.001876  -0.025061  -0.006544  -0.066436
    19  H   -0.013006  -0.045288   0.042956   0.371544   0.164651  -0.267238
    20  H    0.009596   0.071215  -0.033789   0.102569  -0.041612   0.075216
    21  H    0.032557  -0.050437  -0.001730  -0.001447   0.000416  -0.007808
    22  H    0.350953  -0.016944  -0.001074   0.003271  -0.006832   0.003606
    23  H   -0.144666   0.387441   0.096331  -0.020156   0.048055  -0.019154
    24  H    0.013125  -0.022830   0.375305   0.013681   0.043837  -0.034913
    25  H    0.013125  -0.022830   0.375305   0.013681   0.043837  -0.034913
              13         14         15         16         17         18
     1  C   -0.042406  -1.236158   0.402895  -0.022514  -0.003513   0.017288
     2  C   -0.508519  -0.659686  -0.086781   0.384850  -0.032182   0.011050
     3  C   -0.353016   0.429618   0.004779  -0.045248   0.407864  -0.047305
     4  C   -0.212040  -2.642735  -0.004995   0.039586  -0.067782   0.562207
     5  C   -0.854744  -0.766495   0.004694  -0.002050  -0.000148   0.007846
     6  C    1.160602  -1.613813   0.003376  -0.000649   0.000560  -0.005222
     7  C   -0.163268   2.914658  -0.005047   0.000368  -0.000105   0.002304
     8  C   -1.501341  -2.838455  -0.002437   0.003196  -0.001954   0.005268
     9  C    0.658883   0.206090   0.040419  -0.009334   0.001013  -0.001876
    10  C   -1.172787   1.167793   0.013602  -0.025461   0.013458  -0.025061
    11  C   -0.855644  -1.749478  -0.043235   0.030281   0.013593  -0.006544
    12  C   -1.845883  -1.092304   0.036031  -0.006300   0.006967  -0.066436
    13  C   11.320252   0.519833  -0.037160   0.008530  -0.008033   0.004016
    14  C    0.519833  12.867839   0.010513  -0.024725   0.010144  -0.108242
    15  H   -0.037160   0.010513   0.423281  -0.003887   0.001724  -0.000385
    16  H    0.008530  -0.024725  -0.003887   0.391293  -0.005562   0.002979
    17  H   -0.008033   0.010144   0.001724  -0.005562   0.412634  -0.013027
    18  H    0.004016  -0.108242  -0.000385   0.002979  -0.013027   0.430020
    19  H    0.076746   0.179562   0.001489  -0.000772   0.003800  -0.009579
    20  H   -0.035465  -0.176926  -0.000412   0.000085  -0.000349   0.002025
    21  H    0.009417   0.053457   0.000065  -0.000009   0.000008  -0.000091
    22  H    0.025559   0.002988  -0.000160   0.000004  -0.000002   0.000007
    23  H   -0.071871  -0.061487   0.000593  -0.000097  -0.000024  -0.000080
    24  H   -0.068014  -0.023745  -0.001214   0.000565  -0.000034   0.000064
    25  H   -0.068014  -0.023745  -0.001214   0.000565  -0.000034   0.000064
              19         20         21         22         23         24
     1  C    0.001440   0.001825  -0.000777  -0.000422   0.014401   0.049306
     2  C   -0.009615   0.002387  -0.000348  -0.000138   0.002902   0.018903
     3  C    0.037753  -0.006990   0.000228  -0.000041  -0.000045  -0.000567
     4  C   -0.211348   0.029260  -0.002312   0.000773  -0.006535  -0.000905
     5  C   -0.030985   0.444902  -0.027963  -0.014562   0.027633  -0.020377
     6  C    0.067151  -0.113194   0.338637  -0.004762   0.046471  -0.009265
     7  C   -0.013006   0.009596   0.032557   0.350953  -0.144666   0.013125
     8  C   -0.045288   0.071215  -0.050437  -0.016944   0.387441  -0.022830
     9  C    0.042956  -0.033789  -0.001730  -0.001074   0.096331   0.375305
    10  C    0.371544   0.102569  -0.001447   0.003271  -0.020156   0.013681
    11  C    0.164651  -0.041612   0.000416  -0.006832   0.048055   0.043837
    12  C   -0.267238   0.075216  -0.007808   0.003606  -0.019154  -0.034913
    13  C    0.076746  -0.035465   0.009417   0.025559  -0.071871  -0.068014
    14  C    0.179562  -0.176926   0.053457   0.002988  -0.061487  -0.023745
    15  H    0.001489  -0.000412   0.000065  -0.000160   0.000593  -0.001214
    16  H   -0.000772   0.000085  -0.000009   0.000004  -0.000097   0.000565
    17  H    0.003800  -0.000349   0.000008  -0.000002  -0.000024  -0.000034
    18  H   -0.009579   0.002025  -0.000091   0.000007  -0.000080   0.000064
    19  H    0.499622  -0.016607   0.000588  -0.000285   0.000147   0.000542
    20  H   -0.016607   0.488970  -0.005204   0.001592  -0.001405   0.000573
    21  H    0.000588  -0.005204   0.421480  -0.001119   0.000620  -0.000206
    22  H   -0.000285   0.001592  -0.001119   0.425252  -0.004999   0.000835
    23  H    0.000147  -0.001405   0.000620  -0.004999   0.475850  -0.000139
    24  H    0.000542   0.000573  -0.000206   0.000835  -0.000139   0.462589
    25  H    0.000542   0.000573  -0.000206   0.000835  -0.000139  -0.061510
              25
     1  C    0.049306
     2  C    0.018903
     3  C   -0.000567
     4  C   -0.000905
     5  C   -0.020377
     6  C   -0.009265
     7  C    0.013125
     8  C   -0.022830
     9  C    0.375305
    10  C    0.013681
    11  C    0.043837
    12  C   -0.034913
    13  C   -0.068014
    14  C   -0.023745
    15  H   -0.001214
    16  H    0.000565
    17  H   -0.000034
    18  H    0.000064
    19  H    0.000542
    20  H    0.000573
    21  H   -0.000206
    22  H    0.000835
    23  H   -0.000139
    24  H   -0.061510
    25  H    0.462589
 Mulliken charges:
               1
     1  C    0.004901
     2  C   -0.429527
     3  C   -0.400147
     4  C    0.041730
     5  C   -0.079751
     6  C   -0.382840
     7  C   -0.469232
     8  C    0.096019
     9  C   -0.393990
    10  C   -0.087448
    11  C   -0.716637
    12  C    0.525248
    13  C    0.014366
    14  C    0.655500
    15  H    0.243465
    16  H    0.284306
    17  H    0.260985
    18  H    0.238709
    19  H    0.156190
    20  H    0.201165
    21  H    0.242184
    22  H    0.235662
    23  H    0.230354
    24  H    0.264395
    25  H    0.264395
 Sum of Mulliken charges =   1.00000
 Mulliken charges with hydrogens summed into heavy atoms:
               1
     1  C    0.248365
     2  C   -0.145221
     3  C   -0.139162
     4  C    0.280439
     5  C    0.121414
     6  C   -0.140656
     7  C   -0.233570
     8  C    0.326373
     9  C    0.134799
    10  C    0.068742
    11  C   -0.716637
    12  C    0.525248
    13  C    0.014366
    14  C    0.655500
 Electronic spatial extent (au):  <R**2>=           2869.1340
 Charge=              1.0000 electrons
 Dipole moment (field-independent basis, Debye):
    X=              2.1606    Y=             -5.3120    Z=              0.0000  Tot=              5.7345
 Quadrupole moment (field-independent basis, Debye-Ang):
   XX=            -46.7492   YY=            -35.9710   ZZ=            -83.1357
   XY=            -14.8033   XZ=             -0.0000   YZ=             -0.0000
 Traceless Quadrupole moment (field-independent basis, Debye-Ang):
   XX=              8.5361   YY=             19.3143   ZZ=            -27.8504
   XY=            -14.8033   XZ=             -0.0000   YZ=             -0.0000
 Octapole moment (field-independent basis, Debye-Ang**2):
  XXX=             19.3877  YYY=            -54.9656  ZZZ=             -0.0000  XYY=             12.2283
  XXY=             -7.0404  XXZ=              0.0000  XZZ=              2.6090  YZZ=            -10.6346
  YYZ=             -0.0000  XYZ=             -0.0000
 Hexadecapole moment (field-independent basis, Debye-Ang**3):
 XXXX=          -1145.5212 YYYY=          -1681.0145 ZZZZ=            -97.4464 XXXY=            373.0416
 XXXZ=              0.0000 YYYX=            312.6769 YYYZ=              0.0000 ZZZX=              0.0000
 ZZZY=             -0.0000 XXYY=           -435.8365 XXZZ=           -282.1228 YYZZ=           -449.0847
 XXYZ=             -0.0000 YYXZ=             -0.0000 ZZXY=            204.7492
 N-N= 7.858742662301D+02 E-N=-2.809464711088D+03  KE= 5.399389454817D+02
 Symmetry A'   KE= 5.247337582108D+02
 Symmetry A"   KE= 1.520518727086D+01
 Unable to Open any file for archive entry.
 1\1\GINC-GADI-CPU-CLX-0240\SP\RM062X TD-FC\6-311++G(d,p)\C14H11(1+)\TS
 1578\02-Aug-2022\0\\#n M062X/6-311++G(d,p) TD(NStates=1) EmpiricalDisp
 ersion=GD3 SP\\SP_12\\1,1\C,0,0.,2.248655,1.316431\C,0,0.,3.465508,0.5
 95989\C,0,0.,3.607861,-0.88183\C,0,0.,2.751156,-1.539538\C,0,0.,-2.175
 156,-1.275538\C,0,0.,-3.759861,-0.54583\C,0,0.,-3.937508,0.747989\C,0,
 0.,-2.736655,1.404431\C,0,0.,-0.08,1.453369\C,0,0.,0.324,-1.429189\C,0
 ,0.,1.346055,0.725065\C,0,0.,1.361471,-0.818804\C,0,0.,-1.178055,0.629
 065\C,0,0.,-1.113471,-0.642804\H,0,0.,2.320071,2.399647\H,0,0.,4.37275
 3,1.195689\H,0,0.,4.653262,-1.236349\H,0,0.,2.67955,-2.622059\H,0,0.,0
 .176,-2.510266\H,0,0.,-2.25555,-2.358059\H,0,0.,-4.565262,-1.308349\H,
 0,0.,-4.900753,1.227689\H,0,0.,-2.656071,2.487647\H,0,-0.859585,-0.432
 ,2.145787\H,0,0.859585,-0.432,2.145787\\Version=ES64L-G16RevC.01\State
 =1-A'\HF=-539.1846475\RMSD=6.920e-09\PG=CS [SG(C14H9),X(H2)]\\@
 The archive entry for this job was punched.


 ... UNTIL SCIENCE IS MIXED WITH EMOTION AND APPEALS TO THE HEART AND
 IMAGINATION , IT IS LIKE DEAD INORGANIC MATTER; AND WHEN IT IS SO MIXED
 AND SO TRANSFORMED IT IS LITERATURE.

                                  -- JOHN BURROUGHS
 Job cpu time:       0 days  0 hours 54 minutes 43.8 seconds.
 Elapsed time:       0 days  0 hours  1 minutes  8.7 seconds.
 File lengths (MBytes):  RWF=    460 Int=      0 D2E=      0 Chk=     15 Scr=      1
 Normal termination of Gaussian 16 at Tue Aug  2 13:24:32 2022.
