 Entering Gaussian System, Link 0=g16
 Initial command:
 /apps/gaussian/g16c01/g16/l1.exe "/jobfs/53803565.gadi-pbs/Gau-1058994.inp" -scrdir="/jobfs/53803565.gadi-pbs/"
 Entering Link 1 = /apps/gaussian/g16c01/g16/l1.exe PID=   1058995.
  
 Copyright (c) 1988-2019, Gaussian, Inc.  All Rights Reserved.
  
 This is part of the Gaussian(R) 16 program.  It is based on
 the Gaussian(R) 09 system (copyright 2009, Gaussian, Inc.),
 the Gaussian(R) 03 system (copyright 2003, Gaussian, Inc.),
 the Gaussian(R) 98 system (copyright 1998, Gaussian, Inc.),
 the Gaussian(R) 94 system (copyright 1995, Gaussian, Inc.),
 the Gaussian 92(TM) system (copyright 1992, Gaussian, Inc.),
 the Gaussian 90(TM) system (copyright 1990, Gaussian, Inc.),
 the Gaussian 88(TM) system (copyright 1988, Gaussian, Inc.),
 the Gaussian 86(TM) system (copyright 1986, Carnegie Mellon
 University), and the Gaussian 82(TM) system (copyright 1983,
 Carnegie Mellon University). Gaussian is a federally registered
 trademark of Gaussian, Inc.
  
 This software contains proprietary and confidential information,
 including trade secrets, belonging to Gaussian, Inc.
  
 This software is provided under written license and may be
 used, copied, transmitted, or stored only in accord with that
 written license.
  
 The following legend is applicable only to US Government
 contracts under FAR:
  
                    RESTRICTED RIGHTS LEGEND
  
 Use, reproduction and disclosure by the US Government is
 subject to restrictions as set forth in subparagraphs (a)
 and (c) of the Commercial Computer Software - Restricted
 Rights clause in FAR 52.227-19.
  
 Gaussian, Inc.
 340 Quinnipiac St., Bldg. 40, Wallingford CT 06492
  
  
 ---------------------------------------------------------------
 Warning -- This program may not be used in any manner that
 competes with the business of Gaussian, Inc. or will provide
 assistance to any competitor of Gaussian, Inc.  The licensee
 of this program is prohibited from giving any competitor of
 Gaussian, Inc. access to this program.  By using this program,
 the user acknowledges that Gaussian, Inc. is engaged in the
 business of creating and licensing software in the field of
 computational chemistry and represents and warrants to the
 licensee that it is not a competitor of Gaussian, Inc. and that
 it will not use this program in any manner prohibited above.
 ---------------------------------------------------------------
  

 Cite this work as:
 Gaussian 16, Revision C.01,
 M. J. Frisch, G. W. Trucks, H. B. Schlegel, G. E. Scuseria, 
 M. A. Robb, J. R. Cheeseman, G. Scalmani, V. Barone, 
 G. A. Petersson, H. Nakatsuji, X. Li, M. Caricato, A. V. Marenich, 
 J. Bloino, B. G. Janesko, R. Gomperts, B. Mennucci, H. P. Hratchian, 
 J. V. Ortiz, A. F. Izmaylov, J. L. Sonnenberg, D. Williams-Young, 
 F. Ding, F. Lipparini, F. Egidi, J. Goings, B. Peng, A. Petrone, 
 T. Henderson, D. Ranasinghe, V. G. Zakrzewski, J. Gao, N. Rega, 
 G. Zheng, W. Liang, M. Hada, M. Ehara, K. Toyota, R. Fukuda, 
 J. Hasegawa, M. Ishida, T. Nakajima, Y. Honda, O. Kitao, H. Nakai, 
 T. Vreven, K. Throssell, J. A. Montgomery, Jr., J. E. Peralta, 
 F. Ogliaro, M. J. Bearpark, J. J. Heyd, E. N. Brothers, K. N. Kudin, 
 V. N. Staroverov, T. A. Keith, R. Kobayashi, J. Normand, 
 K. Raghavachari, A. P. Rendell, J. C. Burant, S. S. Iyengar, 
 J. Tomasi, M. Cossi, J. M. Millam, M. Klene, C. Adamo, R. Cammi, 
 J. W. Ochterski, R. L. Martin, K. Morokuma, O. Farkas, 
 J. B. Foresman, and D. J. Fox, Gaussian, Inc., Wallingford CT, 2019.
 
 ******************************************
 Gaussian 16:  ES64L-G16RevC.01  3-Jul-2019
                 2-Aug-2022 
 ******************************************
 %NProcShared=48
 Will use up to   48 processors via shared memory.
 %mem = 190GB
 ---------------------------------------------------------------
 #n M062X/6-311++G(d,p) TD(NStates=1) EmpiricalDispersion=GD3 SP
 ---------------------------------------------------------------
 1/38=1,172=1/1;
 2/12=2,17=6,18=5,40=1/2;
 3/5=4,6=6,7=1111,11=9,25=1,30=1,74=-55,124=31/1,2,3,8;
 4//1;
 5/5=2,38=5/2;
 8/6=1,10=2,108=1/1;
 9/41=1,42=1,70=2/14;
 6/7=2,8=2,9=2,10=2/1;
 99/5=1,9=1/99;
 ----
 SP_6
 ----
 Symbolic Z-matrix:
 Charge =  1 Multiplicity = 1
 C                     0.        2.44866   1.40443 
 C                     0.        3.61351   0.60399 
 C                     0.        3.59786  -0.83383 
 C                     0.        2.53516  -1.41954 
 C                     0.       -2.39116  -1.39554 
 C                     0.       -3.76986  -0.59383 
 C                     0.       -3.78951   0.73999 
 C                     0.       -2.53666   1.31643 
 C                     0.       -0.064     1.45337 
 C                     0.        0.198    -1.42919 
 C                     0.        1.34005   0.82707 
 C                     0.        1.27547  -0.6608 
 C                     0.       -1.18406   0.52707 
 C                     0.       -1.19947  -0.8008 
 H                     0.        2.56607   2.48765 
 H                     0.        4.57675   1.10169 
 H                     0.        4.54726  -1.34435 
 H                     0.        2.41755  -2.50206 
 H                     0.        0.274    -2.51027 
 H                     0.       -2.51755  -2.47806 
 H                     0.       -4.67126  -1.20035 
 H                     0.       -4.69675   1.32169 
 H                     0.       -2.41007   2.39965 
 H                    -0.85959  -0.36      2.14579 
 H                     0.85959  -0.36      2.14579 
 
                          Input orientation:                          
 ---------------------------------------------------------------------
 Center     Atomic      Atomic             Coordinates (Angstroms)
 Number     Number       Type             X           Y           Z
 ---------------------------------------------------------------------
      1          6           0        0.000000    2.448655    1.404431
      2          6           0        0.000000    3.613508    0.603989
      3          6           0        0.000000    3.597861   -0.833830
      4          6           0        0.000000    2.535156   -1.419538
      5          6           0        0.000000   -2.391156   -1.395538
      6          6           0        0.000000   -3.769861   -0.593830
      7          6           0        0.000000   -3.789508    0.739989
      8          6           0        0.000000   -2.536655    1.316431
      9          6           0        0.000000   -0.064000    1.453369
     10          6           0        0.000000    0.198000   -1.429189
     11          6           0        0.000000    1.340055    0.827065
     12          6           0        0.000000    1.275471   -0.660804
     13          6           0        0.000000   -1.184055    0.527065
     14          6           0        0.000000   -1.199471   -0.800804
     15          1           0        0.000000    2.566071    2.487647
     16          1           0        0.000000    4.576753    1.101689
     17          1           0        0.000000    4.547262   -1.344349
     18          1           0        0.000000    2.417550   -2.502059
     19          1           0        0.000000    0.274000   -2.510266
     20          1           0        0.000000   -2.517550   -2.478059
     21          1           0        0.000000   -4.671262   -1.200349
     22          1           0        0.000000   -4.696753    1.321689
     23          1           0        0.000000   -2.410071    2.399647
     24          1           0       -0.859585   -0.360000    2.145787
     25          1           0        0.859585   -0.360000    2.145787
 ---------------------------------------------------------------------
                    Distance matrix (angstroms):
                    1          2          3          4          5
     1  C    0.000000
     2  C    1.413361   0.000000
     3  C    2.516046   1.437904   0.000000
     4  C    2.825293   2.292925   1.213423   0.000000
     5  C    5.591386   6.328831   6.015301   4.926370   0.000000
     6  C    6.531691   7.479900   7.371630   6.358855   1.594855
     7  C    6.273449   7.404265   7.553153   6.683183   2.552619
     8  C    4.986087   6.191291   6.500455   5.762707   2.715869
     9  C    2.513132   3.774323   4.317465   3.874172   3.678577
    10  C    3.618681   3.974859   3.451595   2.337176   2.589375
    11  C    1.249938   2.284371   2.802902   2.544699   4.343029
    12  C    2.375196   2.658217   2.328827   1.470539   3.739517
    13  C    3.737158   4.798180   4.971796   4.197832   2.270131
    14  C    4.262849   5.013802   4.797446   3.785534   1.331849
    15  H    1.089561   2.155294   3.478045   3.907307   6.297081
    16  H    2.149524   1.084226   2.168977   3.244180   7.401885
    17  H    3.458315   2.160536   1.077957   2.013510   6.938607
    18  H    3.906614   3.328340   2.043556   1.088891   4.934374
    19  H    4.478167   4.566278   3.722699   2.510481   2.888888
    20  H    6.303723   6.862135   6.332594   5.162393   1.089875
    21  H    7.581431   8.478977   8.277242   7.209751   2.288445
    22  H    7.145887   8.341195   8.570116   7.734005   3.563580
    23  H    4.959604   6.285530   6.822802   6.248315   3.795232
    24  H    3.029363   4.347964   5.028088   4.672511   4.171986
    25  H    3.029363   4.347964   5.028088   4.672511   4.171986
                    6          7          8          9         10
     6  C    0.000000
     7  C    1.333964   0.000000
     8  C    2.273740   1.379103   0.000000
     9  C    4.233725   3.793194   2.476444   0.000000
    10  C    4.054842   4.539334   3.875147   2.894440   0.000000
    11  C    5.303790   5.130302   3.907475   1.537409   2.528828
    12  C    5.045777   5.255115   4.294387   2.502780   1.323389
    13  C    2.818297   2.614139   1.566086   1.453466   2.395205
    14  C    2.578710   3.013691   2.504146   2.524003   1.532251
    15  H    7.045533   6.591486   5.235414   2.826129   4.577048
    16  H    8.517086   8.374076   7.116649   4.654059   5.057551
    17  H    8.350917   8.593381   7.567141   5.393604   4.350089
    18  H    6.474982   7.002745   6.254999   4.669422   2.465249
    19  H    4.474990   5.203485   4.747988   3.978020   1.083745
    20  H    2.262433   3.460305   3.794538   4.634224   2.911072
    21  H    1.086457   2.131291   3.300110   5.316868   4.874636
    22  H    2.127990   1.077714   2.160104   4.634624   5.614796
    23  H    3.287846   2.158080   1.090587   2.529722   4.632712
    24  H    4.457751   3.804823   2.482850   1.142780   3.718965
    25  H    4.457751   3.804823   2.482850   1.142780   3.718965
                   11         12         13         14         15
    11  C    0.000000
    12  C    1.489270   0.000000
    13  C    2.541876   2.731355   0.000000
    14  C    3.016480   2.478899   1.327958   0.000000
    15  H    2.064134   3.402704   4.231705   4.999322   0.000000
    16  H    3.248328   3.742305   5.789396   6.081467   2.442073
    17  H    3.873140   3.342432   6.029111   5.772381   4.313851
    18  H    3.499152   2.166694   4.706076   3.997138   4.991916
    19  H    3.503463   2.103201   3.369170   2.256851   5.498429
    20  H    5.079858   4.205880   3.287701   2.133194   7.106436
    21  H    6.344000   5.971159   3.891603   3.494706   8.122826
    22  H    6.057038   6.292673   3.601455   4.090961   7.355819
    23  H    4.066505   4.790572   2.238231   3.421760   4.976920
    24  H    2.316916   3.360150   2.009531   3.182137   3.068818
    25  H    2.316916   3.360150   2.009531   3.182137   3.068818
                   16         17         18         19         20
    16  H    0.000000
    17  H    2.446216   0.000000
    18  H    4.201090   2.424039   0.000000
    19  H    5.617820   4.429462   2.143566   0.000000
    20  H    7.946303   7.155199   4.935158   2.791736   0.000000
    21  H    9.530224   9.219649   7.207337   5.115809   2.504200
    22  H    9.276115   9.620789   8.076779   6.276326   4.380298
    23  H    7.106364   7.900759   6.879873   5.595666   4.878890
    24  H    5.118648   6.082858   5.482348   4.776994   5.174346
    25  H    5.118648   6.082858   5.482348   4.776994   5.174346
                   21         22         23         24         25
    21  H    0.000000
    22  H    2.522167   0.000000
    23  H    4.251230   2.528025   0.000000
    24  H    5.524717   4.497271   2.237437   0.000000
    25  H    5.524717   4.497271   2.237437   1.719170   0.000000
 Stoichiometry    C14H11(1+)
 Framework group  CS[SG(C14H9),X(H2)]
 Deg. of freedom    46
 Full point group                 CS      NOp   2
 Largest Abelian subgroup         CS      NOp   2
 Largest concise Abelian subgroup CS      NOp   2
                         Standard orientation:                         
 ---------------------------------------------------------------------
 Center     Atomic      Atomic             Coordinates (Angstroms)
 Number     Number       Type             X           Y           Z
 ---------------------------------------------------------------------
      1          6           0       -2.280701   -1.666295    0.000000
      2          6           0       -2.024014   -3.056152    0.000000
      3          6           0       -0.704452   -3.627398    0.000000
      4          6           0        0.263264   -2.895331    0.000000
      5          6           0        2.247534    1.613749    0.000000
      6          6           0        2.076780    3.199437    0.000000
      7          6           0        0.866576    3.760565    0.000000
      8          6           0       -0.170112    2.851057    0.000000
      9          6           0       -1.302144    0.648495    0.000000
     10          6           0        1.223861   -0.764687    0.000000
     11          6           0       -1.301914   -0.888914    0.000000
     12          6           0        0.083289   -1.435847    0.000000
     13          6           0       -0.000000    1.294238    0.000000
     14          6           0        1.219049    0.767557    0.000000
     15          1           0       -3.317841   -1.332405    0.000000
     16          1           0       -2.870846   -3.733221    0.000000
     17          1           0       -0.624817   -4.702410    0.000000
     18          1           0        1.299847   -3.228764    0.000000
     19          1           0        2.180281   -1.274357    0.000000
     20          1           0        3.287696    1.288341    0.000000
     21          1           0        2.997813    3.775707    0.000000
     22          1           0        0.704763    4.826062    0.000000
     23          1           0       -1.210987    3.176574    0.000000
     24          1           0       -1.814001    1.200819    0.859585
     25          1           0       -1.814001    1.200819   -0.859585
 ---------------------------------------------------------------------
 Rotational constants (GHZ):           2.1289936           0.4438447           0.3680731
 Standard basis: 6-311++G(d,p) (5D, 7F)
 There are   299 symmetry adapted cartesian basis functions of A'  symmetry.
 There are   100 symmetry adapted cartesian basis functions of A"  symmetry.
 There are   285 symmetry adapted basis functions of A'  symmetry.
 There are   100 symmetry adapted basis functions of A"  symmetry.
   385 basis functions,   603 primitive gaussians,   399 cartesian basis functions
    47 alpha electrons       47 beta electrons
       nuclear repulsion energy       781.6817051089 Hartrees.
 NAtoms=   25 NActive=   25 NUniq=   24 SFac= 1.09D+00 NAtFMM=   60 NAOKFM=F Big=F
 Integral buffers will be    131072 words long.
 Regular integral format.
 Two-electron integral symmetry is turned on.
 Nuclear repulsion after empirical dispersion term =      781.6807325670 Hartrees.
 One-electron integrals computed using PRISM.
 NBasis=   385 RedAO= T EigKep=  2.12D-06  NBF=   285   100
 NBsUse=   378 1.00D-06 EigRej=  9.80D-07 NBFU=   278   100
 ExpMin= 3.60D-02 ExpMax= 4.56D+03 ExpMxC= 6.82D+02 IAcc=3 IRadAn=         5 AccDes= 0.00D+00
 Harris functional with IExCor= 1009 and IRadAn=       5 diagonalized for initial guess.
 HarFok:  IExCor= 1009 AccDes= 0.00D+00 IRadAn=         5 IDoV= 1 UseB2=F ITyADJ=14
 ICtDFT=  3500011 ScaDFX=  1.000000  1.000000  1.000000  1.000000
 FoFCou: FMM=F IPFlag=           0 FMFlag=      100000 FMFlg1=           0
         NFxFlg=           0 DoJE=T BraDBF=F KetDBF=T FulRan=T
         wScrn=  0.000000 ICntrl=       500 IOpCl=  0 I1Cent=   200000004 NGrid=           0
         NMat0=    1 NMatS0=      1 NMatT0=    0 NMatD0=    1 NMtDS0=    0 NMtDT0=    0
 Petite list used in FoFCou.
 Initial guess orbital symmetries:
       Occupied  (A') (A') (A') (A') (A') (A') (A') (A') (A') (A')
                 (A') (A') (A') (A') (A') (A') (A') (A') (A') (A')
                 (A') (A') (A') (A') (A') (A') (A') (A') (A') (A')
                 (A') (A') (A') (A") (A') (A') (A') (A") (A') (A')
                 (A") (A') (A') (A") (A") (A") (A")
       Virtual   (A") (A") (A") (A") (A") (A') (A') (A') (A') (A")
                 (A') (A") (A') (A') (A') (A') (A") (A') (A') (A')
                 (A') (A") (A') (A") (A') (A") (A') (A') (A') (A")
                 (A') (A') (A') (A") (A') (A') (A') (A') (A") (A')
                 (A") (A') (A") (A') (A') (A') (A') (A') (A') (A")
                 (A') (A') (A") (A") (A') (A') (A") (A') (A') (A")
                 (A') (A') (A') (A') (A') (A") (A') (A') (A') (A")
                 (A') (A') (A') (A') (A') (A') (A') (A') (A') (A')
                 (A') (A') (A') (A') (A') (A') (A') (A') (A') (A')
                 (A') (A') (A') (A') (A') (A") (A') (A") (A') (A')
                 (A") (A") (A') (A') (A") (A') (A') (A") (A") (A")
                 (A') (A') (A") (A") (A') (A') (A') (A") (A") (A')
                 (A") (A') (A') (A') (A") (A') (A') (A") (A') (A')
                 (A') (A') (A') (A') (A') (A') (A") (A') (A') (A')
                 (A') (A') (A') (A') (A') (A') (A") (A') (A') (A")
                 (A') (A") (A') (A") (A') (A') (A') (A") (A") (A')
                 (A') (A") (A") (A") (A") (A') (A') (A') (A') (A")
                 (A') (A') (A') (A') (A') (A') (A") (A') (A") (A')
                 (A') (A") (A') (A") (A') (A') (A") (A') (A") (A")
                 (A') (A') (A') (A") (A') (A') (A") (A') (A') (A")
                 (A") (A') (A") (A") (A') (A") (A') (A') (A") (A')
                 (A') (A") (A') (A') (A") (A') (A') (A") (A') (A")
                 (A') (A') (A') (A") (A') (A') (A") (A') (A') (A")
                 (A') (A") (A') (A') (A') (A") (A") (A') (A") (A')
                 (A') (A') (A") (A') (A') (A') (A') (A') (A") (A')
                 (A') (A') (A") (A") (A') (A') (A") (A') (A') (A")
                 (A') (A') (A') (A') (A") (A') (A') (A") (A") (A')
                 (A') (A') (A") (A') (A") (A') (A") (A') (A') (A")
                 (A') (A") (A') (A") (A") (A') (A') (A') (A') (A')
                 (A') (A') (A') (A') (A') (A') (A') (A') (A') (A')
                 (A") (A') (A') (A') (A') (A') (A') (A') (A') (A')
                 (A') (A') (A') (A') (A') (A') (A') (A') (A') (A')
                 (A') (A') (A') (A') (A') (A') (A') (A') (A') (A')
                 (A')
 The electronic state of the initial guess is 1-A'.
 Requested convergence on RMS density matrix=1.00D-08 within 128 cycles.
 Requested convergence on MAX density matrix=1.00D-06.
 Requested convergence on             energy=1.00D-06.
 No special actions if energy rises.
 SCF Done:  E(RM062X) =  -539.607482833     A.U. after   16 cycles
            NFock= 16  Conv=0.32D-08     -V/T= 2.0030
 DoSCS=F DFT=T ScalE2(SS,OS)=  1.000000  1.000000
 ExpMin= 3.60D-02 ExpMax= 4.56D+03 ExpMxC= 6.82D+02 IAcc=3 IRadAn=         5 AccDes= 0.00D+00
 HarFok:  IExCor=  205 AccDes= 0.00D+00 IRadAn=         5 IDoV=-2 UseB2=F ITyADJ=14
 ICtDFT= 12500011 ScaDFX=  1.000000  1.000000  1.000000  1.000000
 Range of M.O.s used for correlation:    15   378
 NBasis=   385 NAE=    47 NBE=    47 NFC=    14 NFV=     0
 NROrb=    364 NOA=    33 NOB=    33 NVA=   331 NVB=   331

 **** Warning!!: The largest alpha MO coefficient is  0.13568578D+03

 Orbital symmetries:
       Occupied  (A') (A') (A') (A') (A') (A') (A') (A') (A') (A')
                 (A') (A') (A') (A') (A') (A') (A') (A') (A') (A')
                 (A') (A') (A') (A') (A') (A') (A') (A') (A') (A')
                 (A') (A") (A') (A') (A') (A") (A') (A') (A") (A')
                 (A') (A') (A") (A") (A') (A") (A")
       Virtual   (A") (A") (A") (A") (A') (A') (A') (A') (A') (A")
                 (A') (A") (A') (A") (A') (A') (A") (A') (A') (A')
                 (A") (A") (A') (A') (A') (A") (A') (A') (A") (A')
                 (A") (A') (A") (A') (A') (A') (A') (A") (A') (A')
                 (A") (A') (A') (A') (A") (A") (A") (A') (A') (A')
                 (A") (A') (A') (A') (A') (A') (A") (A') (A') (A')
                 (A') (A") (A') (A') (A') (A") (A') (A') (A') (A')
                 (A') (A') (A') (A') (A') (A') (A') (A') (A') (A')
                 (A') (A') (A') (A') (A') (A') (A') (A') (A') (A')
                 (A') (A') (A") (A') (A") (A') (A') (A") (A') (A")
                 (A') (A') (A') (A") (A") (A') (A") (A') (A') (A")
                 (A') (A") (A') (A") (A') (A") (A') (A') (A") (A")
                 (A') (A') (A") (A') (A') (A") (A') (A') (A') (A')
                 (A') (A') (A') (A') (A') (A') (A') (A') (A') (A')
                 (A') (A') (A') (A') (A") (A') (A') (A') (A") (A')
                 (A') (A') (A') (A') (A") (A") (A") (A') (A') (A")
                 (A") (A") (A') (A') (A") (A") (A') (A") (A') (A")
                 (A') (A') (A') (A') (A') (A') (A") (A") (A') (A')
                 (A') (A') (A") (A") (A') (A') (A") (A") (A') (A")
                 (A') (A") (A') (A') (A') (A") (A') (A') (A") (A')
                 (A") (A') (A") (A") (A') (A") (A') (A') (A') (A')
                 (A") (A") (A') (A') (A') (A") (A') (A") (A') (A")
                 (A') (A') (A') (A") (A') (A') (A") (A') (A") (A')
                 (A') (A") (A') (A') (A') (A") (A') (A") (A") (A')
                 (A') (A") (A') (A') (A') (A') (A') (A') (A') (A")
                 (A') (A') (A') (A') (A") (A') (A") (A') (A") (A')
                 (A') (A') (A') (A") (A') (A') (A') (A') (A') (A')
                 (A") (A") (A') (A") (A") (A') (A") (A') (A") (A')
                 (A") (A") (A') (A") (A") (A') (A') (A') (A') (A')
                 (A') (A') (A') (A') (A') (A') (A') (A') (A') (A')
                 (A") (A') (A') (A') (A') (A') (A') (A') (A') (A')
                 (A') (A') (A') (A') (A') (A') (A') (A') (A') (A')
                 (A') (A') (A') (A') (A') (A') (A') (A') (A') (A')
                 (A')
     4 initial guesses have been made.
 Convergence on wavefunction:    0.001000000000000
 Iteration     1 Dimension     4 NMult     0 NNew      4
 CISAX will form     4 AO SS matrices at one time.
 Iteration     2 Dimension     6 NMult     4 NNew      2
 Iteration     3 Dimension     8 NMult     6 NNew      2
 Iteration     4 Dimension    10 NMult     8 NNew      2
 Iteration     5 Dimension    12 NMult    10 NNew      2
 Iteration     6 Dimension    14 NMult    12 NNew      2
 ***********************************************************************
 Excited states from <AA,BB:AA,BB> singles matrix:
 ***********************************************************************
 
 Ground to excited state transition densities written to RWF  633
 Ground to excited state transition electric dipole moments (Au):
       state          X           Y           Z        Dip. S.      Osc.
         1        -0.0737      0.6987      0.0000      0.4936      0.0209
 Ground to excited state transition velocity dipole moments (Au):
       state          X           Y           Z        Dip. S.      Osc.
         1         0.0121     -0.0415     -0.0000      0.0019      0.0196
 Ground to excited state transition magnetic dipole moments (Au):
       state          X           Y           Z
         1        -0.0000     -0.0000      0.1510
 Ground to excited state transition velocity quadrupole moments (Au):
       state          XX          YY          ZZ          XY          XZ          YZ
         1         0.0564      0.0391     -0.0049      0.0801      0.0000     -0.0000
 <0|del|b> * <b|rxdel|0> + <0|del|b> * <b|delr+rdel|0>
 Rotatory Strengths (R) in cgs (10**-40 erg-esu-cm/Gauss)
       state          XX          YY          ZZ    R(velocity)    E-M Angle
         1         0.0000     -0.0000      0.0000      0.0000       90.00
 1/2[<0|r|b>*<b|rxdel|0> + (<0|rxdel|b>*<b|r|0>)*]
 Rotatory Strengths (R) in cgs (10**-40 erg-esu-cm/Gauss)
       state          XX          YY          ZZ     R(length)
         1        -0.0000      0.0000     -0.0000      0.0000
  1/2[<0|del|b>*<b|r|0> + (<0|r|b>*<b|del|0>)*] (Au)
       state          X           Y           Z        Dip. S.   Osc.(frdel)
         1        -0.0009     -0.0290     -0.0000      0.0299      0.0199

 Excitation energies and oscillator strengths:
 
 Excited State   1:      Singlet-A'     1.7246 eV  718.91 nm  f=0.0209  <S**2>=0.000
      47 -> 48         0.70238
 This state for optimization and/or second-order correction.
 Total Energy, E(TD-HF/TD-DFT) =  -539.544104450    
 Copying the excited state density for this state as the 1-particle RhoCI density.
 SavETr:  write IOETrn=   770 NScale= 10 NData=  16 NLR=1 NState=    1 LETran=      28.

 **********************************************************************

            Population analysis using the SCF Density.

 **********************************************************************

 Orbital symmetries:
       Occupied  (A') (A') (A') (A') (A') (A') (A') (A') (A') (A')
                 (A') (A') (A') (A') (A') (A') (A') (A') (A') (A')
                 (A') (A') (A') (A') (A') (A') (A') (A') (A') (A')
                 (A') (A") (A') (A') (A') (A") (A') (A') (A") (A')
                 (A') (A') (A") (A") (A') (A") (A")
       Virtual   (A") (A") (A") (A") (A') (A') (A') (A') (A') (A")
                 (A') (A") (A') (A") (A') (A') (A") (A') (A') (A')
                 (A") (A") (A') (A') (A') (A") (A') (A') (A") (A')
                 (A") (A') (A") (A') (A') (A') (A') (A") (A') (A')
                 (A") (A') (A') (A') (A") (A") (A") (A') (A') (A')
                 (A") (A') (A') (A') (A') (A') (A") (A') (A') (A')
                 (A') (A") (A') (A') (A') (A") (A') (A') (A') (A')
                 (A') (A') (A') (A') (A') (A') (A') (A') (A') (A')
                 (A') (A') (A') (A') (A') (A') (A') (A') (A') (A')
                 (A') (A') (A") (A') (A") (A') (A') (A") (A') (A")
                 (A') (A') (A') (A") (A") (A') (A") (A') (A') (A")
                 (A') (A") (A') (A") (A') (A") (A') (A') (A") (A")
                 (A') (A') (A") (A') (A') (A") (A') (A') (A') (A')
                 (A') (A') (A') (A') (A') (A') (A') (A') (A') (A')
                 (A') (A') (A') (A') (A") (A') (A') (A') (A") (A')
                 (A') (A') (A') (A') (A") (A") (A") (A') (A') (A")
                 (A") (A") (A') (A') (A") (A") (A') (A") (A') (A")
                 (A') (A') (A') (A') (A') (A') (A") (A") (A') (A')
                 (A') (A') (A") (A") (A') (A') (A") (A") (A') (A")
                 (A') (A") (A') (A') (A') (A") (A') (A') (A") (A')
                 (A") (A') (A") (A") (A') (A") (A') (A') (A') (A')
                 (A") (A") (A') (A') (A') (A") (A') (A") (A') (A")
                 (A') (A') (A') (A") (A') (A') (A") (A') (A") (A')
                 (A') (A") (A') (A') (A') (A") (A') (A") (A") (A')
                 (A') (A") (A') (A') (A') (A') (A') (A') (A') (A")
                 (A') (A') (A') (A') (A") (A') (A") (A') (A") (A')
                 (A') (A') (A') (A") (A') (A') (A') (A') (A') (A')
                 (A") (A") (A') (A") (A") (A') (A") (A') (A") (A')
                 (A") (A") (A') (A") (A") (A') (A') (A') (A') (A')
                 (A') (A') (A') (A') (A') (A') (A') (A') (A') (A')
                 (A") (A') (A') (A') (A') (A') (A') (A') (A') (A')
                 (A') (A') (A') (A') (A') (A') (A') (A') (A') (A')
                 (A') (A') (A') (A') (A') (A') (A') (A') (A') (A')
                 (A')
 The electronic state is 1-A'.
 Alpha  occ. eigenvalues --  -10.76236 -10.75980 -10.75303 -10.73278 -10.71871
 Alpha  occ. eigenvalues --  -10.71803 -10.71232 -10.71227 -10.70233 -10.70005
 Alpha  occ. eigenvalues --  -10.69344 -10.69071 -10.68759 -10.67411  -1.18065
 Alpha  occ. eigenvalues --   -1.12626  -1.08417  -1.06645  -1.01747  -1.01167
 Alpha  occ. eigenvalues --   -0.94733  -0.89983  -0.86490  -0.85578  -0.83637
 Alpha  occ. eigenvalues --   -0.77219  -0.77129  -0.74268  -0.71238  -0.69772
 Alpha  occ. eigenvalues --   -0.68416  -0.67533  -0.66879  -0.66170  -0.64087
 Alpha  occ. eigenvalues --   -0.62138  -0.62056  -0.61242  -0.57765  -0.57150
 Alpha  occ. eigenvalues --   -0.55864  -0.55660  -0.52365  -0.51835  -0.51417
 Alpha  occ. eigenvalues --   -0.46570  -0.39664
 Alpha virt. eigenvalues --   -0.26460  -0.15062  -0.13746  -0.12044  -0.11394
 Alpha virt. eigenvalues --   -0.10242  -0.09608  -0.07776  -0.07594  -0.07531
 Alpha virt. eigenvalues --   -0.07355  -0.06639  -0.05707  -0.05481  -0.05463
 Alpha virt. eigenvalues --   -0.04147  -0.03945  -0.03256  -0.03148  -0.01984
 Alpha virt. eigenvalues --   -0.01429  -0.01076  -0.00010   0.00241   0.00678
 Alpha virt. eigenvalues --    0.01180   0.01343   0.01585   0.02043   0.02057
 Alpha virt. eigenvalues --    0.02357   0.02527   0.03313   0.03419   0.03664
 Alpha virt. eigenvalues --    0.04228   0.04448   0.05012   0.05271   0.05449
 Alpha virt. eigenvalues --    0.05905   0.06056   0.06231   0.07108   0.07208
 Alpha virt. eigenvalues --    0.07560   0.07961   0.07965   0.08442   0.08704
 Alpha virt. eigenvalues --    0.09232   0.09367   0.09522   0.09792   0.10341
 Alpha virt. eigenvalues --    0.11190   0.11256   0.11546   0.12215   0.12981
 Alpha virt. eigenvalues --    0.13108   0.13622   0.13749   0.14187   0.14470
 Alpha virt. eigenvalues --    0.15877   0.15898   0.17044   0.17346   0.17827
 Alpha virt. eigenvalues --    0.18747   0.19751   0.20294   0.20698   0.20976
 Alpha virt. eigenvalues --    0.21553   0.22196   0.23269   0.23609   0.23993
 Alpha virt. eigenvalues --    0.24532   0.25509   0.26685   0.27135   0.28807
 Alpha virt. eigenvalues --    0.29506   0.30294   0.31383   0.34538   0.36653
 Alpha virt. eigenvalues --    0.38002   0.39252   0.39509   0.40212   0.40685
 Alpha virt. eigenvalues --    0.41725   0.43111   0.43246   0.43902   0.44824
 Alpha virt. eigenvalues --    0.45032   0.45537   0.45858   0.46778   0.47938
 Alpha virt. eigenvalues --    0.48505   0.49160   0.50023   0.51120   0.51424
 Alpha virt. eigenvalues --    0.51940   0.52258   0.53101   0.53918   0.54939
 Alpha virt. eigenvalues --    0.55262   0.55951   0.57779   0.57843   0.58793
 Alpha virt. eigenvalues --    0.60271   0.61911   0.62077   0.62507   0.63233
 Alpha virt. eigenvalues --    0.63985   0.64415   0.65906   0.68335   0.68846
 Alpha virt. eigenvalues --    0.70373   0.72637   0.73191   0.73843   0.74706
 Alpha virt. eigenvalues --    0.75591   0.76843   0.77014   0.77515   0.78727
 Alpha virt. eigenvalues --    0.79086   0.79756   0.79988   0.80655   0.80835
 Alpha virt. eigenvalues --    0.82258   0.83490   0.84279   0.85425   0.86494
 Alpha virt. eigenvalues --    0.87838   0.88546   0.89642   0.89858   0.90729
 Alpha virt. eigenvalues --    0.92002   0.94748   0.94906   0.95843   0.96684
 Alpha virt. eigenvalues --    0.98216   1.01243   1.02047   1.02886   1.04516
 Alpha virt. eigenvalues --    1.04831   1.06222   1.06624   1.10059   1.17862
 Alpha virt. eigenvalues --    1.18548   1.21889   1.23407   1.28711   1.30797
 Alpha virt. eigenvalues --    1.32358   1.33169   1.35552   1.36654   1.37100
 Alpha virt. eigenvalues --    1.39213   1.39685   1.40644   1.42116   1.44205
 Alpha virt. eigenvalues --    1.44986   1.45155   1.46838   1.47816   1.48589
 Alpha virt. eigenvalues --    1.49692   1.53116   1.53317   1.55109   1.56410
 Alpha virt. eigenvalues --    1.56482   1.56795   1.57299   1.60785   1.62831
 Alpha virt. eigenvalues --    1.63738   1.64746   1.65242   1.67848   1.69152
 Alpha virt. eigenvalues --    1.70248   1.70617   1.74147   1.76474   1.76714
 Alpha virt. eigenvalues --    1.76775   1.79312   1.79395   1.80042   1.81725
 Alpha virt. eigenvalues --    1.82091   1.83705   1.84563   1.85230   1.85420
 Alpha virt. eigenvalues --    1.87007   1.87693   1.90040   1.91442   1.92138
 Alpha virt. eigenvalues --    1.93566   1.97559   1.98590   1.99136   1.99630
 Alpha virt. eigenvalues --    2.04293   2.08400   2.09040   2.11284   2.14583
 Alpha virt. eigenvalues --    2.16431   2.17218   2.18629   2.21671   2.22683
 Alpha virt. eigenvalues --    2.25517   2.30929   2.31013   2.33210   2.35205
 Alpha virt. eigenvalues --    2.38648   2.39100   2.40421   2.42287   2.44509
 Alpha virt. eigenvalues --    2.45502   2.47637   2.52377   2.53259   2.55938
 Alpha virt. eigenvalues --    2.56076   2.57825   2.58272   2.60380   2.60568
 Alpha virt. eigenvalues --    2.61484   2.62084   2.63636   2.64489   2.64530
 Alpha virt. eigenvalues --    2.65214   2.66285   2.67372   2.68420   2.70550
 Alpha virt. eigenvalues --    2.70707   2.73947   2.74238   2.74344   2.76199
 Alpha virt. eigenvalues --    2.76339   2.78974   2.81506   2.84529   2.86161
 Alpha virt. eigenvalues --    2.86783   2.92184   2.96661   2.98911   3.00687
 Alpha virt. eigenvalues --    3.02327   3.03550   3.06683   3.11553   3.13674
 Alpha virt. eigenvalues --    3.16233   3.23236   3.28183   3.31973   3.32119
 Alpha virt. eigenvalues --    3.35746   3.42654   3.48407   3.50286   3.52039
 Alpha virt. eigenvalues --    3.54415   3.57337   3.62911   3.70571   3.73552
 Alpha virt. eigenvalues --    3.87856   3.88911   3.90934   3.95485   4.00922
 Alpha virt. eigenvalues --    4.02920   4.07521   4.11165   4.31277   4.49319
 Alpha virt. eigenvalues --    4.57148   4.61970  23.42943  23.53864  23.63497
 Alpha virt. eigenvalues --   23.64568  23.67952  23.84781  23.88238  23.92448
 Alpha virt. eigenvalues --   24.05012  24.16310  24.23434  24.27521  24.49536
 Alpha virt. eigenvalues --   24.69517
          Condensed to atoms (all electrons):
               1          2          3          4          5          6
     1  C    7.791215   1.127987  -0.603611   1.092127  -0.241958  -0.070181
     2  C    1.127987   6.945319   0.618839  -0.329146  -0.155370  -0.017948
     3  C   -0.603611   0.618839   7.119833   0.244076  -0.000441   0.024524
     4  C    1.092127  -0.329146   0.244076   8.071587   0.043300  -0.016680
     5  C   -0.241958  -0.155370  -0.000441   0.043300   8.298965   0.460190
     6  C   -0.070181  -0.017948   0.024524  -0.016680   0.460190   6.223095
     7  C    0.018579   0.019864  -0.034794  -0.115942  -0.402126   0.386888
     8  C    0.159689  -0.043411  -0.138849   0.203060   1.490987  -0.771133
     9  C   -0.603253  -0.211660   0.058907  -0.798321  -0.720105  -0.050683
    10  C   -0.839453  -0.325200   0.128284  -1.653622  -0.822543  -0.145995
    11  C    0.519206  -0.230938  -0.266523  -0.580001  -1.799533  -0.069448
    12  C   -1.678712  -0.750757  -1.236846   0.077411   0.883201  -0.228818
    13  C    0.285392  -0.165564  -0.401501  -0.047384  -1.615372   0.379633
    14  C   -1.300527  -0.438195   0.536939  -0.697233   0.373059  -0.088605
    15  H    0.362470  -0.076647  -0.004949   0.008078   0.006073   0.000619
    16  H   -0.007048   0.375441  -0.037268   0.029997  -0.002638  -0.000280
    17  H    0.001146  -0.032123   0.394075  -0.047804   0.000701   0.000379
    18  H    0.032787   0.013975  -0.091973   0.432157   0.007573  -0.003805
    19  H   -0.026573  -0.001666   0.063221  -0.021899  -0.059557   0.041033
    20  H    0.001364   0.000198  -0.002606   0.018025   0.403219  -0.082395
    21  H   -0.001155  -0.000378   0.000497   0.000424  -0.051885   0.386201
    22  H   -0.000557   0.000127  -0.000375  -0.001010   0.015034  -0.015828
    23  H    0.000130  -0.002596   0.001558   0.004273   0.012273   0.010154
    24  H    0.039270   0.013875  -0.000956  -0.000372  -0.017883  -0.000522
    25  H    0.039270   0.013875  -0.000956  -0.000372  -0.017883  -0.000522
               7          8          9         10         11         12
     1  C    0.018579   0.159689  -0.603253  -0.839453   0.519206  -1.678712
     2  C    0.019864  -0.043411  -0.211660  -0.325200  -0.230938  -0.750757
     3  C   -0.034794  -0.138849   0.058907   0.128284  -0.266523  -1.236846
     4  C   -0.115942   0.203060  -0.798321  -1.653622  -0.580001   0.077411
     5  C   -0.402126   1.490987  -0.720105  -0.822543  -1.799533   0.883201
     6  C    0.386888  -0.771133  -0.050683  -0.145995  -0.069448  -0.228818
     7  C    6.681756   0.691859  -0.335428   0.018569   0.109579  -0.371081
     8  C    0.691859   8.974150  -2.081603  -0.744667  -0.638511  -0.100838
     9  C   -0.335428  -2.081603   7.841456   0.999816   1.213144  -0.939313
    10  C    0.018569  -0.744667   0.999816   7.259269   0.707696   0.193888
    11  C    0.109579  -0.638511   1.213144   0.707696  11.840736  -2.880689
    12  C   -0.371081  -0.100838  -0.939313   0.193888  -2.880689  14.861688
    13  C   -0.701016  -0.758921   0.453801   0.182434   0.504170  -1.917606
    14  C    0.100761  -0.741745   0.873464   0.844450  -1.782291  -0.216033
    15  H   -0.002429   0.004761   0.021158  -0.002567  -0.030019   0.073431
    16  H    0.000510   0.002639   0.004464  -0.014204   0.040969  -0.044088
    17  H   -0.000397  -0.002117  -0.000151   0.010395  -0.017386   0.035863
    18  H    0.001779   0.014815  -0.028899   0.018908  -0.025642   0.002716
    19  H   -0.006341  -0.063469   0.073473   0.410994   0.070041  -0.223947
    20  H    0.004163   0.053527  -0.026387   0.038087  -0.022255   0.031042
    21  H   -0.026155  -0.020547   0.002744   0.002021  -0.002188  -0.002987
    22  H    0.380750  -0.018677  -0.006899  -0.004673  -0.002435  -0.000951
    23  H   -0.072365   0.296777   0.073866  -0.003168  -0.008438   0.000943
    24  H    0.010422  -0.003571   0.366593   0.005873   0.028616  -0.046468
    25  H    0.010422  -0.003571   0.366593   0.005873   0.028616  -0.046468
              13         14         15         16         17         18
     1  C    0.285392  -1.300527   0.362470  -0.007048   0.001146   0.032787
     2  C   -0.165564  -0.438195  -0.076647   0.375441  -0.032123   0.013975
     3  C   -0.401501   0.536939  -0.004949  -0.037268   0.394075  -0.091973
     4  C   -0.047384  -0.697233   0.008078   0.029997  -0.047804   0.432157
     5  C   -1.615372   0.373059   0.006073  -0.002638   0.000701   0.007573
     6  C    0.379633  -0.088605   0.000619  -0.000280   0.000379  -0.003805
     7  C   -0.701016   0.100761  -0.002429   0.000510  -0.000397   0.001779
     8  C   -0.758921  -0.741745   0.004761   0.002639  -0.002117   0.014815
     9  C    0.453801   0.873464   0.021158   0.004464  -0.000151  -0.028899
    10  C    0.182434   0.844450  -0.002567  -0.014204   0.010395   0.018908
    11  C    0.504170  -1.782291  -0.030019   0.040969  -0.017386  -0.025642
    12  C   -1.917606  -0.216033   0.073431  -0.044088   0.035863   0.002716
    13  C    9.162398   0.408103  -0.023634   0.005124  -0.008547   0.017291
    14  C    0.408103   7.844480   0.007549  -0.016625   0.007700  -0.055652
    15  H   -0.023634   0.007549   0.415271  -0.005627   0.001826   0.000290
    16  H    0.005124  -0.016625  -0.005627   0.396061  -0.005652   0.002294
    17  H   -0.008547   0.007700   0.001826  -0.005652   0.412375  -0.010687
    18  H    0.017291  -0.055652   0.000290   0.002294  -0.010687   0.447019
    19  H    0.016067   0.091164   0.000258  -0.000407   0.001786  -0.003045
    20  H    0.001517  -0.085866  -0.000093   0.000009  -0.000161   0.001516
    21  H    0.032943   0.024837   0.000020  -0.000006   0.000010  -0.000160
    22  H   -0.006097  -0.004778  -0.000076   0.000006  -0.000007   0.000029
    23  H   -0.026668   0.015138   0.000482  -0.000180   0.000003  -0.000025
    24  H   -0.032703  -0.027230  -0.000531   0.000510  -0.000117   0.000005
    25  H   -0.032703  -0.027230  -0.000531   0.000510  -0.000117   0.000005
              19         20         21         22         23         24
     1  C   -0.026573   0.001364  -0.001155  -0.000557   0.000130   0.039270
     2  C   -0.001666   0.000198  -0.000378   0.000127  -0.002596   0.013875
     3  C    0.063221  -0.002606   0.000497  -0.000375   0.001558  -0.000956
     4  C   -0.021899   0.018025   0.000424  -0.001010   0.004273  -0.000372
     5  C   -0.059557   0.403219  -0.051885   0.015034   0.012273  -0.017883
     6  C    0.041033  -0.082395   0.386201  -0.015828   0.010154  -0.000522
     7  C   -0.006341   0.004163  -0.026155   0.380750  -0.072365   0.010422
     8  C   -0.063469   0.053527  -0.020547  -0.018677   0.296777  -0.003571
     9  C    0.073473  -0.026387   0.002744  -0.006899   0.073866   0.366593
    10  C    0.410994   0.038087   0.002021  -0.004673  -0.003168   0.005873
    11  C    0.070041  -0.022255  -0.002188  -0.002435  -0.008438   0.028616
    12  C   -0.223947   0.031042  -0.002987  -0.000951   0.000943  -0.046468
    13  C    0.016067   0.001517   0.032943  -0.006097  -0.026668  -0.032703
    14  C    0.091164  -0.085866   0.024837  -0.004778   0.015138  -0.027230
    15  H    0.000258  -0.000093   0.000020  -0.000076   0.000482  -0.000531
    16  H   -0.000407   0.000009  -0.000006   0.000006  -0.000180   0.000510
    17  H    0.001786  -0.000161   0.000010  -0.000007   0.000003  -0.000117
    18  H   -0.003045   0.001516  -0.000160   0.000029  -0.000025   0.000005
    19  H    0.459454  -0.010772   0.001219  -0.000576   0.000141   0.000664
    20  H   -0.010772   0.458023  -0.007117   0.002043  -0.001009   0.000262
    21  H    0.001219  -0.007117   0.429812  -0.005465   0.000238  -0.000034
    22  H   -0.000576   0.002043  -0.005465   0.434424  -0.007564   0.000448
    23  H    0.000141  -0.001009   0.000238  -0.007564   0.478645  -0.001645
    24  H    0.000664   0.000262  -0.000034   0.000448  -0.001645   0.480558
    25  H    0.000664   0.000262  -0.000034   0.000448  -0.001645  -0.075078
              25
     1  C    0.039270
     2  C    0.013875
     3  C   -0.000956
     4  C   -0.000372
     5  C   -0.017883
     6  C   -0.000522
     7  C    0.010422
     8  C   -0.003571
     9  C    0.366593
    10  C    0.005873
    11  C    0.028616
    12  C   -0.046468
    13  C   -0.032703
    14  C   -0.027230
    15  H   -0.000531
    16  H    0.000510
    17  H   -0.000117
    18  H    0.000005
    19  H    0.000664
    20  H    0.000262
    21  H   -0.000034
    22  H    0.000448
    23  H   -0.001645
    24  H   -0.075078
    25  H    0.480558
 Mulliken charges:
               1
     1  C   -0.097604
     2  C   -0.347900
     3  C   -0.369102
     4  C    0.085271
     5  C   -0.087282
     6  C   -0.349872
     7  C   -0.367825
     8  C    0.239367
     9  C   -0.546776
    10  C   -0.270465
    11  C   -0.706478
    12  C    0.525419
    13  C    0.288842
    14  C    0.354365
    15  H    0.244818
    16  H    0.275489
    17  H    0.259005
    18  H    0.226729
    19  H    0.188073
    20  H    0.225406
    21  H    0.237146
    22  H    0.242657
    23  H    0.230681
    24  H    0.260017
    25  H    0.260017
 Sum of Mulliken charges =   1.00000
 Mulliken charges with hydrogens summed into heavy atoms:
               1
     1  C    0.147214
     2  C   -0.072411
     3  C   -0.110097
     4  C    0.312001
     5  C    0.138124
     6  C   -0.112726
     7  C   -0.125169
     8  C    0.470048
     9  C   -0.026742
    10  C   -0.082392
    11  C   -0.706478
    12  C    0.525419
    13  C    0.288842
    14  C    0.354365
 Electronic spatial extent (au):  <R**2>=           2860.2239
 Charge=              1.0000 electrons
 Dipole moment (field-independent basis, Debye):
    X=             -1.9211    Y=             -3.6601    Z=              0.0000  Tot=              4.1336
 Quadrupole moment (field-independent basis, Debye-Ang):
   XX=            -52.9769   YY=            -32.6142   ZZ=            -84.0181
   XY=              9.5185   XZ=             -0.0000   YZ=              0.0000
 Traceless Quadrupole moment (field-independent basis, Debye-Ang):
   XX=              3.5595   YY=             23.9222   ZZ=            -27.4817
   XY=              9.5185   XZ=             -0.0000   YZ=              0.0000
 Octapole moment (field-independent basis, Debye-Ang**2):
  XXX=            -12.7488  YYY=            -30.3953  ZZZ=             -0.0000  XYY=            -12.2866
  XXY=            -17.5398  XXZ=              0.0000  XZZ=             -5.4236  YZZ=             -4.6427
  YYZ=              0.0000  XYZ=             -0.0000
 Hexadecapole moment (field-independent basis, Debye-Ang**3):
 XXXX=           -879.9532 YYYY=          -1922.8445 ZZZZ=            -99.2425 XXXY=           -302.5716
 XXXZ=             -0.0000 YYYX=           -222.2551 YYYZ=              0.0000 ZZZX=              0.0000
 ZZZY=             -0.0000 XXYY=           -460.1423 XXZZ=           -214.8962 YYZZ=           -520.0061
 XXYZ=              0.0000 YYXZ=             -0.0000 ZZXY=           -159.5069
 N-N= 7.816807325670D+02 E-N=-2.799949937959D+03  KE= 5.379917244783D+02
 Symmetry A'   KE= 5.232212489746D+02
 Symmetry A"   KE= 1.477047550366D+01
 Unable to Open any file for archive entry.
 1\1\GINC-GADI-CPU-CLX-0240\SP\RM062X TD-FC\6-311++G(d,p)\C14H11(1+)\TS
 1578\02-Aug-2022\0\\#n M062X/6-311++G(d,p) TD(NStates=1) EmpiricalDisp
 ersion=GD3 SP\\SP_6\\1,1\C,0,0.,2.448655,1.404431\C,0,0.,3.613508,0.60
 3989\C,0,0.,3.597861,-0.83383\C,0,0.,2.535156,-1.419538\C,0,0.,-2.3911
 56,-1.395538\C,0,0.,-3.769861,-0.59383\C,0,0.,-3.789508,0.739989\C,0,0
 .,-2.536655,1.316431\C,0,0.,-0.064,1.453369\C,0,0.,0.198,-1.429189\C,0
 ,0.,1.340055,0.827065\C,0,0.,1.275471,-0.660804\C,0,0.,-1.184055,0.527
 065\C,0,0.,-1.199471,-0.800804\H,0,0.,2.566071,2.487647\H,0,0.,4.57675
 3,1.101689\H,0,0.,4.547262,-1.344349\H,0,0.,2.41755,-2.502059\H,0,0.,0
 .274,-2.510266\H,0,0.,-2.51755,-2.478059\H,0,0.,-4.671262,-1.200349\H,
 0,0.,-4.696753,1.321689\H,0,0.,-2.410071,2.399647\H,0,-0.859585,-0.36,
 2.145787\H,0,0.859585,-0.36,2.145787\\Version=ES64L-G16RevC.01\State=1
 -A'\HF=-539.6074828\RMSD=3.160e-09\PG=CS [SG(C14H9),X(H2)]\\@
 The archive entry for this job was punched.


 Sacred cows make the best hamburger.
                               -- Mark Twain
 Job cpu time:       0 days  0 hours 52 minutes 46.4 seconds.
 Elapsed time:       0 days  0 hours  1 minutes  6.1 seconds.
 File lengths (MBytes):  RWF=    459 Int=      0 D2E=      0 Chk=     15 Scr=      1
 Normal termination of Gaussian 16 at Tue Aug  2 13:05:14 2022.
