 Entering Gaussian System, Link 0=g16
 Initial command:
 /apps/gaussian/g16c01/g16/l1.exe "/jobfs/52815815.gadi-pbs/Gau-2069495.inp" -scrdir="/jobfs/52815815.gadi-pbs/"
 Entering Link 1 = /apps/gaussian/g16c01/g16/l1.exe PID=   2069508.
  
 Copyright (c) 1988-2019, Gaussian, Inc.  All Rights Reserved.
  
 This is part of the Gaussian(R) 16 program.  It is based on
 the Gaussian(R) 09 system (copyright 2009, Gaussian, Inc.),
 the Gaussian(R) 03 system (copyright 2003, Gaussian, Inc.),
 the Gaussian(R) 98 system (copyright 1998, Gaussian, Inc.),
 the Gaussian(R) 94 system (copyright 1995, Gaussian, Inc.),
 the Gaussian 92(TM) system (copyright 1992, Gaussian, Inc.),
 the Gaussian 90(TM) system (copyright 1990, Gaussian, Inc.),
 the Gaussian 88(TM) system (copyright 1988, Gaussian, Inc.),
 the Gaussian 86(TM) system (copyright 1986, Carnegie Mellon
 University), and the Gaussian 82(TM) system (copyright 1983,
 Carnegie Mellon University). Gaussian is a federally registered
 trademark of Gaussian, Inc.
  
 This software contains proprietary and confidential information,
 including trade secrets, belonging to Gaussian, Inc.
  
 This software is provided under written license and may be
 used, copied, transmitted, or stored only in accord with that
 written license.
  
 The following legend is applicable only to US Government
 contracts under FAR:
  
                    RESTRICTED RIGHTS LEGEND
  
 Use, reproduction and disclosure by the US Government is
 subject to restrictions as set forth in subparagraphs (a)
 and (c) of the Commercial Computer Software - Restricted
 Rights clause in FAR 52.227-19.
  
 Gaussian, Inc.
 340 Quinnipiac St., Bldg. 40, Wallingford CT 06492
  
  
 ---------------------------------------------------------------
 Warning -- This program may not be used in any manner that
 competes with the business of Gaussian, Inc. or will provide
 assistance to any competitor of Gaussian, Inc.  The licensee
 of this program is prohibited from giving any competitor of
 Gaussian, Inc. access to this program.  By using this program,
 the user acknowledges that Gaussian, Inc. is engaged in the
 business of creating and licensing software in the field of
 computational chemistry and represents and warrants to the
 licensee that it is not a competitor of Gaussian, Inc. and that
 it will not use this program in any manner prohibited above.
 ---------------------------------------------------------------
  

 Cite this work as:
 Gaussian 16, Revision C.01,
 M. J. Frisch, G. W. Trucks, H. B. Schlegel, G. E. Scuseria, 
 M. A. Robb, J. R. Cheeseman, G. Scalmani, V. Barone, 
 G. A. Petersson, H. Nakatsuji, X. Li, M. Caricato, A. V. Marenich, 
 J. Bloino, B. G. Janesko, R. Gomperts, B. Mennucci, H. P. Hratchian, 
 J. V. Ortiz, A. F. Izmaylov, J. L. Sonnenberg, D. Williams-Young, 
 F. Ding, F. Lipparini, F. Egidi, J. Goings, B. Peng, A. Petrone, 
 T. Henderson, D. Ranasinghe, V. G. Zakrzewski, J. Gao, N. Rega, 
 G. Zheng, W. Liang, M. Hada, M. Ehara, K. Toyota, R. Fukuda, 
 J. Hasegawa, M. Ishida, T. Nakajima, Y. Honda, O. Kitao, H. Nakai, 
 T. Vreven, K. Throssell, J. A. Montgomery, Jr., J. E. Peralta, 
 F. Ogliaro, M. J. Bearpark, J. J. Heyd, E. N. Brothers, K. N. Kudin, 
 V. N. Staroverov, T. A. Keith, R. Kobayashi, J. Normand, 
 K. Raghavachari, A. P. Rendell, J. C. Burant, S. S. Iyengar, 
 J. Tomasi, M. Cossi, J. M. Millam, M. Klene, C. Adamo, R. Cammi, 
 J. W. Ochterski, R. L. Martin, K. Morokuma, O. Farkas, 
 J. B. Foresman, and D. J. Fox, Gaussian, Inc., Wallingford CT, 2019.
 
 ******************************************
 Gaussian 16:  ES64L-G16RevC.01  3-Jul-2019
                27-Jul-2022 
 ******************************************
 %NProcShared=32
 Will use up to   32 processors via shared memory.
 %mem = 128GB
 ---------------------------------------------------------------
 #n M062X/6-311++G(d,p) TD(NStates=1) EmpiricalDispersion=GD3 SP
 ---------------------------------------------------------------
 1/38=1,172=1/1;
 2/12=2,17=6,18=5,40=1/2;
 3/5=4,6=6,7=1111,11=9,25=1,30=1,74=-55,124=31/1,2,3,8;
 4//1;
 5/5=2,38=5/2;
 8/6=1,10=2,108=1/1;
 9/41=1,42=1,70=2/14;
 6/7=2,8=2,9=2,10=2/1;
 99/5=1,9=1/99;
 ----
 SP_2
 ----
 Symbolic Z-matrix:
 Charge =  1 Multiplicity = 1
 C                     0.        2.46066   1.36243 
 C                     0.        3.63551   0.64599 
 C                     0.        3.65286  -0.76383 
 C                     0.        2.52716  -1.43754 
 C                     0.       -2.39916  -1.37754 
 C                     0.       -3.71486  -0.66383 
 C                     0.       -3.76751   0.69799 
 C                     0.       -2.52466   1.35843 
 C                     0.       -0.04      1.45337 
 C                     0.        0.055    -1.42919 
 C                     0.        1.29906   0.68007 
 C                     0.        1.28247  -0.6978 
 C                     0.       -1.22506   0.67407 
 C                     0.       -1.19247  -0.7638 
 H                     0.        2.41107   2.44365 
 H                     0.        4.55075   1.22069 
 H                     0.        4.57826  -1.31835 
 H                     0.        2.56455  -2.51806 
 H                     0.        0.105    -2.51027 
 H                     0.       -2.37055  -2.46206 
 H                     0.       -4.64026  -1.22635 
 H                     0.       -4.72275   1.20269 
 H                     0.       -2.56507   2.44365 
 H                    -0.85959  -0.184     2.14579 
 H                     0.85959  -0.184     2.14579 
 
                          Input orientation:                          
 ---------------------------------------------------------------------
 Center     Atomic      Atomic             Coordinates (Angstroms)
 Number     Number       Type             X           Y           Z
 ---------------------------------------------------------------------
      1          6           0        0.000000    2.460655    1.362431
      2          6           0        0.000000    3.635508    0.645989
      3          6           0        0.000000    3.652861   -0.763830
      4          6           0        0.000000    2.527156   -1.437538
      5          6           0        0.000000   -2.399156   -1.377538
      6          6           0        0.000000   -3.714861   -0.663830
      7          6           0        0.000000   -3.767508    0.697989
      8          6           0        0.000000   -2.524655    1.358431
      9          6           0        0.000000   -0.040000    1.453369
     10          6           0        0.000000    0.055000   -1.429189
     11          6           0        0.000000    1.299055    0.680065
     12          6           0        0.000000    1.282471   -0.697804
     13          6           0        0.000000   -1.225055    0.674065
     14          6           0        0.000000   -1.192471   -0.763804
     15          1           0        0.000000    2.411071    2.443647
     16          1           0        0.000000    4.550753    1.220689
     17          1           0        0.000000    4.578262   -1.318349
     18          1           0        0.000000    2.564550   -2.518059
     19          1           0        0.000000    0.105000   -2.510266
     20          1           0        0.000000   -2.370550   -2.462059
     21          1           0        0.000000   -4.640262   -1.226349
     22          1           0        0.000000   -4.722753    1.202689
     23          1           0        0.000000   -2.565071    2.443647
     24          1           0       -0.859585   -0.184000    2.145787
     25          1           0        0.859585   -0.184000    2.145787
 ---------------------------------------------------------------------
                    Distance matrix (angstroms):
                    1          2          3          4          5
     1  C    0.000000
     2  C    1.376070   0.000000
     3  C    2.437692   1.409926   0.000000
     4  C    2.800759   2.359985   1.311905   0.000000
     5  C    5.578996   6.364891   6.083054   4.926677   0.000000
     6  C    6.499441   7.466160   7.368401   6.289785   1.496816
     7  C    6.263505   7.403199   7.562988   6.647050   2.486001
     8  C    4.985312   6.201224   6.531898   5.773927   2.738846
     9  C    2.502308   3.763140   4.307342   3.866217   3.685058
    10  C    3.685148   4.138406   3.658867   2.472170   2.454699
    11  C    1.347196   2.336701   2.761383   2.447953   4.232079
    12  C    2.373328   2.709716   2.371309   1.447911   3.743850
    13  C    3.749441   4.860644   5.085431   4.305573   2.363808
    14  C    4.226843   5.029602   4.845332   3.780151   1.353794
    15  H    1.082352   2.175045   3.439470   3.882921   6.143268
    16  H    2.094899   1.080719   2.178193   3.340826   7.419705
    17  H    3.416261   2.178855   1.078823   2.054566   6.977669
    18  H    3.881881   3.340382   2.064398   1.081168   5.093051
    19  H    4.532868   4.735655   3.954410   2.649072   2.748430
    20  H    6.161758   6.762595   6.258232   5.003715   1.084898
    21  H    7.558095   8.484929   8.306011   7.170529   2.246200
    22  H    7.185184   8.376780   8.603378   7.715697   3.472272
    23  H    5.140715   6.455908   6.996470   6.402685   3.824785
    24  H    2.889071   4.192484   4.891448   4.574874   4.249661
    25  H    2.889071   4.192484   4.891448   4.574874   4.249661
                    6          7          8          9         10
     6  C    0.000000
     7  C    1.362836   0.000000
     8  C    2.346514   1.407433   0.000000
     9  C    4.241124   3.803277   2.486468   0.000000
    10  C    3.846768   4.374523   3.798084   2.884123   0.000000
    11  C    5.190897   5.066595   3.883418   1.546308   2.448801
    12  C    4.997447   5.239325   4.326929   2.525168   1.428849
    13  C    2.826499   2.542566   1.468781   1.418334   2.462157
    14  C    2.524370   2.961023   2.505713   2.498809   1.413832
    15  H    6.869021   6.420449   5.053621   2.643558   4.533203
    16  H    8.477723   8.334667   7.076749   4.596646   5.218587
    17  H    8.318911   8.585889   7.590559   5.386164   4.524620
    18  H    6.547455   7.101966   6.397436   4.749307   2.735595
    19  H    4.242719   5.028839   4.677810   3.966286   1.082233
    20  H    2.245173   3.455054   3.823597   4.556538   2.636307
    21  H    1.082956   2.113002   3.340192   5.323843   4.699641
    22  H    2.121259   1.080377   2.203608   4.689458   5.454696
    23  H    3.313371   2.119711   1.085968   2.712312   4.675856
    24  H    4.593453   3.959360   2.614858   1.113133   3.684625
    25  H    4.593453   3.959360   2.614858   1.113133   3.684625
                   11         12         13         14         15
    11  C    0.000000
    12  C    1.377969   0.000000
    13  C    2.524117   2.858271   0.000000
    14  C    2.879663   2.475822   1.438238   0.000000
    15  H    2.084898   3.338031   4.043864   4.824236   0.000000
    16  H    3.296333   3.789760   5.801617   6.076416   2.464521
    17  H    3.840164   3.353702   6.135813   5.797317   4.341582
    18  H    3.439400   2.226444   4.954873   4.146398   4.964079
    19  H    3.406461   2.161355   3.450943   2.175675   5.464359
    20  H    4.831040   4.056742   3.338777   2.066867   6.850537
    21  H    6.237780   5.946270   3.908352   3.478679   7.949224
    22  H    6.044444   6.298777   3.537419   4.041038   7.240954
    23  H    4.247551   4.967121   2.219699   3.488807   4.976142
    24  H    2.255367   3.312919   1.997160   3.197127   2.749909
    25  H    2.255367   3.312919   1.997160   3.197127   2.749909
                   16         17         18         19         20
    16  H    0.000000
    17  H    2.539187   0.000000
    18  H    4.233585   2.344001   0.000000
    19  H    5.803856   4.629335   2.459562   0.000000
    20  H    7.840094   7.042305   4.935418   2.476019   0.000000
    21  H    9.511191   9.218983   7.319688   4.915888   2.584293
    22  H    9.273523   9.636624   8.182222   6.090421   4.354680
    23  H    7.220151   8.073402   7.136634   5.627658   4.909561
    24  H    4.900263   5.951325   5.481320   4.743547   5.172246
    25  H    4.900263   5.951325   5.481320   4.743547   5.172246
                   21         22         23         24         25
    21  H    0.000000
    22  H    2.430438   0.000000
    23  H    4.216075   2.489090   0.000000
    24  H    5.654066   4.714722   2.548942   0.000000
    25  H    5.654066   4.714722   2.548942   1.719170   0.000000
 Stoichiometry    C14H11(1+)
 Framework group  CS[SG(C14H9),X(H2)]
 Deg. of freedom    46
 Full point group                 CS      NOp   2
 Largest Abelian subgroup         CS      NOp   2
 Largest concise Abelian subgroup CS      NOp   2
                         Standard orientation:                         
 ---------------------------------------------------------------------
 Center     Atomic      Atomic             Coordinates (Angstroms)
 Number     Number       Type             X           Y           Z
 ---------------------------------------------------------------------
      1          6           0       -2.381602   -1.499153    0.000000
      2          6           0       -2.321088   -2.873891    0.000000
      3          6           0       -1.094680   -3.569460    0.000000
      4          6           0        0.038641   -2.908645    0.000000
      5          6           0        2.363499    1.434993    0.000000
      6          6           0        2.373353    2.931777    0.000000
      7          6           0        1.206018    3.635093    0.000000
      8          6           0        0.027781    2.865272    0.000000
      9          6           0       -1.254449    0.734918    0.000000
     10          6           0        1.224376   -0.739392    0.000000
     11          6           0       -1.223375   -0.811077    0.000000
     12          6           0       -0.008573   -1.461504    0.000000
     13          6           0        0.000000    1.396754    0.000000
     14          6           0        1.243624    0.674309    0.000000
     15          1           0       -3.304650   -0.933936    0.000000
     16          1           0       -3.266127   -3.398157    0.000000
     17          1           0       -1.055601   -4.647574    0.000000
     18          1           0        0.966963   -3.462849    0.000000
     19          1           0        2.147102   -1.304905    0.000000
     20          1           0        3.299565    0.886555    0.000000
     21          1           0        3.312625    3.470816    0.000000
     22          1           0        1.224975    4.715304    0.000000
     23          1           0       -0.903195    3.424389    0.000000
     24          1           0       -1.791406    1.195196    0.859585
     25          1           0       -1.791406    1.195196   -0.859585
 ---------------------------------------------------------------------
 Rotational constants (GHZ):           2.1374355           0.4443224           0.3686535
 Standard basis: 6-311++G(d,p) (5D, 7F)
 There are   299 symmetry adapted cartesian basis functions of A'  symmetry.
 There are   100 symmetry adapted cartesian basis functions of A"  symmetry.
 There are   285 symmetry adapted basis functions of A'  symmetry.
 There are   100 symmetry adapted basis functions of A"  symmetry.
   385 basis functions,   603 primitive gaussians,   399 cartesian basis functions
    47 alpha electrons       47 beta electrons
       nuclear repulsion energy       781.4471174154 Hartrees.
 NAtoms=   25 NActive=   25 NUniq=   24 SFac= 1.09D+00 NAtFMM=   60 NAOKFM=F Big=F
 Integral buffers will be    131072 words long.
 Regular integral format.
 Two-electron integral symmetry is turned on.
 Nuclear repulsion after empirical dispersion term =      781.4461405608 Hartrees.
 One-electron integrals computed using PRISM.
 NBasis=   385 RedAO= T EigKep=  1.10D-06  NBF=   285   100
 NBsUse=   379 1.00D-06 EigRej=  7.98D-07 NBFU=   279   100
 ExpMin= 3.60D-02 ExpMax= 4.56D+03 ExpMxC= 6.82D+02 IAcc=3 IRadAn=         5 AccDes= 0.00D+00
 Harris functional with IExCor= 1009 and IRadAn=       5 diagonalized for initial guess.
 HarFok:  IExCor= 1009 AccDes= 0.00D+00 IRadAn=         5 IDoV= 1 UseB2=F ITyADJ=14
 ICtDFT=  3500011 ScaDFX=  1.000000  1.000000  1.000000  1.000000
 FoFCou: FMM=F IPFlag=           0 FMFlag=      100000 FMFlg1=           0
         NFxFlg=           0 DoJE=T BraDBF=F KetDBF=T FulRan=T
         wScrn=  0.000000 ICntrl=       500 IOpCl=  0 I1Cent=   200000004 NGrid=           0
         NMat0=    1 NMatS0=      1 NMatT0=    0 NMatD0=    1 NMtDS0=    0 NMtDT0=    0
 Petite list used in FoFCou.
 Initial guess orbital symmetries:
       Occupied  (A') (A') (A') (A') (A') (A') (A') (A') (A') (A')
                 (A') (A') (A') (A') (A') (A') (A') (A') (A') (A')
                 (A') (A') (A') (A') (A') (A') (A') (A') (A') (A')
                 (A') (A') (A") (A') (A') (A') (A') (A') (A") (A')
                 (A') (A") (A') (A") (A") (A") (A")
       Virtual   (A") (A") (A") (A") (A") (A') (A') (A') (A') (A")
                 (A') (A") (A') (A') (A") (A') (A') (A') (A') (A')
                 (A") (A") (A') (A') (A") (A') (A') (A') (A") (A')
                 (A') (A') (A') (A") (A') (A') (A') (A") (A') (A')
                 (A") (A') (A") (A') (A') (A') (A') (A') (A') (A")
                 (A') (A") (A') (A") (A') (A') (A') (A") (A") (A')
                 (A') (A') (A') (A') (A') (A") (A') (A') (A') (A")
                 (A') (A') (A') (A') (A') (A') (A') (A') (A') (A')
                 (A') (A') (A') (A') (A') (A') (A') (A') (A') (A')
                 (A') (A') (A') (A') (A') (A') (A") (A') (A") (A')
                 (A') (A") (A') (A") (A') (A") (A') (A") (A") (A")
                 (A') (A') (A') (A') (A") (A') (A') (A") (A") (A')
                 (A") (A") (A') (A') (A') (A") (A') (A') (A') (A")
                 (A') (A') (A') (A') (A') (A') (A") (A') (A') (A')
                 (A') (A') (A') (A') (A') (A') (A') (A") (A') (A')
                 (A") (A') (A") (A') (A") (A') (A") (A') (A') (A")
                 (A") (A') (A") (A") (A") (A') (A') (A') (A') (A')
                 (A") (A') (A') (A') (A') (A") (A') (A') (A') (A')
                 (A") (A') (A") (A') (A') (A') (A") (A') (A") (A")
                 (A") (A') (A') (A') (A") (A') (A') (A") (A') (A')
                 (A") (A") (A") (A') (A') (A") (A') (A") (A') (A')
                 (A") (A') (A") (A') (A") (A') (A") (A') (A') (A')
                 (A") (A') (A') (A') (A") (A') (A') (A') (A") (A")
                 (A') (A') (A') (A") (A') (A') (A") (A') (A") (A')
                 (A") (A') (A') (A') (A') (A") (A') (A') (A') (A")
                 (A') (A') (A') (A") (A") (A') (A') (A") (A') (A')
                 (A') (A') (A") (A') (A") (A') (A") (A') (A") (A')
                 (A') (A') (A') (A") (A') (A') (A") (A') (A") (A')
                 (A") (A') (A") (A') (A") (A") (A') (A') (A') (A')
                 (A') (A') (A') (A') (A') (A') (A') (A') (A') (A')
                 (A') (A') (A') (A') (A") (A') (A') (A') (A') (A')
                 (A') (A') (A') (A') (A') (A') (A') (A') (A') (A')
                 (A') (A') (A') (A') (A') (A') (A') (A') (A') (A')
                 (A') (A')
 The electronic state of the initial guess is 1-A'.
 Requested convergence on RMS density matrix=1.00D-08 within 128 cycles.
 Requested convergence on MAX density matrix=1.00D-06.
 Requested convergence on             energy=1.00D-06.
 No special actions if energy rises.
 SCF Done:  E(RM062X) =  -539.720010288     A.U. after   16 cycles
            NFock= 16  Conv=0.41D-08     -V/T= 2.0039
 DoSCS=F DFT=T ScalE2(SS,OS)=  1.000000  1.000000
 ExpMin= 3.60D-02 ExpMax= 4.56D+03 ExpMxC= 6.82D+02 IAcc=3 IRadAn=         5 AccDes= 0.00D+00
 HarFok:  IExCor=  205 AccDes= 0.00D+00 IRadAn=         5 IDoV=-2 UseB2=F ITyADJ=14
 ICtDFT= 12500011 ScaDFX=  1.000000  1.000000  1.000000  1.000000
 Range of M.O.s used for correlation:    15   379
 NBasis=   385 NAE=    47 NBE=    47 NFC=    14 NFV=     0
 NROrb=    365 NOA=    33 NOB=    33 NVA=   332 NVB=   332

 **** Warning!!: The largest alpha MO coefficient is  0.14278845D+03

 Orbital symmetries:
       Occupied  (A') (A') (A') (A') (A') (A') (A') (A') (A') (A')
                 (A') (A') (A') (A') (A') (A') (A') (A') (A') (A')
                 (A') (A') (A') (A') (A') (A') (A') (A') (A') (A')
                 (A') (A") (A') (A') (A') (A') (A') (A") (A") (A')
                 (A') (A') (A') (A") (A") (A") (A")
       Virtual   (A") (A") (A") (A") (A') (A') (A') (A') (A") (A')
                 (A') (A") (A') (A') (A") (A') (A") (A') (A') (A')
                 (A") (A") (A') (A') (A') (A") (A') (A') (A") (A')
                 (A") (A') (A") (A') (A') (A') (A') (A') (A") (A')
                 (A") (A') (A') (A") (A") (A') (A") (A') (A") (A')
                 (A') (A') (A') (A') (A') (A") (A') (A') (A') (A')
                 (A') (A") (A') (A') (A') (A") (A') (A') (A') (A')
                 (A') (A') (A') (A') (A') (A') (A') (A') (A') (A')
                 (A') (A') (A') (A') (A') (A') (A') (A') (A') (A')
                 (A') (A') (A') (A') (A") (A") (A') (A") (A') (A")
                 (A') (A') (A') (A') (A") (A") (A') (A") (A') (A")
                 (A') (A") (A') (A') (A') (A") (A') (A") (A') (A")
                 (A") (A') (A") (A') (A') (A") (A') (A') (A') (A')
                 (A') (A') (A') (A') (A') (A') (A') (A') (A') (A')
                 (A') (A') (A') (A") (A') (A') (A') (A') (A') (A')
                 (A') (A") (A') (A') (A") (A') (A") (A") (A') (A")
                 (A") (A') (A") (A') (A') (A") (A") (A") (A') (A')
                 (A') (A") (A') (A') (A') (A") (A') (A') (A') (A")
                 (A') (A') (A') (A") (A') (A') (A") (A") (A') (A")
                 (A") (A') (A') (A") (A') (A") (A') (A') (A') (A')
                 (A") (A") (A") (A') (A") (A') (A') (A") (A') (A')
                 (A') (A") (A") (A') (A') (A") (A') (A') (A") (A")
                 (A') (A') (A') (A') (A") (A') (A') (A") (A') (A")
                 (A') (A') (A') (A") (A') (A') (A') (A") (A") (A')
                 (A") (A') (A') (A") (A') (A') (A') (A') (A') (A')
                 (A") (A') (A') (A') (A') (A") (A") (A') (A") (A')
                 (A') (A') (A') (A') (A') (A") (A') (A') (A') (A')
                 (A') (A") (A') (A") (A") (A") (A') (A") (A') (A")
                 (A') (A") (A") (A') (A") (A") (A') (A') (A') (A')
                 (A') (A') (A') (A') (A') (A') (A') (A') (A') (A')
                 (A') (A') (A') (A') (A") (A') (A') (A') (A') (A')
                 (A') (A') (A') (A') (A') (A') (A') (A') (A') (A')
                 (A') (A') (A') (A') (A') (A') (A') (A') (A') (A')
                 (A') (A')
     4 initial guesses have been made.
 Convergence on wavefunction:    0.001000000000000
 Iteration     1 Dimension     4 NMult     0 NNew      4
 CISAX will form     4 AO SS matrices at one time.
 Iteration     2 Dimension     6 NMult     4 NNew      2
 Iteration     3 Dimension     8 NMult     6 NNew      2
 Iteration     4 Dimension    10 NMult     8 NNew      2
 Iteration     5 Dimension    12 NMult    10 NNew      2
 Iteration     6 Dimension    14 NMult    12 NNew      2
 ***********************************************************************
 Excited states from <AA,BB:AA,BB> singles matrix:
 ***********************************************************************
 
 Ground to excited state transition densities written to RWF  633
 Ground to excited state transition electric dipole moments (Au):
       state          X           Y           Z        Dip. S.      Osc.
         1        -0.3575      0.4977      0.0000      0.3756      0.0222
 Ground to excited state transition velocity dipole moments (Au):
       state          X           Y           Z        Dip. S.      Osc.
         1         0.0404     -0.0438     -0.0000      0.0035      0.0267
 Ground to excited state transition magnetic dipole moments (Au):
       state          X           Y           Z
         1        -0.0000     -0.0000     -0.3590
 Ground to excited state transition velocity quadrupole moments (Au):
       state          XX          YY          ZZ          XY          XZ          YZ
         1         0.1645      0.0354     -0.0070      0.1415      0.0000     -0.0000
 <0|del|b> * <b|rxdel|0> + <0|del|b> * <b|delr+rdel|0>
 Rotatory Strengths (R) in cgs (10**-40 erg-esu-cm/Gauss)
       state          XX          YY          ZZ    R(velocity)    E-M Angle
         1         0.0000      0.0000      0.0000      0.0000       90.00
 1/2[<0|r|b>*<b|rxdel|0> + (<0|rxdel|b>*<b|r|0>)*]
 Rotatory Strengths (R) in cgs (10**-40 erg-esu-cm/Gauss)
       state          XX          YY          ZZ     R(length)
         1        -0.0000      0.0000      0.0000      0.0000
  1/2[<0|del|b>*<b|r|0> + (<0|r|b>*<b|del|0>)*] (Au)
       state          X           Y           Z        Dip. S.   Osc.(frdel)
         1        -0.0144     -0.0218     -0.0000      0.0362      0.0241

 Excitation energies and oscillator strengths:
 
 Excited State   1:      Singlet-A'     2.4131 eV  513.80 nm  f=0.0222  <S**2>=0.000
      47 -> 48         0.70358
 This state for optimization and/or second-order correction.
 Total Energy, E(TD-HF/TD-DFT) =  -539.631331263    
 Copying the excited state density for this state as the 1-particle RhoCI density.
 SavETr:  write IOETrn=   770 NScale= 10 NData=  16 NLR=1 NState=    1 LETran=      28.

 **********************************************************************

            Population analysis using the SCF Density.

 **********************************************************************

 Orbital symmetries:
       Occupied  (A') (A') (A') (A') (A') (A') (A') (A') (A') (A')
                 (A') (A') (A') (A') (A') (A') (A') (A') (A') (A')
                 (A') (A') (A') (A') (A') (A') (A') (A') (A') (A')
                 (A') (A") (A') (A') (A') (A') (A') (A") (A") (A')
                 (A') (A') (A') (A") (A") (A") (A")
       Virtual   (A") (A") (A") (A") (A') (A') (A') (A') (A") (A')
                 (A') (A") (A') (A') (A") (A') (A") (A') (A') (A')
                 (A") (A") (A') (A') (A') (A") (A') (A') (A") (A')
                 (A") (A') (A") (A') (A') (A') (A') (A') (A") (A')
                 (A") (A') (A') (A") (A") (A') (A") (A') (A") (A')
                 (A') (A') (A') (A') (A') (A") (A') (A') (A') (A')
                 (A') (A") (A') (A') (A') (A") (A') (A') (A') (A')
                 (A') (A') (A') (A') (A') (A') (A') (A') (A') (A')
                 (A') (A') (A') (A') (A') (A') (A') (A') (A') (A')
                 (A') (A') (A') (A') (A") (A") (A') (A") (A') (A")
                 (A') (A') (A') (A') (A") (A") (A') (A") (A') (A")
                 (A') (A") (A') (A') (A') (A") (A') (A") (A') (A")
                 (A") (A') (A") (A') (A') (A") (A') (A') (A') (A')
                 (A') (A') (A') (A') (A') (A') (A') (A') (A') (A')
                 (A') (A') (A') (A") (A') (A') (A') (A') (A') (A')
                 (A') (A") (A') (A') (A") (A') (A") (A") (A') (A")
                 (A") (A') (A") (A') (A') (A") (A") (A") (A') (A')
                 (A') (A") (A') (A') (A') (A") (A') (A') (A') (A")
                 (A') (A') (A') (A") (A') (A') (A") (A") (A') (A")
                 (A") (A') (A') (A") (A') (A") (A') (A') (A') (A')
                 (A") (A") (A") (A') (A") (A') (A') (A") (A') (A')
                 (A') (A") (A") (A') (A') (A") (A') (A') (A") (A")
                 (A') (A') (A') (A') (A") (A') (A') (A") (A') (A")
                 (A') (A') (A') (A") (A') (A') (A') (A") (A") (A')
                 (A") (A') (A') (A") (A') (A') (A') (A') (A') (A')
                 (A") (A') (A') (A') (A') (A") (A") (A') (A") (A')
                 (A') (A') (A') (A') (A') (A") (A') (A') (A') (A')
                 (A') (A") (A') (A") (A") (A") (A') (A") (A') (A")
                 (A') (A") (A") (A') (A") (A") (A') (A') (A') (A')
                 (A') (A') (A') (A') (A') (A') (A') (A') (A') (A')
                 (A') (A') (A') (A') (A") (A') (A') (A') (A') (A')
                 (A') (A') (A') (A') (A') (A') (A') (A') (A') (A')
                 (A') (A') (A') (A') (A') (A') (A') (A') (A') (A')
                 (A') (A')
 The electronic state is 1-A'.
 Alpha  occ. eigenvalues --  -10.77647 -10.73423 -10.73229 -10.72855 -10.71955
 Alpha  occ. eigenvalues --  -10.71835 -10.71407 -10.71153 -10.71033 -10.70229
 Alpha  occ. eigenvalues --  -10.70133 -10.69829 -10.69787 -10.69250  -1.16821
 Alpha  occ. eigenvalues --   -1.12714  -1.06755  -1.06116  -1.01743  -1.01103
 Alpha  occ. eigenvalues --   -0.95060  -0.90883  -0.86650  -0.85787  -0.83734
 Alpha  occ. eigenvalues --   -0.78129  -0.76390  -0.74154  -0.69651  -0.69376
 Alpha  occ. eigenvalues --   -0.68484  -0.68102  -0.68093  -0.65490  -0.64636
 Alpha  occ. eigenvalues --   -0.62334  -0.61071  -0.60972  -0.58923  -0.58791
 Alpha  occ. eigenvalues --   -0.57226  -0.55130  -0.54222  -0.52379  -0.48242
 Alpha  occ. eigenvalues --   -0.46204  -0.42881
 Alpha virt. eigenvalues --   -0.26096  -0.15064  -0.13892  -0.12590  -0.11195
 Alpha virt. eigenvalues --   -0.10108  -0.09258  -0.07973  -0.07845  -0.07496
 Alpha virt. eigenvalues --   -0.07218  -0.07120  -0.05673  -0.05578  -0.05371
 Alpha virt. eigenvalues --   -0.03905  -0.03686  -0.03382  -0.03119  -0.02139
 Alpha virt. eigenvalues --   -0.01325  -0.01037   0.00142   0.00503   0.00578
 Alpha virt. eigenvalues --    0.01036   0.01490   0.01928   0.01997   0.02207
 Alpha virt. eigenvalues --    0.02464   0.02649   0.02790   0.03219   0.03516
 Alpha virt. eigenvalues --    0.04164   0.04392   0.04658   0.05023   0.05421
 Alpha virt. eigenvalues --    0.05986   0.06249   0.06489   0.07087   0.07275
 Alpha virt. eigenvalues --    0.07907   0.08192   0.08222   0.08594   0.08781
 Alpha virt. eigenvalues --    0.09086   0.09435   0.09826   0.10484   0.10961
 Alpha virt. eigenvalues --    0.11065   0.11859   0.12307   0.12703   0.13113
 Alpha virt. eigenvalues --    0.13226   0.13487   0.13747   0.14547   0.15776
 Alpha virt. eigenvalues --    0.16102   0.16195   0.16928   0.17383   0.17425
 Alpha virt. eigenvalues --    0.18082   0.18643   0.19316   0.19684   0.20582
 Alpha virt. eigenvalues --    0.21376   0.21438   0.22626   0.23365   0.23622
 Alpha virt. eigenvalues --    0.24222   0.24634   0.25664   0.26739   0.27752
 Alpha virt. eigenvalues --    0.28828   0.29663   0.29880   0.31628   0.34683
 Alpha virt. eigenvalues --    0.36544   0.38314   0.39296   0.40977   0.41106
 Alpha virt. eigenvalues --    0.41410   0.42165   0.43011   0.43382   0.44416
 Alpha virt. eigenvalues --    0.44560   0.45244   0.46388   0.47099   0.47623
 Alpha virt. eigenvalues --    0.48276   0.48418   0.49347   0.50447   0.50581
 Alpha virt. eigenvalues --    0.51149   0.52119   0.52768   0.52854   0.54090
 Alpha virt. eigenvalues --    0.54305   0.55037   0.55152   0.56072   0.57529
 Alpha virt. eigenvalues --    0.58226   0.59572   0.61667   0.61710   0.62377
 Alpha virt. eigenvalues --    0.63497   0.63709   0.64841   0.65749   0.67965
 Alpha virt. eigenvalues --    0.69685   0.70310   0.71383   0.72399   0.72755
 Alpha virt. eigenvalues --    0.74921   0.76514   0.76604   0.76680   0.77289
 Alpha virt. eigenvalues --    0.78025   0.78271   0.78504   0.80083   0.80300
 Alpha virt. eigenvalues --    0.81269   0.81755   0.82861   0.83487   0.85200
 Alpha virt. eigenvalues --    0.86870   0.87061   0.88026   0.89778   0.90067
 Alpha virt. eigenvalues --    0.91262   0.92242   0.93766   0.94402   0.96052
 Alpha virt. eigenvalues --    0.97719   0.99832   1.01099   1.01538   1.02108
 Alpha virt. eigenvalues --    1.02551   1.04368   1.05324   1.06557   1.09586
 Alpha virt. eigenvalues --    1.19692   1.20495   1.22033   1.24028   1.26828
 Alpha virt. eigenvalues --    1.31665   1.33492   1.34322   1.35282   1.35807
 Alpha virt. eigenvalues --    1.37893   1.40336   1.40814   1.41555   1.43479
 Alpha virt. eigenvalues --    1.43860   1.43939   1.46252   1.46813   1.47037
 Alpha virt. eigenvalues --    1.47335   1.49190   1.52108   1.53639   1.54120
 Alpha virt. eigenvalues --    1.55885   1.56073   1.58046   1.59490   1.61419
 Alpha virt. eigenvalues --    1.62803   1.63748   1.64307   1.66058   1.68139
 Alpha virt. eigenvalues --    1.68227   1.69486   1.69763   1.74435   1.76335
 Alpha virt. eigenvalues --    1.76738   1.77109   1.79299   1.79924   1.82044
 Alpha virt. eigenvalues --    1.82463   1.83177   1.83788   1.83859   1.84424
 Alpha virt. eigenvalues --    1.84468   1.86363   1.87206   1.88154   1.91263
 Alpha virt. eigenvalues --    1.91617   1.93679   1.97337   1.97992   1.99029
 Alpha virt. eigenvalues --    1.99473   2.03076   2.06099   2.06335   2.11276
 Alpha virt. eigenvalues --    2.12756   2.14813   2.15137   2.18639   2.20887
 Alpha virt. eigenvalues --    2.22612   2.27812   2.30579   2.33223   2.34181
 Alpha virt. eigenvalues --    2.35577   2.38465   2.39161   2.41542   2.43498
 Alpha virt. eigenvalues --    2.45149   2.46774   2.48781   2.53044   2.53653
 Alpha virt. eigenvalues --    2.55435   2.56348   2.57551   2.58398   2.59006
 Alpha virt. eigenvalues --    2.59279   2.60073   2.61535   2.62918   2.63237
 Alpha virt. eigenvalues --    2.64852   2.65195   2.65596   2.66177   2.67882
 Alpha virt. eigenvalues --    2.70647   2.71136   2.72713   2.73239   2.74639
 Alpha virt. eigenvalues --    2.76396   2.77875   2.79539   2.81625   2.83508
 Alpha virt. eigenvalues --    2.86032   2.86320   2.91955   2.96710   2.98329
 Alpha virt. eigenvalues --    3.01022   3.03803   3.06987   3.10949   3.16523
 Alpha virt. eigenvalues --    3.20035   3.20635   3.26023   3.27902   3.29895
 Alpha virt. eigenvalues --    3.32080   3.37314   3.42875   3.44753   3.48709
 Alpha virt. eigenvalues --    3.51737   3.53536   3.57523   3.64144   3.64332
 Alpha virt. eigenvalues --    3.70915   3.92361   3.93059   3.94761   3.95683
 Alpha virt. eigenvalues --    4.03454   4.04412   4.08531   4.12119   4.34331
 Alpha virt. eigenvalues --    4.59902   4.63867   4.72038  23.44459  23.59040
 Alpha virt. eigenvalues --   23.74160  23.79552  23.81448  23.88085  23.91144
 Alpha virt. eigenvalues --   23.93328  23.95678  24.01767  24.10181  24.11344
 Alpha virt. eigenvalues --   24.17120  24.27603
          Condensed to atoms (all electrons):
               1          2          3          4          5          6
     1  C    7.973627   0.498030  -0.631912   1.662147  -0.140736  -0.082988
     2  C    0.498030   7.443272   0.410975  -1.098209  -0.049596  -0.018049
     3  C   -0.631912   0.410975   6.481989   0.813478  -0.111397   0.017331
     4  C    1.662147  -1.098209   0.813478  10.828301  -0.606206  -0.119404
     5  C   -0.140736  -0.049596  -0.111397  -0.606206  12.374341   0.856908
     6  C   -0.082988  -0.018049   0.017331  -0.119404   0.856908   6.574600
     7  C    0.000552  -0.001578  -0.011135   0.035025  -1.395910   0.273385
     8  C    0.348999  -0.020634  -0.115038  -0.048540   3.065135  -0.331914
     9  C   -0.661941  -0.857143   0.260164   0.314369  -0.539535   0.265892
    10  C   -1.126073   0.051220  -0.133050  -2.529556  -2.523574  -0.454988
    11  C    0.613093  -0.944023   0.819310   1.472580  -1.939803  -0.165015
    12  C   -2.222045   1.335759  -1.429494  -3.147988   0.427022  -0.200621
    13  C    0.525327  -0.328226  -0.206662  -0.743230  -2.385793   0.744649
    14  C   -1.227202  -0.258044  -0.089934  -1.067851  -1.450384  -1.241765
    15  H    0.368909  -0.094824   0.000483   0.016263   0.007807   0.001418
    16  H   -0.020991   0.384358  -0.019653   0.024216  -0.002232  -0.000426
    17  H   -0.017808  -0.027636   0.398393  -0.082754  -0.000010   0.000458
    18  H    0.044663   0.003984  -0.079101   0.478030   0.000184  -0.004784
    19  H   -0.034688  -0.006424   0.051123  -0.052230  -0.082130   0.046823
    20  H    0.006114   0.002591  -0.005021   0.005142   0.451466  -0.081377
    21  H   -0.000980  -0.000442   0.000321   0.000646  -0.062679   0.360248
    22  H    0.000256   0.000273  -0.000219  -0.000864   0.000189  -0.010759
    23  H    0.004393  -0.001850   0.000630   0.001883   0.046876  -0.002162
    24  H    0.046609   0.016828   0.000134  -0.003528  -0.023929  -0.003375
    25  H    0.046609   0.016828   0.000134  -0.003528  -0.023929  -0.003375
               7          8          9         10         11         12
     1  C    0.000552   0.348999  -0.661941  -1.126073   0.613093  -2.222045
     2  C   -0.001578  -0.020634  -0.857143   0.051220  -0.944023   1.335759
     3  C   -0.011135  -0.115038   0.260164  -0.133050   0.819310  -1.429494
     4  C    0.035025  -0.048540   0.314369  -2.529556   1.472580  -3.147988
     5  C   -1.395910   3.065135  -0.539535  -2.523574  -1.939803   0.427022
     6  C    0.273385  -0.331914   0.265892  -0.454988  -0.165015  -0.200621
     7  C    7.158940  -0.374522  -0.797767   0.439766  -0.216313  -0.150294
     8  C   -0.374522   9.935476  -1.307666  -1.577910  -0.096460  -0.822068
     9  C   -0.797767  -1.307666   9.644401   0.326854   1.972298  -2.666354
    10  C    0.439766  -1.577910   0.326854   8.828339  -0.195722   2.390872
    11  C   -0.216313  -0.096460   1.972298  -0.195722  13.707628  -5.034452
    12  C   -0.150294  -0.822068  -2.666354   2.390872  -5.034452  18.355349
    13  C   -0.317759  -0.636712   1.022410  -0.080930   0.764334  -4.818225
    14  C    1.451262  -2.554429  -1.537865   2.099051  -4.215790   3.243029
    15  H   -0.003168   0.006235   0.073250  -0.002821  -0.036968   0.000832
    16  H    0.000415   0.000993  -0.002307  -0.011905   0.016293  -0.021921
    17  H   -0.000329  -0.001705  -0.002160   0.018961  -0.016852   0.076507
    18  H    0.001879   0.006495  -0.014792  -0.015404   0.018500  -0.053784
    19  H   -0.005487  -0.059524   0.073340   0.421711   0.071051  -0.101325
    20  H   -0.002279   0.061421  -0.027698   0.021379  -0.009307   0.001575
    21  H   -0.000219  -0.040924  -0.008854   0.019698  -0.006779   0.005834
    22  H    0.370825  -0.026039   0.004522  -0.003945   0.002498  -0.006300
    23  H   -0.120806   0.388636   0.104092  -0.017650   0.011116   0.008734
    24  H    0.013434   0.005191   0.366765   0.007431   0.026009  -0.057222
    25  H    0.013434   0.005191   0.366765   0.007431   0.026009  -0.057222
              13         14         15         16         17         18
     1  C    0.525327  -1.227202   0.368909  -0.020991  -0.017808   0.044663
     2  C   -0.328226  -0.258044  -0.094824   0.384358  -0.027636   0.003984
     3  C   -0.206662  -0.089934   0.000483  -0.019653   0.398393  -0.079101
     4  C   -0.743230  -1.067851   0.016263   0.024216  -0.082754   0.478030
     5  C   -2.385793  -1.450384   0.007807  -0.002232  -0.000010   0.000184
     6  C    0.744649  -1.241765   0.001418  -0.000426   0.000458  -0.004784
     7  C   -0.317759   1.451262  -0.003168   0.000415  -0.000329   0.001879
     8  C   -0.636712  -2.554429   0.006235   0.000993  -0.001705   0.006495
     9  C    1.022410  -1.537865   0.073250  -0.002307  -0.002160  -0.014792
    10  C   -0.080930   2.099051  -0.002821  -0.011905   0.018961  -0.015404
    11  C    0.764334  -4.215790  -0.036968   0.016293  -0.016852   0.018500
    12  C   -4.818225   3.243029   0.000832  -0.021921   0.076507  -0.053784
    13  C   15.050764  -1.989917  -0.008882   0.002756  -0.006274  -0.010442
    14  C   -1.989917  14.582604   0.005955  -0.011740   0.005235  -0.037484
    15  H   -0.008882   0.005955   0.439868  -0.009061   0.001969   0.000066
    16  H    0.002756  -0.011740  -0.009061   0.414126  -0.007895   0.002279
    17  H   -0.006274   0.005235   0.001969  -0.007895   0.429236  -0.013364
    18  H   -0.010442  -0.037484   0.000066   0.002279  -0.013364   0.446635
    19  H    0.081888  -0.030268   0.000501  -0.000696   0.002209  -0.004322
    20  H   -0.002703  -0.084770  -0.000160   0.000034  -0.000218   0.001182
    21  H   -0.025303   0.100941   0.000017  -0.000007   0.000010  -0.000085
    22  H    0.030108  -0.023827  -0.000123   0.000007  -0.000006   0.000005
    23  H   -0.054240  -0.043243   0.000525  -0.000129   0.000006  -0.000077
    24  H    0.002809  -0.064987  -0.001361   0.000573  -0.000103   0.000067
    25  H    0.002809  -0.064987  -0.001361   0.000573  -0.000103   0.000067
              19         20         21         22         23         24
     1  C   -0.034688   0.006114  -0.000980   0.000256   0.004393   0.046609
     2  C   -0.006424   0.002591  -0.000442   0.000273  -0.001850   0.016828
     3  C    0.051123  -0.005021   0.000321  -0.000219   0.000630   0.000134
     4  C   -0.052230   0.005142   0.000646  -0.000864   0.001883  -0.003528
     5  C   -0.082130   0.451466  -0.062679   0.000189   0.046876  -0.023929
     6  C    0.046823  -0.081377   0.360248  -0.010759  -0.002162  -0.003375
     7  C   -0.005487  -0.002279  -0.000219   0.370825  -0.120806   0.013434
     8  C   -0.059524   0.061421  -0.040924  -0.026039   0.388636   0.005191
     9  C    0.073340  -0.027698  -0.008854   0.004522   0.104092   0.366765
    10  C    0.421711   0.021379   0.019698  -0.003945  -0.017650   0.007431
    11  C    0.071051  -0.009307  -0.006779   0.002498   0.011116   0.026009
    12  C   -0.101325   0.001575   0.005834  -0.006300   0.008734  -0.057222
    13  C    0.081888  -0.002703  -0.025303   0.030108  -0.054240   0.002809
    14  C   -0.030268  -0.084770   0.100941  -0.023827  -0.043243  -0.064987
    15  H    0.000501  -0.000160   0.000017  -0.000123   0.000525  -0.001361
    16  H   -0.000696   0.000034  -0.000007   0.000007  -0.000129   0.000573
    17  H    0.002209  -0.000218   0.000010  -0.000006   0.000006  -0.000103
    18  H   -0.004322   0.001182  -0.000085   0.000005  -0.000077   0.000067
    19  H    0.445757  -0.008392   0.000742  -0.000352   0.000030   0.000685
    20  H   -0.008392   0.466541  -0.008098   0.001415   0.000184   0.000314
    21  H    0.000742  -0.008098   0.419846  -0.004567   0.000629  -0.000162
    22  H   -0.000352   0.001415  -0.004567   0.422343  -0.007426   0.000645
    23  H    0.000030   0.000184   0.000629  -0.007426   0.441783  -0.000451
    24  H    0.000685   0.000314  -0.000162   0.000645  -0.000451   0.491267
    25  H    0.000685   0.000314  -0.000162   0.000645  -0.000451  -0.077967
              25
     1  C    0.046609
     2  C    0.016828
     3  C    0.000134
     4  C   -0.003528
     5  C   -0.023929
     6  C   -0.003375
     7  C    0.013434
     8  C    0.005191
     9  C    0.366765
    10  C    0.007431
    11  C    0.026009
    12  C   -0.057222
    13  C    0.002809
    14  C   -0.064987
    15  H   -0.001361
    16  H    0.000573
    17  H   -0.000103
    18  H    0.000067
    19  H    0.000685
    20  H    0.000314
    21  H   -0.000162
    22  H    0.000645
    23  H   -0.000451
    24  H   -0.077967
    25  H    0.491267
 Mulliken charges:
               1
     1  C    0.028037
     2  C   -0.457439
     3  C   -0.421849
     4  C   -0.148194
     5  C    0.107915
     6  C   -0.420713
     7  C   -0.361352
     8  C    0.190311
     9  C   -0.371039
    10  C    0.040815
    11  C   -0.643238
    12  C    0.943804
    13  C   -0.612557
    14  C    0.506409
    15  H    0.234630
    16  H    0.262340
    17  H    0.244233
    18  H    0.229604
    19  H    0.189295
    20  H    0.210352
    21  H    0.250329
    22  H    0.250696
    23  H    0.238965
    24  H    0.254323
    25  H    0.254323
 Sum of Mulliken charges =   1.00000
 Mulliken charges with hydrogens summed into heavy atoms:
               1
     1  C    0.262667
     2  C   -0.195099
     3  C   -0.177616
     4  C    0.081410
     5  C    0.318267
     6  C   -0.170384
     7  C   -0.110656
     8  C    0.429276
     9  C    0.137606
    10  C    0.230110
    11  C   -0.643238
    12  C    0.943804
    13  C   -0.612557
    14  C    0.506409
 Electronic spatial extent (au):  <R**2>=           2857.3686
 Charge=              1.0000 electrons
 Dipole moment (field-independent basis, Debye):
    X=             -0.2465    Y=             -0.7536    Z=             -0.0000  Tot=              0.7929
 Quadrupole moment (field-independent basis, Debye-Ang):
   XX=            -51.9774   YY=            -35.5272   ZZ=            -84.1065
   XY=              9.6727   XZ=             -0.0000   YZ=             -0.0000
 Traceless Quadrupole moment (field-independent basis, Debye-Ang):
   XX=              5.2263   YY=             21.6765   ZZ=            -26.9028
   XY=              9.6727   XZ=             -0.0000   YZ=             -0.0000
 Octapole moment (field-independent basis, Debye-Ang**2):
  XXX=             -4.4234  YYY=              2.9139  ZZZ=              0.0000  XYY=              2.6462
  XXY=             -6.3295  XXZ=             -0.0000  XZZ=             -3.6871  YZZ=             -0.4194
  YYZ=             -0.0000  XYZ=             -0.0000
 Hexadecapole moment (field-independent basis, Debye-Ang**3):
 XXXX=          -1010.7196 YYYY=          -1822.4810 ZZZZ=            -99.2824 XXXY=           -357.8332
 XXXZ=              0.0000 YYYX=           -281.1401 YYYZ=             -0.0000 ZZZX=             -0.0000
 ZZZY=             -0.0000 XXYY=           -458.7660 XXZZ=           -243.7351 YYZZ=           -492.8154
 XXYZ=              0.0000 YYXZ=             -0.0000 ZZXY=           -184.4617
 N-N= 7.814461405608D+02 E-N=-2.799258885721D+03  KE= 5.376225131977D+02
 Symmetry A'   KE= 5.229504988542D+02
 Symmetry A"   KE= 1.467201434350D+01
 Unable to Open any file for archive entry.
 1\1\GINC-GADI-CPU-CLX-1538\SP\RM062X TD-FC\6-311++G(d,p)\C14H11(1+)\TS
 1578\27-Jul-2022\0\\#n M062X/6-311++G(d,p) TD(NStates=1) EmpiricalDisp
 ersion=GD3 SP\\SP_2\\1,1\C,0,0.,2.460655,1.362431\C,0,0.,3.635508,0.64
 5989\C,0,0.,3.652861,-0.76383\C,0,0.,2.527156,-1.437538\C,0,0.,-2.3991
 56,-1.377538\C,0,0.,-3.714861,-0.66383\C,0,0.,-3.767508,0.697989\C,0,0
 .,-2.524655,1.358431\C,0,0.,-0.04,1.453369\C,0,0.,0.055,-1.429189\C,0,
 0.,1.299055,0.680065\C,0,0.,1.282471,-0.697804\C,0,0.,-1.225055,0.6740
 65\C,0,0.,-1.192471,-0.763804\H,0,0.,2.411071,2.443647\H,0,0.,4.550753
 ,1.220689\H,0,0.,4.578262,-1.318349\H,0,0.,2.56455,-2.518059\H,0,0.,0.
 105,-2.510266\H,0,0.,-2.37055,-2.462059\H,0,0.,-4.640262,-1.226349\H,0
 ,0.,-4.722753,1.202689\H,0,0.,-2.565071,2.443647\H,0,-0.859585,-0.184,
 2.145787\H,0,0.859585,-0.184,2.145787\\Version=ES64L-G16RevC.01\State=
 1-A'\HF=-539.7200103\RMSD=4.088e-09\PG=CS [SG(C14H9),X(H2)]\\@
 The archive entry for this job was punched.


 IF AT FIRST YOU DON'T SUCCEED, TRY, TRY AGAIN.
 THEN GIVE UP;
 THERE'S NO USE BEING A DAMN FOOL ABOUT IT.

                                 -- W. C. FIELDS
 Job cpu time:       0 days  0 hours 50 minutes 27.4 seconds.
 Elapsed time:       0 days  0 hours  1 minutes 47.3 seconds.
 File lengths (MBytes):  RWF=    460 Int=      0 D2E=      0 Chk=     15 Scr=      1
 Normal termination of Gaussian 16 at Wed Jul 27 11:52:20 2022.
