 Entering Gaussian System, Link 0=g16
 Initial command:
 /apps/gaussian/g16c01/g16/l1.exe "/jobfs/52815815.gadi-pbs/Gau-2064099.inp" -scrdir="/jobfs/52815815.gadi-pbs/"
 Entering Link 1 = /apps/gaussian/g16c01/g16/l1.exe PID=   2064100.
  
 Copyright (c) 1988-2019, Gaussian, Inc.  All Rights Reserved.
  
 This is part of the Gaussian(R) 16 program.  It is based on
 the Gaussian(R) 09 system (copyright 2009, Gaussian, Inc.),
 the Gaussian(R) 03 system (copyright 2003, Gaussian, Inc.),
 the Gaussian(R) 98 system (copyright 1998, Gaussian, Inc.),
 the Gaussian(R) 94 system (copyright 1995, Gaussian, Inc.),
 the Gaussian 92(TM) system (copyright 1992, Gaussian, Inc.),
 the Gaussian 90(TM) system (copyright 1990, Gaussian, Inc.),
 the Gaussian 88(TM) system (copyright 1988, Gaussian, Inc.),
 the Gaussian 86(TM) system (copyright 1986, Carnegie Mellon
 University), and the Gaussian 82(TM) system (copyright 1983,
 Carnegie Mellon University). Gaussian is a federally registered
 trademark of Gaussian, Inc.
  
 This software contains proprietary and confidential information,
 including trade secrets, belonging to Gaussian, Inc.
  
 This software is provided under written license and may be
 used, copied, transmitted, or stored only in accord with that
 written license.
  
 The following legend is applicable only to US Government
 contracts under FAR:
  
                    RESTRICTED RIGHTS LEGEND
  
 Use, reproduction and disclosure by the US Government is
 subject to restrictions as set forth in subparagraphs (a)
 and (c) of the Commercial Computer Software - Restricted
 Rights clause in FAR 52.227-19.
  
 Gaussian, Inc.
 340 Quinnipiac St., Bldg. 40, Wallingford CT 06492
  
  
 ---------------------------------------------------------------
 Warning -- This program may not be used in any manner that
 competes with the business of Gaussian, Inc. or will provide
 assistance to any competitor of Gaussian, Inc.  The licensee
 of this program is prohibited from giving any competitor of
 Gaussian, Inc. access to this program.  By using this program,
 the user acknowledges that Gaussian, Inc. is engaged in the
 business of creating and licensing software in the field of
 computational chemistry and represents and warrants to the
 licensee that it is not a competitor of Gaussian, Inc. and that
 it will not use this program in any manner prohibited above.
 ---------------------------------------------------------------
  

 Cite this work as:
 Gaussian 16, Revision C.01,
 M. J. Frisch, G. W. Trucks, H. B. Schlegel, G. E. Scuseria, 
 M. A. Robb, J. R. Cheeseman, G. Scalmani, V. Barone, 
 G. A. Petersson, H. Nakatsuji, X. Li, M. Caricato, A. V. Marenich, 
 J. Bloino, B. G. Janesko, R. Gomperts, B. Mennucci, H. P. Hratchian, 
 J. V. Ortiz, A. F. Izmaylov, J. L. Sonnenberg, D. Williams-Young, 
 F. Ding, F. Lipparini, F. Egidi, J. Goings, B. Peng, A. Petrone, 
 T. Henderson, D. Ranasinghe, V. G. Zakrzewski, J. Gao, N. Rega, 
 G. Zheng, W. Liang, M. Hada, M. Ehara, K. Toyota, R. Fukuda, 
 J. Hasegawa, M. Ishida, T. Nakajima, Y. Honda, O. Kitao, H. Nakai, 
 T. Vreven, K. Throssell, J. A. Montgomery, Jr., J. E. Peralta, 
 F. Ogliaro, M. J. Bearpark, J. J. Heyd, E. N. Brothers, K. N. Kudin, 
 V. N. Staroverov, T. A. Keith, R. Kobayashi, J. Normand, 
 K. Raghavachari, A. P. Rendell, J. C. Burant, S. S. Iyengar, 
 J. Tomasi, M. Cossi, J. M. Millam, M. Klene, C. Adamo, R. Cammi, 
 J. W. Ochterski, R. L. Martin, K. Morokuma, O. Farkas, 
 J. B. Foresman, and D. J. Fox, Gaussian, Inc., Wallingford CT, 2019.
 
 ******************************************
 Gaussian 16:  ES64L-G16RevC.01  3-Jul-2019
                27-Jul-2022 
 ******************************************
 %NProcShared=32
 Will use up to   32 processors via shared memory.
 %mem = 128GB
 ---------------------------------------------------------------
 #n M062X/6-311++G(d,p) TD(NStates=1) EmpiricalDispersion=GD3 SP
 ---------------------------------------------------------------
 1/38=1,172=1/1;
 2/12=2,17=6,18=5,40=1/2;
 3/5=4,6=6,7=1111,11=9,25=1,30=1,74=-55,124=31/1,2,3,8;
 4//1;
 5/5=2,38=5/2;
 8/6=1,10=2,108=1/1;
 9/41=1,42=1,70=2/14;
 6/7=2,8=2,9=2,10=2/1;
 99/5=1,9=1/99;
 ----
 SP_1
 ----
 Symbolic Z-matrix:
 Charge =  1 Multiplicity = 1
 C                     0.        2.42066   1.36143 
 C                     0.        3.60551   0.63099 
 C                     0.        3.63686  -0.79483 
 C                     0.        2.56516  -1.45054 
 C                     0.       -2.36116  -1.36454 
 C                     0.       -3.73086  -0.63283 
 C                     0.       -3.79751   0.71299 
 C                     0.       -2.56466   1.35943 
 C                     0.       -0.048     1.45337 
 C                     0.        0.129    -1.42919 
 C                     0.        1.31205   0.71707 
 C                     0.        1.29147  -0.7178 
 C                     0.       -1.21206   0.63707 
 C                     0.       -1.18347  -0.7438 
 H                     0.        2.43207   2.44365 
 H                     0.        4.53075   1.19169 
 H                     0.        4.59026  -1.30235 
 H                     0.        2.54755  -2.53206 
 H                     0.        0.14     -2.51027 
 H                     0.       -2.38755  -2.44806 
 H                     0.       -4.62826  -1.24235 
 H                     0.       -4.74275   1.23169 
 H                     0.       -2.54407   2.44365 
 H                    -0.85959  -0.246     2.14579 
 H                     0.85959  -0.246     2.14579 
 
                          Input orientation:                          
 ---------------------------------------------------------------------
 Center     Atomic      Atomic             Coordinates (Angstroms)
 Number     Number       Type             X           Y           Z
 ---------------------------------------------------------------------
      1          6           0        0.000000    2.420655    1.361431
      2          6           0        0.000000    3.605508    0.630989
      3          6           0        0.000000    3.636861   -0.794830
      4          6           0        0.000000    2.565156   -1.450538
      5          6           0        0.000000   -2.361156   -1.364538
      6          6           0        0.000000   -3.730861   -0.632830
      7          6           0        0.000000   -3.797508    0.712989
      8          6           0        0.000000   -2.564655    1.359431
      9          6           0        0.000000   -0.048000    1.453369
     10          6           0        0.000000    0.129000   -1.429189
     11          6           0        0.000000    1.312055    0.717065
     12          6           0        0.000000    1.291471   -0.717804
     13          6           0        0.000000   -1.212055    0.637065
     14          6           0        0.000000   -1.183471   -0.743804
     15          1           0        0.000000    2.432071    2.443647
     16          1           0        0.000000    4.530753    1.191689
     17          1           0        0.000000    4.590262   -1.302349
     18          1           0        0.000000    2.547550   -2.532059
     19          1           0        0.000000    0.140000   -2.510266
     20          1           0        0.000000   -2.387550   -2.448059
     21          1           0        0.000000   -4.628262   -1.242349
     22          1           0        0.000000   -4.742753    1.231689
     23          1           0        0.000000   -2.544071    2.443647
     24          1           0       -0.859585   -0.246000    2.145787
     25          1           0        0.859585   -0.246000    2.145787
 ---------------------------------------------------------------------
                    Distance matrix (angstroms):
                    1          2          3          4          5
     1  C    0.000000
     2  C    1.391913   0.000000
     3  C    2.475605   1.426164   0.000000
     4  C    2.815679   2.327034   1.256386   0.000000
     5  C    5.504237   6.291519   6.025012   4.927063   0.000000
     6  C    6.466701   7.444431   7.369503   6.348896   1.552897
     7  C    6.251882   7.403470   7.585734   6.720442   2.525713
     8  C    4.985310   6.213014   6.565032   5.849007   2.731560
     9  C    2.470366   3.744921   4.316549   3.906566   3.645722
    10  C    3.610989   4.041094   3.564758   2.436250   2.490995
    11  C    1.282264   2.295068   2.773184   2.503750   4.222032
    12  C    2.366067   2.678434   2.346654   1.469412   3.709441
    13  C    3.704226   4.817567   5.055918   4.315717   2.307996
    14  C    4.173936   4.982407   4.820602   3.814666   1.331260
    15  H    1.082276   2.159325   3.455322   3.896458   6.121870
    16  H    2.116914   1.081879   2.178371   3.293165   7.350694
    17  H    3.435538   2.169686   1.080069   2.030521   6.951696
    18  H    3.895557   3.335288   2.050503   1.081664   5.045642
    19  H    4.493487   4.677310   3.894966   2.646584   2.751086
    20  H    6.134415   6.737750   6.247135   5.052162   1.083842
    21  H    7.514446   8.444191   8.277230   7.196430   2.270396
    22  H    7.164583   8.369845   8.621178   7.784592   3.523123
    23  H    5.081308   6.411166   6.977941   6.424086   3.812575
    24  H    2.909493   4.227010   4.945981   4.644894   4.187500
    25  H    2.909493   4.227010   4.945981   4.644894   4.187500
                    6          7          8          9         10
     6  C    0.000000
     7  C    1.347468   0.000000
     8  C    2.308493   1.392054   0.000000
     9  C    4.232693   3.821907   2.518408   0.000000
    10  C    3.941157   4.472851   3.877135   2.887987   0.000000
    11  C    5.220462   5.109565   3.929569   1.546575   2.450719
    12  C    5.023051   5.286291   4.380024   2.551112   1.362867
    13  C    2.820818   2.586568   1.533408   1.421751   2.463297
    14  C    2.549806   2.992563   2.516201   2.473229   1.480653
    15  H    6.888138   6.465511   5.113003   2.670469   4.505884
    16  H    8.460682   8.342007   7.097391   4.586225   5.122932
    17  H    8.348014   8.626487   7.633997   5.395133   4.463065
    18  H    6.559384   7.126717   6.424822   4.756103   2.658140
    19  H    4.302131   5.088550   4.721198   3.968091   1.081133
    20  H    2.258216   3.461243   3.811607   4.549136   2.714981
    21  H    1.084823   2.124500   3.320803   5.314668   4.760930
    22  H    2.121404   1.078210   2.181841   4.699984   5.551058
    23  H    3.297451   2.136886   1.084411   2.685334   4.705759
    24  H    4.539147   3.924921   2.594880   1.121398   3.695939
    25  H    4.539147   3.924921   2.594880   1.121398   3.695939
                   11         12         13         14         15
    11  C    0.000000
    12  C    1.435017   0.000000
    13  C    2.525377   2.846632   0.000000
    14  C    2.891676   2.475079   1.381165   0.000000
    15  H    2.058038   3.360914   4.067357   4.819957   0.000000
    16  H    3.253503   3.760201   5.769528   6.033116   2.443740
    17  H    3.850282   3.350181   6.117860   5.800687   4.323225
    18  H    3.476098   2.206639   4.917111   4.137436   4.977046
    19  H    3.433566   2.130447   3.425455   2.207252   5.458465
    20  H    4.868787   4.065585   3.301481   2.086694   6.867134
    21  H    6.255131   5.942927   3.899060   3.480680   7.964601
    22  H    6.076639   6.341323   3.580420   4.070757   7.276465
    23  H    4.225020   4.970529   2.244550   3.465700   4.976142
    24  H    2.282032   3.361972   1.987056   3.157131   2.828369
    25  H    2.282032   3.361972   1.987056   3.157131   2.828369
                   16         17         18         19         20
    16  H    0.000000
    17  H    2.494748   0.000000
    18  H    4.218933   2.384294   0.000000
    19  H    5.743099   4.611279   2.407649   0.000000
    20  H    7.817332   7.071245   4.935815   2.528315   0.000000
    21  H    9.476924   9.218719   7.290791   4.933957   2.544509
    22  H    9.273592   9.670911   8.204530   6.151707   4.368927
    23  H    7.184743   8.057989   7.119147   5.634314   4.894209
    24  H    4.946368   6.001496   5.515891   4.750443   5.140870
    25  H    4.946368   6.001496   5.515891   4.750443   5.140870
                   21         22         23         24         25
    21  H    0.000000
    22  H    2.476686   0.000000
    23  H    4.234433   2.510587   0.000000
    24  H    5.605584   4.668538   2.471586   0.000000
    25  H    5.605584   4.668538   2.471586   1.719170   0.000000
 Stoichiometry    C14H11(1+)
 Framework group  CS[SG(C14H9),X(H2)]
 Deg. of freedom    46
 Full point group                 CS      NOp   2
 Largest Abelian subgroup         CS      NOp   2
 Largest concise Abelian subgroup CS      NOp   2
                         Standard orientation:                         
 ---------------------------------------------------------------------
 Center     Atomic      Atomic             Coordinates (Angstroms)
 Number     Number       Type             X           Y           Z
 ---------------------------------------------------------------------
      1          6           0       -2.333143   -1.509464    0.000000
      2          6           0       -2.238707   -2.898170    0.000000
      3          6           0       -0.991629   -3.590079    0.000000
      4          6           0        0.087810   -2.947182    0.000000
      5          6           0        2.306451    1.452088    0.000000
      6          6           0        2.297001    3.004956    0.000000
      7          6           0        1.137154    3.690831    0.000000
      8          6           0       -0.009151    2.901021    0.000000
      9          6           0       -1.264566    0.717833    0.000000
     10          6           0        1.203712   -0.781524    0.000000
     11          6           0       -1.246554   -0.828636    0.000000
     12          6           0        0.032726   -1.478803    0.000000
     13          6           0        0.000000    1.367641    0.000000
     14          6           0        1.208593    0.699121    0.000000
     15          1           0       -3.296095   -1.015455    0.000000
     16          1           0       -3.165852   -3.455722    0.000000
     17          1           0       -0.986640   -4.670136    0.000000
     18          1           0        1.053031   -3.435390    0.000000
     19          1           0        2.155215   -1.294838    0.000000
     20          1           0        3.277535    0.970726    0.000000
     21          1           0        3.254376    3.515129    0.000000
     22          1           0        1.118473    4.768880    0.000000
     23          1           0       -0.978144    3.387849    0.000000
     24          1           0       -1.785044    1.215578    0.859585
     25          1           0       -1.785044    1.215578   -0.859585
 ---------------------------------------------------------------------
 Rotational constants (GHZ):           2.1395638           0.4439044           0.3684289
 Standard basis: 6-311++G(d,p) (5D, 7F)
 There are   299 symmetry adapted cartesian basis functions of A'  symmetry.
 There are   100 symmetry adapted cartesian basis functions of A"  symmetry.
 There are   285 symmetry adapted basis functions of A'  symmetry.
 There are   100 symmetry adapted basis functions of A"  symmetry.
   385 basis functions,   603 primitive gaussians,   399 cartesian basis functions
    47 alpha electrons       47 beta electrons
       nuclear repulsion energy       781.8869116757 Hartrees.
 NAtoms=   25 NActive=   25 NUniq=   24 SFac= 1.09D+00 NAtFMM=   60 NAOKFM=F Big=F
 Integral buffers will be    131072 words long.
 Regular integral format.
 Two-electron integral symmetry is turned on.
 Nuclear repulsion after empirical dispersion term =      781.8859372238 Hartrees.
 One-electron integrals computed using PRISM.
 NBasis=   385 RedAO= T EigKep=  1.15D-06  NBF=   285   100
 NBsUse=   379 1.00D-06 EigRej=  8.03D-07 NBFU=   279   100
 ExpMin= 3.60D-02 ExpMax= 4.56D+03 ExpMxC= 6.82D+02 IAcc=3 IRadAn=         5 AccDes= 0.00D+00
 Harris functional with IExCor= 1009 and IRadAn=       5 diagonalized for initial guess.
 HarFok:  IExCor= 1009 AccDes= 0.00D+00 IRadAn=         5 IDoV= 1 UseB2=F ITyADJ=14
 ICtDFT=  3500011 ScaDFX=  1.000000  1.000000  1.000000  1.000000
 FoFCou: FMM=F IPFlag=           0 FMFlag=      100000 FMFlg1=           0
         NFxFlg=           0 DoJE=T BraDBF=F KetDBF=T FulRan=T
         wScrn=  0.000000 ICntrl=       500 IOpCl=  0 I1Cent=   200000004 NGrid=           0
         NMat0=    1 NMatS0=      1 NMatT0=    0 NMatD0=    1 NMtDS0=    0 NMtDT0=    0
 Petite list used in FoFCou.
 Initial guess orbital symmetries:
       Occupied  (A') (A') (A') (A') (A') (A') (A') (A') (A') (A')
                 (A') (A') (A') (A') (A') (A') (A') (A') (A') (A')
                 (A') (A') (A') (A') (A') (A') (A') (A') (A') (A')
                 (A') (A') (A') (A") (A') (A') (A') (A') (A") (A')
                 (A') (A") (A') (A") (A") (A") (A")
       Virtual   (A") (A") (A") (A") (A") (A') (A') (A') (A') (A")
                 (A') (A") (A') (A') (A') (A") (A') (A') (A') (A')
                 (A") (A') (A") (A') (A') (A") (A') (A') (A") (A')
                 (A') (A') (A') (A') (A") (A') (A') (A') (A") (A')
                 (A") (A') (A") (A') (A') (A') (A') (A') (A') (A")
                 (A') (A") (A') (A") (A') (A') (A') (A") (A') (A")
                 (A') (A') (A') (A') (A') (A") (A') (A') (A') (A")
                 (A') (A') (A') (A') (A') (A') (A') (A') (A') (A')
                 (A') (A') (A') (A') (A') (A') (A') (A') (A') (A')
                 (A') (A') (A') (A') (A') (A') (A") (A') (A") (A')
                 (A') (A") (A") (A') (A') (A") (A') (A") (A") (A")
                 (A') (A') (A') (A") (A') (A") (A') (A') (A") (A")
                 (A') (A") (A') (A') (A') (A") (A') (A') (A") (A')
                 (A') (A') (A') (A') (A') (A') (A") (A') (A') (A')
                 (A') (A') (A') (A') (A') (A') (A') (A") (A') (A')
                 (A") (A') (A") (A') (A") (A') (A") (A') (A') (A")
                 (A') (A") (A") (A') (A") (A") (A') (A') (A') (A')
                 (A") (A') (A') (A') (A') (A') (A") (A') (A') (A')
                 (A") (A') (A') (A") (A") (A') (A') (A") (A') (A")
                 (A") (A') (A') (A') (A") (A') (A") (A') (A') (A')
                 (A") (A") (A") (A') (A') (A") (A') (A") (A') (A")
                 (A') (A') (A") (A') (A') (A") (A') (A") (A') (A')
                 (A") (A') (A') (A') (A") (A') (A') (A') (A") (A")
                 (A') (A') (A') (A") (A') (A') (A") (A') (A") (A')
                 (A") (A') (A') (A') (A") (A') (A') (A') (A') (A")
                 (A') (A') (A') (A") (A") (A') (A') (A") (A') (A')
                 (A") (A') (A') (A") (A') (A') (A") (A') (A') (A")
                 (A') (A') (A') (A') (A") (A") (A') (A') (A") (A")
                 (A') (A') (A") (A') (A") (A") (A') (A') (A') (A')
                 (A') (A') (A') (A') (A') (A') (A') (A') (A') (A')
                 (A') (A') (A') (A") (A') (A') (A') (A') (A') (A')
                 (A') (A') (A') (A') (A') (A') (A') (A') (A') (A')
                 (A') (A') (A') (A') (A') (A') (A') (A') (A') (A')
                 (A') (A')
 The electronic state of the initial guess is 1-A'.
 Requested convergence on RMS density matrix=1.00D-08 within 128 cycles.
 Requested convergence on MAX density matrix=1.00D-06.
 Requested convergence on             energy=1.00D-06.
 No special actions if energy rises.
 SCF Done:  E(RM062X) =  -539.673098565     A.U. after   16 cycles
            NFock= 16  Conv=0.47D-08     -V/T= 2.0034
 DoSCS=F DFT=T ScalE2(SS,OS)=  1.000000  1.000000
 ExpMin= 3.60D-02 ExpMax= 4.56D+03 ExpMxC= 6.82D+02 IAcc=3 IRadAn=         5 AccDes= 0.00D+00
 HarFok:  IExCor=  205 AccDes= 0.00D+00 IRadAn=         5 IDoV=-2 UseB2=F ITyADJ=14
 ICtDFT= 12500011 ScaDFX=  1.000000  1.000000  1.000000  1.000000
 Range of M.O.s used for correlation:    15   379
 NBasis=   385 NAE=    47 NBE=    47 NFC=    14 NFV=     0
 NROrb=    365 NOA=    33 NOB=    33 NVA=   332 NVB=   332

 **** Warning!!: The largest alpha MO coefficient is  0.18305863D+03

 Orbital symmetries:
       Occupied  (A') (A') (A') (A') (A') (A') (A') (A') (A') (A')
                 (A') (A') (A') (A') (A') (A') (A') (A') (A') (A')
                 (A') (A') (A') (A') (A') (A') (A') (A') (A') (A')
                 (A') (A") (A') (A') (A') (A") (A') (A') (A') (A")
                 (A') (A') (A') (A") (A") (A") (A")
       Virtual   (A") (A") (A") (A") (A') (A') (A') (A') (A") (A')
                 (A') (A") (A') (A') (A") (A') (A") (A') (A') (A')
                 (A") (A") (A') (A') (A') (A") (A') (A') (A") (A')
                 (A") (A') (A") (A') (A') (A') (A') (A') (A") (A')
                 (A") (A') (A') (A") (A") (A') (A") (A') (A') (A')
                 (A") (A') (A') (A') (A') (A") (A') (A') (A') (A')
                 (A') (A") (A') (A') (A') (A") (A') (A') (A') (A')
                 (A') (A') (A') (A') (A') (A') (A') (A') (A') (A')
                 (A') (A') (A') (A') (A') (A') (A') (A') (A') (A')
                 (A') (A') (A') (A') (A") (A") (A') (A") (A') (A')
                 (A") (A') (A') (A') (A") (A") (A') (A") (A') (A')
                 (A") (A") (A') (A') (A") (A') (A') (A") (A') (A")
                 (A") (A') (A') (A") (A') (A") (A') (A') (A') (A')
                 (A') (A') (A') (A') (A') (A') (A') (A') (A') (A')
                 (A') (A') (A') (A') (A") (A') (A') (A') (A') (A')
                 (A") (A') (A') (A') (A") (A') (A") (A") (A') (A")
                 (A') (A") (A") (A') (A') (A") (A") (A") (A') (A')
                 (A") (A') (A') (A') (A') (A') (A") (A') (A') (A")
                 (A') (A') (A') (A") (A") (A') (A') (A") (A") (A")
                 (A') (A') (A') (A") (A') (A") (A') (A') (A') (A")
                 (A') (A") (A") (A') (A") (A') (A') (A") (A') (A')
                 (A') (A") (A") (A') (A') (A") (A') (A') (A") (A')
                 (A") (A') (A') (A') (A") (A') (A') (A') (A") (A")
                 (A') (A') (A') (A") (A') (A') (A") (A') (A") (A')
                 (A") (A') (A') (A") (A') (A') (A') (A') (A') (A')
                 (A") (A') (A') (A') (A') (A") (A") (A') (A") (A')
                 (A') (A') (A') (A') (A') (A") (A') (A') (A') (A')
                 (A') (A") (A') (A") (A") (A') (A") (A") (A') (A")
                 (A') (A") (A") (A') (A") (A") (A') (A') (A') (A')
                 (A') (A') (A') (A') (A') (A') (A') (A') (A') (A')
                 (A') (A') (A') (A") (A') (A') (A') (A') (A') (A')
                 (A') (A') (A') (A') (A') (A') (A') (A') (A') (A')
                 (A') (A') (A') (A') (A') (A') (A') (A') (A') (A')
                 (A') (A')
     4 initial guesses have been made.
 Convergence on wavefunction:    0.001000000000000
 Iteration     1 Dimension     4 NMult     0 NNew      4
 CISAX will form     4 AO SS matrices at one time.
 Iteration     2 Dimension     6 NMult     4 NNew      2
 Iteration     3 Dimension     8 NMult     6 NNew      2
 Iteration     4 Dimension    10 NMult     8 NNew      2
 Iteration     5 Dimension    12 NMult    10 NNew      2
 Iteration     6 Dimension    14 NMult    12 NNew      2
 ***********************************************************************
 Excited states from <AA,BB:AA,BB> singles matrix:
 ***********************************************************************
 
 Ground to excited state transition densities written to RWF  633
 Ground to excited state transition electric dipole moments (Au):
       state          X           Y           Z        Dip. S.      Osc.
         1        -0.1987      0.5487      0.0000      0.3406      0.0165
 Ground to excited state transition velocity dipole moments (Au):
       state          X           Y           Z        Dip. S.      Osc.
         1         0.0224     -0.0383      0.0000      0.0020      0.0180
 Ground to excited state transition magnetic dipole moments (Au):
       state          X           Y           Z
         1        -0.0000      0.0000     -0.0419
 Ground to excited state transition velocity quadrupole moments (Au):
       state          XX          YY          ZZ          XY          XZ          YZ
         1         0.0937      0.0337     -0.0054      0.0989      0.0000      0.0000
 <0|del|b> * <b|rxdel|0> + <0|del|b> * <b|delr+rdel|0>
 Rotatory Strengths (R) in cgs (10**-40 erg-esu-cm/Gauss)
       state          XX          YY          ZZ    R(velocity)    E-M Angle
         1         0.0000     -0.0000     -0.0000     -0.0000       90.00
 1/2[<0|r|b>*<b|rxdel|0> + (<0|rxdel|b>*<b|r|0>)*]
 Rotatory Strengths (R) in cgs (10**-40 erg-esu-cm/Gauss)
       state          XX          YY          ZZ     R(length)
         1        -0.0000     -0.0000      0.0000     -0.0000
  1/2[<0|del|b>*<b|r|0> + (<0|r|b>*<b|del|0>)*] (Au)
       state          X           Y           Z        Dip. S.   Osc.(frdel)
         1        -0.0044     -0.0210      0.0000      0.0254      0.0170

 Excitation energies and oscillator strengths:
 
 Excited State   1:      Singlet-A'     1.9810 eV  625.85 nm  f=0.0165  <S**2>=0.000
      47 -> 48         0.70307
 This state for optimization and/or second-order correction.
 Total Energy, E(TD-HF/TD-DFT) =  -539.600296707    
 Copying the excited state density for this state as the 1-particle RhoCI density.
 SavETr:  write IOETrn=   770 NScale= 10 NData=  16 NLR=1 NState=    1 LETran=      28.

 **********************************************************************

            Population analysis using the SCF Density.

 **********************************************************************

 Orbital symmetries:
       Occupied  (A') (A') (A') (A') (A') (A') (A') (A') (A') (A')
                 (A') (A') (A') (A') (A') (A') (A') (A') (A') (A')
                 (A') (A') (A') (A') (A') (A') (A') (A') (A') (A')
                 (A') (A") (A') (A') (A') (A") (A') (A') (A') (A")
                 (A') (A') (A') (A") (A") (A") (A")
       Virtual   (A") (A") (A") (A") (A') (A') (A') (A') (A") (A')
                 (A') (A") (A') (A') (A") (A') (A") (A') (A') (A')
                 (A") (A") (A') (A') (A') (A") (A') (A') (A") (A')
                 (A") (A') (A") (A') (A') (A') (A') (A') (A") (A')
                 (A") (A') (A') (A") (A") (A') (A") (A') (A') (A')
                 (A") (A') (A') (A') (A') (A") (A') (A') (A') (A')
                 (A') (A") (A') (A') (A') (A") (A') (A') (A') (A')
                 (A') (A') (A') (A') (A') (A') (A') (A') (A') (A')
                 (A') (A') (A') (A') (A') (A') (A') (A') (A') (A')
                 (A') (A') (A') (A') (A") (A") (A') (A") (A') (A')
                 (A") (A') (A') (A') (A") (A") (A') (A") (A') (A')
                 (A") (A") (A') (A') (A") (A') (A') (A") (A') (A")
                 (A") (A') (A') (A") (A') (A") (A') (A') (A') (A')
                 (A') (A') (A') (A') (A') (A') (A') (A') (A') (A')
                 (A') (A') (A') (A') (A") (A') (A') (A') (A') (A')
                 (A") (A') (A') (A') (A") (A') (A") (A") (A') (A")
                 (A') (A") (A") (A') (A') (A") (A") (A") (A') (A')
                 (A") (A') (A') (A') (A') (A') (A") (A') (A') (A")
                 (A') (A') (A') (A") (A") (A') (A') (A") (A") (A")
                 (A') (A') (A') (A") (A') (A") (A') (A') (A') (A")
                 (A') (A") (A") (A') (A") (A') (A') (A") (A') (A')
                 (A') (A") (A") (A') (A') (A") (A') (A') (A") (A')
                 (A") (A') (A') (A') (A") (A') (A') (A') (A") (A")
                 (A') (A') (A') (A") (A') (A') (A") (A') (A") (A')
                 (A") (A') (A') (A") (A') (A') (A') (A') (A') (A')
                 (A") (A') (A') (A') (A') (A") (A") (A') (A") (A')
                 (A') (A') (A') (A') (A') (A") (A') (A') (A') (A')
                 (A') (A") (A') (A") (A") (A') (A") (A") (A') (A")
                 (A') (A") (A") (A') (A") (A") (A') (A') (A') (A')
                 (A') (A') (A') (A') (A') (A') (A') (A') (A') (A')
                 (A') (A') (A') (A") (A') (A') (A') (A') (A') (A')
                 (A') (A') (A') (A') (A') (A') (A') (A') (A') (A')
                 (A') (A') (A') (A') (A') (A') (A') (A') (A') (A')
                 (A') (A')
 The electronic state is 1-A'.
 Alpha  occ. eigenvalues --  -10.76971 -10.74472 -10.74233 -10.73345 -10.72010
 Alpha  occ. eigenvalues --  -10.71845 -10.71232 -10.70820 -10.70399 -10.69919
 Alpha  occ. eigenvalues --  -10.69889 -10.69546 -10.69030 -10.68404  -1.17575
 Alpha  occ. eigenvalues --   -1.12700  -1.07231  -1.06580  -1.02144  -1.01215
 Alpha  occ. eigenvalues --   -0.94664  -0.90382  -0.86811  -0.85641  -0.83692
 Alpha  occ. eigenvalues --   -0.77624  -0.76995  -0.74081  -0.70576  -0.69488
 Alpha  occ. eigenvalues --   -0.68255  -0.67973  -0.67560  -0.66467  -0.64379
 Alpha  occ. eigenvalues --   -0.61865  -0.61641  -0.60967  -0.58652  -0.58144
 Alpha  occ. eigenvalues --   -0.56752  -0.55421  -0.52809  -0.52315  -0.50541
 Alpha  occ. eigenvalues --   -0.46324  -0.40868
 Alpha virt. eigenvalues --   -0.26246  -0.15033  -0.13836  -0.12340  -0.11282
 Alpha virt. eigenvalues --   -0.10149  -0.09436  -0.07833  -0.07621  -0.07567
 Alpha virt. eigenvalues --   -0.07266  -0.06961  -0.05699  -0.05520  -0.05459
 Alpha virt. eigenvalues --   -0.04031  -0.03805  -0.03305  -0.03128  -0.02092
 Alpha virt. eigenvalues --   -0.01272  -0.01147   0.00096   0.00397   0.00673
 Alpha virt. eigenvalues --    0.01123   0.01416   0.01719   0.02068   0.02160
 Alpha virt. eigenvalues --    0.02442   0.02638   0.03066   0.03068   0.03560
 Alpha virt. eigenvalues --    0.04055   0.04322   0.04791   0.05087   0.05543
 Alpha virt. eigenvalues --    0.05926   0.06246   0.06384   0.07172   0.07395
 Alpha virt. eigenvalues --    0.07874   0.07964   0.08258   0.08512   0.08828
 Alpha virt. eigenvalues --    0.09003   0.09139   0.09848   0.10267   0.10695
 Alpha virt. eigenvalues --    0.11135   0.11716   0.12041   0.12215   0.12942
 Alpha virt. eigenvalues --    0.13394   0.13491   0.13540   0.14085   0.14861
 Alpha virt. eigenvalues --    0.16060   0.16115   0.16636   0.17283   0.17331
 Alpha virt. eigenvalues --    0.18016   0.19102   0.19465   0.20035   0.20916
 Alpha virt. eigenvalues --    0.21342   0.21878   0.22572   0.23550   0.23824
 Alpha virt. eigenvalues --    0.24302   0.24758   0.25746   0.26898   0.27652
 Alpha virt. eigenvalues --    0.29092   0.29627   0.30102   0.31443   0.35851
 Alpha virt. eigenvalues --    0.36164   0.38402   0.39400   0.40168   0.40186
 Alpha virt. eigenvalues --    0.41003   0.42143   0.43070   0.43756   0.44621
 Alpha virt. eigenvalues --    0.44819   0.45317   0.45467   0.47085   0.47197
 Alpha virt. eigenvalues --    0.47850   0.48099   0.49269   0.50564   0.51110
 Alpha virt. eigenvalues --    0.51186   0.52257   0.52526   0.53407   0.54358
 Alpha virt. eigenvalues --    0.54555   0.54979   0.55009   0.57105   0.57934
 Alpha virt. eigenvalues --    0.58284   0.60541   0.61933   0.62115   0.62546
 Alpha virt. eigenvalues --    0.63327   0.63806   0.64899   0.65944   0.68737
 Alpha virt. eigenvalues --    0.69587   0.70155   0.72104   0.73194   0.73433
 Alpha virt. eigenvalues --    0.74901   0.75889   0.76654   0.76884   0.77762
 Alpha virt. eigenvalues --    0.78192   0.78842   0.79057   0.80291   0.80411
 Alpha virt. eigenvalues --    0.80956   0.82143   0.83368   0.83901   0.85663
 Alpha virt. eigenvalues --    0.85832   0.87687   0.88485   0.90152   0.90764
 Alpha virt. eigenvalues --    0.91122   0.92835   0.94109   0.94622   0.96226
 Alpha virt. eigenvalues --    0.98215   0.98257   1.01051   1.01985   1.02438
 Alpha virt. eigenvalues --    1.03444   1.04528   1.05959   1.07174   1.10362
 Alpha virt. eigenvalues --    1.18844   1.20254   1.21272   1.24138   1.26469
 Alpha virt. eigenvalues --    1.32908   1.33251   1.34019   1.35630   1.35744
 Alpha virt. eigenvalues --    1.37843   1.38968   1.39538   1.41386   1.43056
 Alpha virt. eigenvalues --    1.44103   1.44754   1.46150   1.46889   1.47830
 Alpha virt. eigenvalues --    1.48477   1.49755   1.52725   1.53893   1.55336
 Alpha virt. eigenvalues --    1.55995   1.56816   1.57872   1.58711   1.61630
 Alpha virt. eigenvalues --    1.61698   1.64200   1.65208   1.66065   1.68207
 Alpha virt. eigenvalues --    1.68998   1.69249   1.70612   1.74798   1.76540
 Alpha virt. eigenvalues --    1.76694   1.77073   1.78959   1.79488   1.81553
 Alpha virt. eigenvalues --    1.82567   1.82853   1.83294   1.84029   1.84435
 Alpha virt. eigenvalues --    1.84905   1.87402   1.87648   1.88736   1.91906
 Alpha virt. eigenvalues --    1.92924   1.93557   1.97732   1.98312   1.98846
 Alpha virt. eigenvalues --    2.00060   2.02939   2.07061   2.07172   2.11188
 Alpha virt. eigenvalues --    2.13756   2.15742   2.16099   2.18754   2.21488
 Alpha virt. eigenvalues --    2.22050   2.27388   2.31233   2.32380   2.33745
 Alpha virt. eigenvalues --    2.36670   2.38716   2.39592   2.42006   2.42372
 Alpha virt. eigenvalues --    2.44730   2.46794   2.48984   2.52608   2.53422
 Alpha virt. eigenvalues --    2.55795   2.57038   2.58339   2.59115   2.59336
 Alpha virt. eigenvalues --    2.60084   2.60704   2.62154   2.62794   2.63366
 Alpha virt. eigenvalues --    2.64725   2.65394   2.65562   2.66429   2.68119
 Alpha virt. eigenvalues --    2.68992   2.70912   2.72726   2.73581   2.74652
 Alpha virt. eigenvalues --    2.76067   2.76271   2.79107   2.83188   2.84278
 Alpha virt. eigenvalues --    2.86411   2.86553   2.92135   2.96749   2.99478
 Alpha virt. eigenvalues --    3.00165   3.04100   3.04852   3.08655   3.13605
 Alpha virt. eigenvalues --    3.17254   3.19226   3.23909   3.29860   3.32016
 Alpha virt. eigenvalues --    3.33976   3.35899   3.42792   3.46898   3.50840
 Alpha virt. eigenvalues --    3.52135   3.57611   3.57955   3.61911   3.67814
 Alpha virt. eigenvalues --    3.71420   3.90660   3.91094   3.92716   3.96520
 Alpha virt. eigenvalues --    4.03102   4.04048   4.08428   4.12076   4.33020
 Alpha virt. eigenvalues --    4.55881   4.62650   4.67207  23.43716  23.57032
 Alpha virt. eigenvalues --   23.67529  23.72615  23.75204  23.86827  23.91282
 Alpha virt. eigenvalues --   23.94328  23.99302  24.04036  24.17700  24.19736
 Alpha virt. eigenvalues --   24.36060  24.49131
          Condensed to atoms (all electrons):
               1          2          3          4          5          6
     1  C    7.778868   0.813754  -0.718170   1.189526  -0.067636  -0.063462
     2  C    0.813754   7.565411   0.547390  -0.934355  -0.093054  -0.015644
     3  C   -0.718170   0.547390   6.711704   0.683067  -0.084072   0.016931
     4  C    1.189526  -0.934355   0.683067  12.014226  -0.373762  -0.159447
     5  C   -0.067636  -0.093054  -0.084072  -0.373762  10.214582   0.931457
     6  C   -0.063462  -0.015644   0.016931  -0.159447   0.931457   6.699650
     7  C   -0.044996  -0.006082  -0.010611   0.085998  -1.344095  -0.131633
     8  C    0.376322   0.004331  -0.124246  -0.159880   2.742227   0.028751
     9  C   -0.866379  -1.031599   0.256260   0.670036  -0.715990   0.285287
    10  C   -0.965844  -0.053742  -0.054095  -2.891279  -2.003096  -0.650645
    11  C    0.689209  -0.614436   0.588977   0.130213  -1.672559   0.039793
    12  C   -1.599903   0.639794  -1.482276  -2.054334   0.383596  -0.479528
    13  C    0.388802  -0.227680  -0.345767  -1.462091  -1.123259   1.227120
    14  C   -1.388455  -0.456120   0.094546  -1.099048  -1.136004  -1.603780
    15  H    0.367401  -0.094723  -0.004093   0.013843   0.007861   0.001520
    16  H   -0.016519   0.380475  -0.026954   0.029499  -0.002273  -0.000437
    17  H   -0.009924  -0.031173   0.398645  -0.074652  -0.000069   0.000448
    18  H    0.038408   0.005553  -0.074952   0.506554   0.003443  -0.005195
    19  H   -0.029439  -0.006873   0.049310  -0.108704  -0.056216   0.053911
    20  H    0.005115   0.002167  -0.005507   0.008185   0.439964  -0.081991
    21  H   -0.001059  -0.000430   0.000348   0.000478  -0.057484   0.350844
    22  H   -0.000276   0.000162  -0.000218  -0.000586   0.002531  -0.005973
    23  H    0.008060  -0.001115   0.000737   0.000314   0.034895   0.009645
    24  H    0.047622   0.018301  -0.000369  -0.005989  -0.019736  -0.002924
    25  H    0.047622   0.018301  -0.000369  -0.005989  -0.019736  -0.002924
               7          8          9         10         11         12
     1  C   -0.044996   0.376322  -0.866379  -0.965844   0.689209  -1.599903
     2  C   -0.006082   0.004331  -1.031599  -0.053742  -0.614436   0.639794
     3  C   -0.010611  -0.124246   0.256260  -0.054095   0.588977  -1.482276
     4  C    0.085998  -0.159880   0.670036  -2.891279   0.130213  -2.054334
     5  C   -1.344095   2.742227  -0.715990  -2.003096  -1.672559   0.383596
     6  C   -0.131633   0.028751   0.285287  -0.650645   0.039793  -0.479528
     7  C    7.504250  -0.859516  -0.770571   0.593407  -0.436869   0.137304
     8  C   -0.859516  10.264486  -1.265759  -1.554773   0.215284  -0.847058
     9  C   -0.770571  -1.265759   9.847547   0.164047   1.641123  -2.698870
    10  C    0.593407  -1.554773   0.164047   8.974030  -0.039507   2.258901
    11  C   -0.436869   0.215284   1.641123  -0.039507  15.082793  -5.494896
    12  C    0.137304  -0.847058  -2.698870   2.258901  -5.494896  18.321267
    13  C   -0.935530  -0.057854   0.942608  -0.622707   1.012870  -4.464496
    14  C    2.353763  -3.304504  -1.023901   2.357656  -4.637298   2.829252
    15  H   -0.003576   0.004206   0.069230  -0.001544  -0.038467   0.025484
    16  H    0.000468   0.001727  -0.001428  -0.014228   0.023129  -0.026740
    17  H   -0.000300  -0.001712  -0.001320   0.018547  -0.011554   0.055919
    18  H    0.002386   0.006107  -0.011334  -0.018974  -0.002913  -0.039955
    19  H   -0.009743  -0.052069   0.066675   0.421027   0.088885  -0.164221
    20  H   -0.001609   0.061422  -0.028368   0.029478  -0.015686   0.016937
    21  H    0.020341  -0.053374  -0.007982   0.018996  -0.005998   0.004306
    22  H    0.360937  -0.015177   0.002588  -0.003809  -0.000164  -0.003253
    23  H   -0.123631   0.383653   0.105552  -0.016893   0.024394  -0.000354
    24  H    0.009943   0.002732   0.366055   0.007781   0.044277  -0.057048
    25  H    0.009943   0.002732   0.366055   0.007781   0.044277  -0.057048
              13         14         15         16         17         18
     1  C    0.388802  -1.388455   0.367401  -0.016519  -0.009924   0.038408
     2  C   -0.227680  -0.456120  -0.094723   0.380475  -0.031173   0.005553
     3  C   -0.345767   0.094546  -0.004093  -0.026954   0.398645  -0.074952
     4  C   -1.462091  -1.099048   0.013843   0.029499  -0.074652   0.506554
     5  C   -1.123259  -1.136004   0.007861  -0.002273  -0.000069   0.003443
     6  C    1.227120  -1.603780   0.001520  -0.000437   0.000448  -0.005195
     7  C   -0.935530   2.353763  -0.003576   0.000468  -0.000300   0.002386
     8  C   -0.057854  -3.304504   0.004206   0.001727  -0.001712   0.006107
     9  C    0.942608  -1.023901   0.069230  -0.001428  -0.001320  -0.011334
    10  C   -0.622707   2.357656  -0.001544  -0.014228   0.018547  -0.018974
    11  C    1.012870  -4.637298  -0.038467   0.023129  -0.011554  -0.002913
    12  C   -4.464496   2.829252   0.025484  -0.026740   0.055919  -0.039955
    13  C   14.162237  -1.961458  -0.016813   0.004499  -0.006490  -0.015863
    14  C   -1.961458  14.676112   0.009507  -0.014728   0.006210  -0.052898
    15  H   -0.016813   0.009507   0.427761  -0.007440   0.001924   0.000165
    16  H    0.004499  -0.014728  -0.007440   0.404169  -0.007153   0.002351
    17  H   -0.006490   0.006210   0.001924  -0.007153   0.420146  -0.011814
    18  H   -0.015863  -0.052898   0.000165   0.002351  -0.011814   0.440488
    19  H    0.102109   0.019504   0.000650  -0.000707   0.002503  -0.005529
    20  H   -0.000237  -0.095626  -0.000170   0.000035  -0.000229   0.001327
    21  H   -0.026138   0.102054   0.000025  -0.000008   0.000009  -0.000078
    22  H    0.020034  -0.019142  -0.000117   0.000007  -0.000005   0.000007
    23  H   -0.040913  -0.066059   0.000518  -0.000130   0.000002  -0.000093
    24  H   -0.022240  -0.056365  -0.001179   0.000554  -0.000101   0.000050
    25  H   -0.022240  -0.056365  -0.001179   0.000554  -0.000101   0.000050
              19         20         21         22         23         24
     1  C   -0.029439   0.005115  -0.001059  -0.000276   0.008060   0.047622
     2  C   -0.006873   0.002167  -0.000430   0.000162  -0.001115   0.018301
     3  C    0.049310  -0.005507   0.000348  -0.000218   0.000737  -0.000369
     4  C   -0.108704   0.008185   0.000478  -0.000586   0.000314  -0.005989
     5  C   -0.056216   0.439964  -0.057484   0.002531   0.034895  -0.019736
     6  C    0.053911  -0.081991   0.350844  -0.005973   0.009645  -0.002924
     7  C   -0.009743  -0.001609   0.020341   0.360937  -0.123631   0.009943
     8  C   -0.052069   0.061422  -0.053374  -0.015177   0.383653   0.002732
     9  C    0.066675  -0.028368  -0.007982   0.002588   0.105552   0.366055
    10  C    0.421027   0.029478   0.018996  -0.003809  -0.016893   0.007781
    11  C    0.088885  -0.015686  -0.005998  -0.000164   0.024394   0.044277
    12  C   -0.164221   0.016937   0.004306  -0.003253  -0.000354  -0.057048
    13  C    0.102109  -0.000237  -0.026138   0.020034  -0.040913  -0.022240
    14  C    0.019504  -0.095626   0.102054  -0.019142  -0.066059  -0.056365
    15  H    0.000650  -0.000170   0.000025  -0.000117   0.000518  -0.001179
    16  H   -0.000707   0.000035  -0.000008   0.000007  -0.000130   0.000554
    17  H    0.002503  -0.000229   0.000009  -0.000005   0.000002  -0.000101
    18  H   -0.005529   0.001327  -0.000078   0.000007  -0.000093   0.000050
    19  H    0.454400  -0.009707   0.000608  -0.000409   0.000118   0.000657
    20  H   -0.009707   0.471185  -0.008193   0.001615  -0.000293   0.000346
    21  H    0.000608  -0.008193   0.424438  -0.003906   0.000631  -0.000163
    22  H   -0.000409   0.001615  -0.003906   0.428446  -0.007651   0.000630
    23  H    0.000118  -0.000293   0.000631  -0.007651   0.456342  -0.000335
    24  H    0.000657   0.000346  -0.000163   0.000630  -0.000335   0.485647
    25  H    0.000657   0.000346  -0.000163   0.000630  -0.000335  -0.075266
              25
     1  C    0.047622
     2  C    0.018301
     3  C   -0.000369
     4  C   -0.005989
     5  C   -0.019736
     6  C   -0.002924
     7  C    0.009943
     8  C    0.002732
     9  C    0.366055
    10  C    0.007781
    11  C    0.044277
    12  C   -0.057048
    13  C   -0.022240
    14  C   -0.056365
    15  H   -0.001179
    16  H    0.000554
    17  H   -0.000101
    18  H    0.000050
    19  H    0.000657
    20  H    0.000346
    21  H   -0.000163
    22  H    0.000630
    23  H   -0.000335
    24  H   -0.075266
    25  H    0.485647
 Mulliken charges:
               1
     1  C    0.021353
     2  C   -0.428612
     3  C   -0.416216
     4  C   -0.001824
     5  C    0.008484
     6  C   -0.441775
     7  C   -0.399977
     8  C    0.201943
     9  C   -0.359562
    10  C    0.039485
    11  C   -0.654876
    12  C    0.797217
    13  C   -0.508504
    14  C    0.523145
    15  H    0.239206
    16  H    0.271278
    17  H    0.252244
    18  H    0.232710
    19  H    0.182603
    20  H    0.209491
    21  H    0.241901
    22  H    0.243100
    23  H    0.232946
    24  H    0.257121
    25  H    0.257121
 Sum of Mulliken charges =   1.00000
 Mulliken charges with hydrogens summed into heavy atoms:
               1
     1  C    0.260559
     2  C   -0.157335
     3  C   -0.163972
     4  C    0.230886
     5  C    0.217975
     6  C   -0.199874
     7  C   -0.156877
     8  C    0.434888
     9  C    0.154680
    10  C    0.222088
    11  C   -0.654876
    12  C    0.797217
    13  C   -0.508504
    14  C    0.523145
 Electronic spatial extent (au):  <R**2>=           2858.2606
 Charge=              1.0000 electrons
 Dipole moment (field-independent basis, Debye):
    X=             -1.3739    Y=             -2.5807    Z=              0.0000  Tot=              2.9236
 Quadrupole moment (field-independent basis, Debye-Ang):
   XX=            -52.1328   YY=            -34.5221   ZZ=            -84.0128
   XY=              9.8465   XZ=             -0.0000   YZ=              0.0000
 Traceless Quadrupole moment (field-independent basis, Debye-Ang):
   XX=              4.7564   YY=             22.3672   ZZ=            -27.1236
   XY=              9.8465   XZ=             -0.0000   YZ=              0.0000
 Octapole moment (field-independent basis, Debye-Ang**2):
  XXX=            -11.3464  YYY=            -17.2057  ZZZ=              0.0000  XYY=             -5.8549
  XXY=            -13.5457  XXZ=              0.0000  XZZ=             -5.0123  YZZ=             -2.9701
  YYZ=              0.0000  XYZ=             -0.0000
 Hexadecapole moment (field-independent basis, Debye-Ang**3):
 XXXX=           -961.9632 YYYY=          -1862.7658 ZZZZ=            -99.1554 XXXY=           -338.7568
 XXXZ=             -0.0000 YYYX=           -262.7979 YYYZ=              0.0000 ZZZX=             -0.0000
 ZZZY=              0.0000 XXYY=           -456.6821 XXZZ=           -233.5570 YYZZ=           -501.8259
 XXYZ=              0.0000 YYXZ=             -0.0000 ZZXY=           -176.8907
 N-N= 7.818859372238D+02 E-N=-2.800293056450D+03  KE= 5.378526673914D+02
 Symmetry A'   KE= 5.231307949504D+02
 Symmetry A"   KE= 1.472187244095D+01
 Unable to Open any file for archive entry.
 1\1\GINC-GADI-CPU-CLX-1538\SP\RM062X TD-FC\6-311++G(d,p)\C14H11(1+)\TS
 1578\27-Jul-2022\0\\#n M062X/6-311++G(d,p) TD(NStates=1) EmpiricalDisp
 ersion=GD3 SP\\SP_1\\1,1\C,0,0.,2.420655,1.361431\C,0,0.,3.605508,0.63
 0989\C,0,0.,3.636861,-0.79483\C,0,0.,2.565156,-1.450538\C,0,0.,-2.3611
 56,-1.364538\C,0,0.,-3.730861,-0.63283\C,0,0.,-3.797508,0.712989\C,0,0
 .,-2.564655,1.359431\C,0,0.,-0.048,1.453369\C,0,0.,0.129,-1.429189\C,0
 ,0.,1.312055,0.717065\C,0,0.,1.291471,-0.717804\C,0,0.,-1.212055,0.637
 065\C,0,0.,-1.183471,-0.743804\H,0,0.,2.432071,2.443647\H,0,0.,4.53075
 3,1.191689\H,0,0.,4.590262,-1.302349\H,0,0.,2.54755,-2.532059\H,0,0.,0
 .14,-2.510266\H,0,0.,-2.38755,-2.448059\H,0,0.,-4.628262,-1.242349\H,0
 ,0.,-4.742753,1.231689\H,0,0.,-2.544071,2.443647\H,0,-0.859585,-0.246,
 2.145787\H,0,0.859585,-0.246,2.145787\\Version=ES64L-G16RevC.01\State=
 1-A'\HF=-539.6730986\RMSD=4.739e-09\PG=CS [SG(C14H9),X(H2)]\\@
 The archive entry for this job was punched.


 "MATHEMATICS IS THE ART OF GIVING THE SAME NAME
 TO DIFFERENT THINGS."
                    - H. POINCARE
 Job cpu time:       0 days  0 hours 46 minutes 31.2 seconds.
 Elapsed time:       0 days  0 hours  1 minutes 29.9 seconds.
 File lengths (MBytes):  RWF=    460 Int=      0 D2E=      0 Chk=     15 Scr=      1
 Normal termination of Gaussian 16 at Wed Jul 27 11:45:57 2022.
