 Entering Gaussian System, Link 0=g16
 Initial command:
 /apps/gaussian/g16c01/g16/l1.exe "/jobfs/52815815.gadi-pbs/Gau-2300297.inp" -scrdir="/jobfs/52815815.gadi-pbs/"
 Entering Link 1 = /apps/gaussian/g16c01/g16/l1.exe PID=   2300298.
  
 Copyright (c) 1988-2019, Gaussian, Inc.  All Rights Reserved.
  
 This is part of the Gaussian(R) 16 program.  It is based on
 the Gaussian(R) 09 system (copyright 2009, Gaussian, Inc.),
 the Gaussian(R) 03 system (copyright 2003, Gaussian, Inc.),
 the Gaussian(R) 98 system (copyright 1998, Gaussian, Inc.),
 the Gaussian(R) 94 system (copyright 1995, Gaussian, Inc.),
 the Gaussian 92(TM) system (copyright 1992, Gaussian, Inc.),
 the Gaussian 90(TM) system (copyright 1990, Gaussian, Inc.),
 the Gaussian 88(TM) system (copyright 1988, Gaussian, Inc.),
 the Gaussian 86(TM) system (copyright 1986, Carnegie Mellon
 University), and the Gaussian 82(TM) system (copyright 1983,
 Carnegie Mellon University). Gaussian is a federally registered
 trademark of Gaussian, Inc.
  
 This software contains proprietary and confidential information,
 including trade secrets, belonging to Gaussian, Inc.
  
 This software is provided under written license and may be
 used, copied, transmitted, or stored only in accord with that
 written license.
  
 The following legend is applicable only to US Government
 contracts under FAR:
  
                    RESTRICTED RIGHTS LEGEND
  
 Use, reproduction and disclosure by the US Government is
 subject to restrictions as set forth in subparagraphs (a)
 and (c) of the Commercial Computer Software - Restricted
 Rights clause in FAR 52.227-19.
  
 Gaussian, Inc.
 340 Quinnipiac St., Bldg. 40, Wallingford CT 06492
  
  
 ---------------------------------------------------------------
 Warning -- This program may not be used in any manner that
 competes with the business of Gaussian, Inc. or will provide
 assistance to any competitor of Gaussian, Inc.  The licensee
 of this program is prohibited from giving any competitor of
 Gaussian, Inc. access to this program.  By using this program,
 the user acknowledges that Gaussian, Inc. is engaged in the
 business of creating and licensing software in the field of
 computational chemistry and represents and warrants to the
 licensee that it is not a competitor of Gaussian, Inc. and that
 it will not use this program in any manner prohibited above.
 ---------------------------------------------------------------
  

 Cite this work as:
 Gaussian 16, Revision C.01,
 M. J. Frisch, G. W. Trucks, H. B. Schlegel, G. E. Scuseria, 
 M. A. Robb, J. R. Cheeseman, G. Scalmani, V. Barone, 
 G. A. Petersson, H. Nakatsuji, X. Li, M. Caricato, A. V. Marenich, 
 J. Bloino, B. G. Janesko, R. Gomperts, B. Mennucci, H. P. Hratchian, 
 J. V. Ortiz, A. F. Izmaylov, J. L. Sonnenberg, D. Williams-Young, 
 F. Ding, F. Lipparini, F. Egidi, J. Goings, B. Peng, A. Petrone, 
 T. Henderson, D. Ranasinghe, V. G. Zakrzewski, J. Gao, N. Rega, 
 G. Zheng, W. Liang, M. Hada, M. Ehara, K. Toyota, R. Fukuda, 
 J. Hasegawa, M. Ishida, T. Nakajima, Y. Honda, O. Kitao, H. Nakai, 
 T. Vreven, K. Throssell, J. A. Montgomery, Jr., J. E. Peralta, 
 F. Ogliaro, M. J. Bearpark, J. J. Heyd, E. N. Brothers, K. N. Kudin, 
 V. N. Staroverov, T. A. Keith, R. Kobayashi, J. Normand, 
 K. Raghavachari, A. P. Rendell, J. C. Burant, S. S. Iyengar, 
 J. Tomasi, M. Cossi, J. M. Millam, M. Klene, C. Adamo, R. Cammi, 
 J. W. Ochterski, R. L. Martin, K. Morokuma, O. Farkas, 
 J. B. Foresman, and D. J. Fox, Gaussian, Inc., Wallingford CT, 2019.
 
 ******************************************
 Gaussian 16:  ES64L-G16RevC.01  3-Jul-2019
                27-Jul-2022 
 ******************************************
 %NProcShared=32
 Will use up to   32 processors via shared memory.
 %mem = 128GB
 ---------------------------------------------------------------
 #n M062X/6-311++G(d,p) TD(NStates=1) EmpiricalDispersion=GD3 SP
 ---------------------------------------------------------------
 1/38=1,172=1/1;
 2/12=2,17=6,18=5,40=1/2;
 3/5=4,6=6,7=1111,11=9,25=1,30=1,74=-55,124=31/1,2,3,8;
 4//1;
 5/5=2,38=5/2;
 8/6=1,10=2,108=1/1;
 9/41=1,42=1,70=2/14;
 6/7=2,8=2,9=2,10=2/1;
 99/5=1,9=1/99;
 ----
 SP_5
 ----
 Symbolic Z-matrix:
 Charge =  1 Multiplicity = 1
 C                     0.        2.53266   1.36543 
 C                     0.        3.67151   0.66699 
 C                     0.        3.67386  -0.71883 
 C                     0.        2.47316  -1.42254 
 C                     0.       -2.45316  -1.39254 
 C                     0.       -3.69386  -0.70883 
 C                     0.       -3.73151   0.67699 
 C                     0.       -2.45266   1.35543 
 C                     0.       -0.04      1.45337 
 C                     0.       -0.08     -1.42919 
 C                     0.        1.28706   0.60207 
 C                     0.        1.28247  -0.6408 
 C                     0.       -1.23706   0.75207 
 C                     0.       -1.19247  -0.8208 
 H                     0.        2.33307   2.44365 
 H                     0.        4.55675   1.28669 
 H                     0.        4.53926  -1.37235 
 H                     0.        2.64255  -2.50006 
 H                     0.        0.075    -2.51027 
 H                     0.       -2.29255  -2.48006 
 H                     0.       -4.67926  -1.17235 
 H                     0.       -4.71675   1.13669 
 H                     0.       -2.64307   2.44365 
 H                    -0.85959  -0.13      2.14579 
 H                     0.85959  -0.13      2.14579 
 
                          Input orientation:                          
 ---------------------------------------------------------------------
 Center     Atomic      Atomic             Coordinates (Angstroms)
 Number     Number       Type             X           Y           Z
 ---------------------------------------------------------------------
      1          6           0        0.000000    2.532655    1.365431
      2          6           0        0.000000    3.671508    0.666989
      3          6           0        0.000000    3.673861   -0.718830
      4          6           0        0.000000    2.473156   -1.422538
      5          6           0        0.000000   -2.453156   -1.392538
      6          6           0        0.000000   -3.693861   -0.708830
      7          6           0        0.000000   -3.731508    0.676989
      8          6           0        0.000000   -2.452655    1.355431
      9          6           0        0.000000   -0.040000    1.453369
     10          6           0        0.000000   -0.080000   -1.429189
     11          6           0        0.000000    1.287055    0.602065
     12          6           0        0.000000    1.282471   -0.640804
     13          6           0        0.000000   -1.237055    0.752065
     14          6           0        0.000000   -1.192471   -0.820804
     15          1           0        0.000000    2.333071    2.443647
     16          1           0        0.000000    4.556753    1.286689
     17          1           0        0.000000    4.539262   -1.372349
     18          1           0        0.000000    2.642550   -2.500059
     19          1           0        0.000000    0.075000   -2.510266
     20          1           0        0.000000   -2.292550   -2.480059
     21          1           0        0.000000   -4.679262   -1.172349
     22          1           0        0.000000   -4.716753    1.136689
     23          1           0        0.000000   -2.643071    2.443647
     24          1           0       -0.859585   -0.130000    2.145787
     25          1           0        0.859585   -0.130000    2.145787
 ---------------------------------------------------------------------
                    Distance matrix (angstroms):
                    1          2          3          4          5
     1  C    0.000000
     2  C    1.335967   0.000000
     3  C    2.376235   1.385821   0.000000
     4  C    2.788604   2.408770   1.391725   0.000000
     5  C    5.697781   6.461669   6.163945   4.926403   0.000000
     6  C    6.562931   7.492766   7.367729   6.208178   1.416618
     7  C    6.301880   7.403023   7.535768   6.550257   2.432514
     8  C    4.985320   6.162737   6.468134   5.655150   2.747969
     9  C    2.574158   3.793901   4.302466   3.819266   3.731288
    10  C    3.825685   4.297415   3.820482   2.553165   2.373439
    11  C    1.460906   2.385337   2.727931   2.346455   4.238823
    12  C    2.363882   2.723568   2.392663   1.424373   3.810513
    13  C    3.819284   4.909300   5.126464   4.300531   2.465405
    14  C    4.319281   5.086435   4.867400   3.714688   1.384271
    15  H    1.096532   2.224394   3.434964   3.868722   6.133864
    16  H    2.025629   1.080596   2.191256   3.417790   7.504471
    17  H    3.394394   2.216280   1.084438   2.066715   6.992447
    18  H    3.867052   3.330007   2.058247   1.090755   5.214674
    19  H    4.589237   4.798939   4.020080   2.633307   2.764216
    20  H    6.170121   6.743434   6.220931   4.881629   1.099316
    21  H    7.645396   8.550937   8.365425   7.156792   2.236969
    22  H    7.253016   8.401401   8.593332   7.631804   3.394239
    23  H    5.286841   6.559758   7.064339   6.412735   3.840883
    24  H    2.904750   4.168596   4.838830   4.499806   4.319223
    25  H    2.904750   4.168596   4.838830   4.499806   4.319223
                    6          7          8          9         10
     6  C    0.000000
     7  C    1.386330   0.000000
     8  C    2.408685   1.447670   0.000000
     9  C    4.245681   3.772267   2.414642   0.000000
    10  C    3.684957   4.215388   3.658360   2.882836   0.000000
    11  C    5.150531   5.019122   3.814838   1.576640   2.448435
    12  C    4.976797   5.184261   4.235106   2.476790   1.574128
    13  C    2.858340   2.495583   1.357105   1.387360   2.469139
    14  C    2.503895   2.947896   2.514769   2.549520   1.267961
    15  H    6.801619   6.316660   4.907890   2.571404   4.563088
    16  H    8.488506   8.310656   7.009745   4.599774   5.373590
    17  H    8.259817   8.520882   7.505177   5.380922   4.619612
    18  H    6.584725   7.121955   6.389516   4.777622   2.925584
    19  H    4.177258   4.964685   4.618729   3.965303   1.092132
    20  H    2.258523   3.469518   3.838830   4.532752   2.449430
    21  H    1.088974   2.078049   3.368598   5.330774   4.606428
    22  H    2.110035   1.087213   2.274640   4.687463   5.299359
    23  H    3.322991   2.075036   1.104750   2.785073   4.644157
    24  H    4.646378   3.983355   2.599668   1.107443   3.677205
    25  H    4.646378   3.983355   2.599668   1.107443   3.677205
                   11         12         13         14         15
    11  C    0.000000
    12  C    1.242877   0.000000
    13  C    2.528563   2.878905   0.000000
    14  C    2.858777   2.481479   1.573501   0.000000
    15  H    2.117917   3.258466   3.950601   4.804798   0.000000
    16  H    3.340604   3.799494   5.818422   6.123325   2.506654
    17  H    3.804624   3.337940   6.154590   5.758208   4.407846
    18  H    3.385342   2.303615   5.062375   4.186560   4.953383
    19  H    3.340012   2.225505   3.516290   2.112052   5.444276
    20  H    4.723670   4.020402   3.400102   1.990804   6.755683
    21  H    6.224587   5.985382   3.943622   3.504468   7.889755
    22  H    6.027564   6.257010   3.500890   4.031419   7.169948
    23  H    4.340198   4.992366   2.199621   3.572237   4.976142
    24  H    2.264952   3.240224   1.976593   3.266251   2.625705
    25  H    2.264952   3.240224   1.976593   3.266251   2.625705
                   16         17         18         19         20
    16  H    0.000000
    17  H    2.659096   0.000000
    18  H    4.243069   2.206637   0.000000
    19  H    5.873923   4.607004   2.567570   0.000000
    20  H    7.816735   6.921031   4.935141   2.367743   0.000000
    21  H    9.557763   9.220693   7.441219   4.938930   2.721488
    22  H    9.274719   9.590051   8.208854   6.021725   4.354036
    23  H    7.292189   8.133126   7.237266   5.650590   4.936167
    24  H    4.841755   5.909160   5.478121   4.739171   5.178220
    25  H    4.841755   5.909160   5.478121   4.739171   5.178220
                   21         22         23         24         25
    21  H    0.000000
    22  H    2.309342   0.000000
    23  H    4.149880   2.451183   0.000000
    24  H    5.696025   4.774460   2.672664   0.000000
    25  H    5.696025   4.774460   2.672664   1.719170   0.000000
 Stoichiometry    C14H11(1+)
 Framework group  CS[SG(C14H9),X(H2)]
 Deg. of freedom    46
 Full point group                 CS      NOp   2
 Largest Abelian subgroup         CS      NOp   2
 Largest concise Abelian subgroup CS      NOp   2
                         Standard orientation:                         
 ---------------------------------------------------------------------
 Center     Atomic      Atomic             Coordinates (Angstroms)
 Number     Number       Type             X           Y           Z
 ---------------------------------------------------------------------
      1          6           0        0.164604    2.874471    0.000000
      2          6           0       -0.950120    3.610813    0.000000
      3          6           0       -2.206760    3.026556    0.000000
      4          6           0       -2.336306    1.640874    0.000000
      5          6           0       -0.224629   -2.809999    0.000000
      6          6           0        0.919841   -3.644860    0.000000
      7          6           0        2.191416   -3.092582    0.000000
      8          6           0        2.265002   -1.646784    0.000000
      9          6           0        1.332862    0.580684    0.000000
     10          6           0       -1.262003   -0.675270    0.000000
     11          6           0        0.000000    1.422868    0.000000
     12          6           0       -1.124183    0.892813    0.000000
     13          6           0        1.203949   -0.800674    0.000000
     14          6           0       -0.240040   -1.425814    0.000000
     15          1           0        1.225990    3.149866    0.000000
     16          1           0       -0.763209    4.675120    0.000000
     17          1           0       -3.165073    3.534140    0.000000
     18          1           0       -3.384288    1.338419    0.000000
     19          1           0       -2.307117   -0.992271    0.000000
     20          1           0       -1.277954   -3.124648    0.000000
     21          1           0        0.916820   -4.733830    0.000000
     22          1           0        3.024826   -3.790765    0.000000
     23          1           0        3.331570   -1.358851    0.000000
     24          1           0        1.998321    0.792124    0.859585
     25          1           0        1.998321    0.792124   -0.859585
 ---------------------------------------------------------------------
 Rotational constants (GHZ):           2.1329856           0.4444681           0.3686211
 Standard basis: 6-311++G(d,p) (5D, 7F)
 There are   299 symmetry adapted cartesian basis functions of A'  symmetry.
 There are   100 symmetry adapted cartesian basis functions of A"  symmetry.
 There are   285 symmetry adapted basis functions of A'  symmetry.
 There are   100 symmetry adapted basis functions of A"  symmetry.
   385 basis functions,   603 primitive gaussians,   399 cartesian basis functions
    47 alpha electrons       47 beta electrons
       nuclear repulsion energy       781.7694845403 Hartrees.
 NAtoms=   25 NActive=   25 NUniq=   24 SFac= 1.09D+00 NAtFMM=   60 NAOKFM=F Big=F
 Integral buffers will be    131072 words long.
 Regular integral format.
 Two-electron integral symmetry is turned on.
 Nuclear repulsion after empirical dispersion term =      781.7685054789 Hartrees.
 One-electron integrals computed using PRISM.
 NBasis=   385 RedAO= T EigKep=  2.84D-06  NBF=   285   100
 NBsUse=   378 1.00D-06 EigRej=  9.02D-07 NBFU=   278   100
 ExpMin= 3.60D-02 ExpMax= 4.56D+03 ExpMxC= 6.82D+02 IAcc=3 IRadAn=         5 AccDes= 0.00D+00
 Harris functional with IExCor= 1009 and IRadAn=       5 diagonalized for initial guess.
 HarFok:  IExCor= 1009 AccDes= 0.00D+00 IRadAn=         5 IDoV= 1 UseB2=F ITyADJ=14
 ICtDFT=  3500011 ScaDFX=  1.000000  1.000000  1.000000  1.000000
 FoFCou: FMM=F IPFlag=           0 FMFlag=      100000 FMFlg1=           0
         NFxFlg=           0 DoJE=T BraDBF=F KetDBF=T FulRan=T
         wScrn=  0.000000 ICntrl=       500 IOpCl=  0 I1Cent=   200000004 NGrid=           0
         NMat0=    1 NMatS0=      1 NMatT0=    0 NMatD0=    1 NMtDS0=    0 NMtDT0=    0
 Petite list used in FoFCou.
 Initial guess orbital symmetries:
       Occupied  (A') (A') (A') (A') (A') (A') (A') (A') (A') (A')
                 (A') (A') (A') (A') (A') (A') (A') (A') (A') (A')
                 (A') (A') (A') (A') (A') (A') (A') (A') (A') (A')
                 (A') (A") (A') (A') (A') (A') (A') (A') (A") (A')
                 (A") (A') (A') (A") (A") (A") (A")
       Virtual   (A") (A") (A") (A") (A") (A') (A') (A') (A') (A")
                 (A') (A') (A") (A') (A') (A') (A") (A') (A') (A')
                 (A') (A") (A') (A") (A') (A") (A') (A') (A") (A')
                 (A') (A') (A') (A") (A') (A') (A') (A") (A') (A")
                 (A') (A') (A') (A') (A") (A') (A') (A') (A") (A')
                 (A") (A') (A") (A') (A') (A') (A') (A") (A") (A')
                 (A') (A') (A') (A') (A') (A") (A') (A') (A') (A")
                 (A') (A') (A') (A') (A') (A') (A') (A') (A') (A')
                 (A') (A') (A') (A') (A') (A') (A') (A') (A') (A')
                 (A') (A') (A') (A') (A') (A") (A') (A") (A') (A")
                 (A') (A") (A') (A') (A") (A") (A') (A') (A") (A")
                 (A') (A') (A") (A') (A') (A") (A') (A") (A") (A')
                 (A") (A') (A') (A') (A") (A') (A') (A') (A") (A')
                 (A') (A') (A') (A') (A') (A') (A') (A') (A") (A')
                 (A') (A') (A') (A') (A') (A') (A') (A') (A") (A")
                 (A') (A") (A') (A") (A') (A") (A') (A") (A') (A")
                 (A') (A") (A") (A") (A') (A') (A') (A') (A') (A')
                 (A") (A') (A') (A') (A") (A') (A') (A') (A') (A")
                 (A') (A') (A") (A') (A') (A") (A") (A") (A') (A")
                 (A') (A') (A') (A") (A') (A') (A") (A') (A") (A')
                 (A") (A") (A') (A') (A") (A") (A') (A') (A') (A')
                 (A") (A") (A') (A') (A") (A') (A") (A') (A') (A')
                 (A') (A") (A') (A') (A") (A") (A') (A') (A') (A")
                 (A') (A') (A") (A') (A') (A") (A') (A') (A") (A")
                 (A') (A') (A') (A') (A") (A') (A') (A') (A') (A")
                 (A') (A') (A") (A") (A') (A") (A') (A') (A') (A')
                 (A') (A") (A") (A') (A') (A") (A') (A') (A") (A')
                 (A') (A") (A') (A') (A") (A') (A") (A') (A') (A")
                 (A') (A") (A') (A") (A') (A") (A') (A') (A') (A')
                 (A') (A') (A') (A') (A') (A') (A') (A') (A') (A')
                 (A') (A') (A') (A") (A') (A') (A') (A') (A') (A')
                 (A') (A') (A') (A') (A') (A') (A') (A') (A') (A')
                 (A') (A') (A') (A') (A') (A') (A') (A') (A') (A')
                 (A')
 The electronic state of the initial guess is 1-A'.
 Requested convergence on RMS density matrix=1.00D-08 within 128 cycles.
 Requested convergence on MAX density matrix=1.00D-06.
 Requested convergence on             energy=1.00D-06.
 No special actions if energy rises.
 SCF Done:  E(RM062X) =  -539.653562773     A.U. after   15 cycles
            NFock= 15  Conv=0.38D-08     -V/T= 2.0033
 DoSCS=F DFT=T ScalE2(SS,OS)=  1.000000  1.000000
 ExpMin= 3.60D-02 ExpMax= 4.56D+03 ExpMxC= 6.82D+02 IAcc=3 IRadAn=         5 AccDes= 0.00D+00
 HarFok:  IExCor=  205 AccDes= 0.00D+00 IRadAn=         5 IDoV=-2 UseB2=F ITyADJ=14
 ICtDFT= 12500011 ScaDFX=  1.000000  1.000000  1.000000  1.000000
 Range of M.O.s used for correlation:    15   378
 NBasis=   385 NAE=    47 NBE=    47 NFC=    14 NFV=     0
 NROrb=    364 NOA=    33 NOB=    33 NVA=   331 NVB=   331

 **** Warning!!: The largest alpha MO coefficient is  0.10396540D+03

 Orbital symmetries:
       Occupied  (A') (A') (A') (A') (A') (A') (A') (A') (A') (A')
                 (A') (A') (A') (A') (A') (A') (A') (A') (A') (A')
                 (A') (A') (A') (A') (A') (A') (A') (A') (A') (A')
                 (A") (A') (A') (A') (A') (A') (A') (A") (A') (A")
                 (A') (A') (A") (A') (A") (A") (A")
       Virtual   (A") (A") (A") (A") (A') (A') (A') (A') (A") (A')
                 (A') (A") (A') (A') (A") (A') (A") (A') (A') (A')
                 (A") (A") (A') (A') (A') (A") (A') (A") (A') (A')
                 (A') (A") (A') (A") (A') (A') (A') (A') (A") (A')
                 (A') (A') (A") (A') (A") (A") (A") (A') (A') (A')
                 (A') (A') (A") (A') (A') (A") (A') (A') (A') (A')
                 (A') (A") (A') (A') (A') (A") (A') (A') (A') (A')
                 (A') (A') (A') (A') (A') (A') (A') (A') (A') (A')
                 (A') (A') (A') (A') (A') (A') (A') (A') (A') (A')
                 (A') (A') (A") (A') (A") (A') (A") (A') (A') (A")
                 (A') (A') (A') (A") (A") (A') (A") (A') (A") (A')
                 (A') (A") (A") (A') (A') (A') (A") (A") (A') (A")
                 (A') (A') (A") (A') (A') (A') (A") (A') (A') (A')
                 (A') (A') (A') (A') (A') (A') (A') (A') (A') (A')
                 (A') (A') (A') (A") (A') (A') (A') (A') (A') (A')
                 (A') (A") (A") (A') (A") (A') (A') (A") (A") (A")
                 (A") (A') (A') (A") (A') (A") (A') (A") (A') (A')
                 (A') (A') (A") (A') (A") (A') (A') (A") (A') (A')
                 (A') (A") (A') (A") (A') (A') (A") (A') (A") (A")
                 (A') (A') (A') (A") (A') (A") (A') (A') (A") (A')
                 (A") (A") (A') (A") (A') (A") (A') (A') (A') (A')
                 (A") (A') (A") (A') (A') (A") (A") (A') (A') (A')
                 (A") (A') (A') (A') (A") (A") (A') (A') (A") (A')
                 (A') (A') (A") (A') (A') (A") (A') (A') (A") (A")
                 (A') (A') (A') (A') (A") (A') (A') (A') (A') (A')
                 (A") (A') (A') (A") (A") (A') (A') (A') (A') (A")
                 (A') (A') (A') (A') (A") (A') (A') (A') (A') (A")
                 (A') (A") (A") (A') (A") (A') (A") (A') (A") (A")
                 (A') (A") (A') (A") (A') (A") (A') (A') (A') (A')
                 (A') (A') (A') (A') (A') (A') (A') (A') (A') (A')
                 (A') (A') (A') (A") (A') (A') (A') (A') (A') (A')
                 (A') (A') (A') (A') (A') (A') (A') (A') (A') (A')
                 (A') (A') (A') (A') (A') (A') (A') (A') (A') (A')
                 (A')
     4 initial guesses have been made.
 Convergence on wavefunction:    0.001000000000000
 Iteration     1 Dimension     4 NMult     0 NNew      4
 CISAX will form     4 AO SS matrices at one time.
 Iteration     2 Dimension     6 NMult     4 NNew      2
 Iteration     3 Dimension     8 NMult     6 NNew      2
 Iteration     4 Dimension    10 NMult     8 NNew      2
 Iteration     5 Dimension    12 NMult    10 NNew      2
 Iteration     6 Dimension    14 NMult    12 NNew      2
 ***********************************************************************
 Excited states from <AA,BB:AA,BB> singles matrix:
 ***********************************************************************
 
 Ground to excited state transition densities written to RWF  633
 Ground to excited state transition electric dipole moments (Au):
       state          X           Y           Z        Dip. S.      Osc.
         1        -0.5749      0.0567     -0.0000      0.3337      0.0219
 Ground to excited state transition velocity dipole moments (Au):
       state          X           Y           Z        Dip. S.      Osc.
         1         0.0629     -0.0047      0.0000      0.0040      0.0270
 Ground to excited state transition magnetic dipole moments (Au):
       state          X           Y           Z
         1         0.0000     -0.0000      0.6175
 Ground to excited state transition velocity quadrupole moments (Au):
       state          XX          YY          ZZ          XY          XZ          YZ
         1         0.0044     -0.2497      0.0101      0.0204     -0.0000     -0.0000
 <0|del|b> * <b|rxdel|0> + <0|del|b> * <b|delr+rdel|0>
 Rotatory Strengths (R) in cgs (10**-40 erg-esu-cm/Gauss)
       state          XX          YY          ZZ    R(velocity)    E-M Angle
         1         0.0000      0.0000      0.0000      0.0000       90.00
 1/2[<0|r|b>*<b|rxdel|0> + (<0|rxdel|b>*<b|r|0>)*]
 Rotatory Strengths (R) in cgs (10**-40 erg-esu-cm/Gauss)
       state          XX          YY          ZZ     R(length)
         1         0.0000      0.0000      0.0000      0.0000
  1/2[<0|del|b>*<b|r|0> + (<0|r|b>*<b|del|0>)*] (Au)
       state          X           Y           Z        Dip. S.   Osc.(frdel)
         1        -0.0362     -0.0003     -0.0000      0.0365      0.0243

 Excitation energies and oscillator strengths:
 
 Excited State   1:      Singlet-A'     2.6740 eV  463.67 nm  f=0.0219  <S**2>=0.000
      45 -> 48        -0.13792
      47 -> 48         0.68990
 This state for optimization and/or second-order correction.
 Total Energy, E(TD-HF/TD-DFT) =  -539.555296358    
 Copying the excited state density for this state as the 1-particle RhoCI density.
 SavETr:  write IOETrn=   770 NScale= 10 NData=  16 NLR=1 NState=    1 LETran=      28.

 **********************************************************************

            Population analysis using the SCF Density.

 **********************************************************************

 Orbital symmetries:
       Occupied  (A') (A') (A') (A') (A') (A') (A') (A') (A') (A')
                 (A') (A') (A') (A') (A') (A') (A') (A') (A') (A')
                 (A') (A') (A') (A') (A') (A') (A') (A') (A') (A')
                 (A") (A') (A') (A') (A') (A') (A') (A") (A') (A")
                 (A') (A') (A") (A') (A") (A") (A")
       Virtual   (A") (A") (A") (A") (A') (A') (A') (A') (A") (A')
                 (A') (A") (A') (A') (A") (A') (A") (A') (A') (A')
                 (A") (A") (A') (A') (A') (A") (A') (A") (A') (A')
                 (A') (A") (A') (A") (A') (A') (A') (A') (A") (A')
                 (A') (A') (A") (A') (A") (A") (A") (A') (A') (A')
                 (A') (A') (A") (A') (A') (A") (A') (A') (A') (A')
                 (A') (A") (A') (A') (A') (A") (A') (A') (A') (A')
                 (A') (A') (A') (A') (A') (A') (A') (A') (A') (A')
                 (A') (A') (A') (A') (A') (A') (A') (A') (A') (A')
                 (A') (A') (A") (A') (A") (A') (A") (A') (A') (A")
                 (A') (A') (A') (A") (A") (A') (A") (A') (A") (A')
                 (A') (A") (A") (A') (A') (A') (A") (A") (A') (A")
                 (A') (A') (A") (A') (A') (A') (A") (A') (A') (A')
                 (A') (A') (A') (A') (A') (A') (A') (A') (A') (A')
                 (A') (A') (A') (A") (A') (A') (A') (A') (A') (A')
                 (A') (A") (A") (A') (A") (A') (A') (A") (A") (A")
                 (A") (A') (A') (A") (A') (A") (A') (A") (A') (A')
                 (A') (A') (A") (A') (A") (A') (A') (A") (A') (A')
                 (A') (A") (A') (A") (A') (A') (A") (A') (A") (A")
                 (A') (A') (A') (A") (A') (A") (A') (A') (A") (A')
                 (A") (A") (A') (A") (A') (A") (A') (A') (A') (A')
                 (A") (A') (A") (A') (A') (A") (A") (A') (A') (A')
                 (A") (A') (A') (A') (A") (A") (A') (A') (A") (A')
                 (A') (A') (A") (A') (A') (A") (A') (A') (A") (A")
                 (A') (A') (A') (A') (A") (A') (A') (A') (A') (A')
                 (A") (A') (A') (A") (A") (A') (A') (A') (A') (A")
                 (A') (A') (A') (A') (A") (A') (A') (A') (A') (A")
                 (A') (A") (A") (A') (A") (A') (A") (A') (A") (A")
                 (A') (A") (A') (A") (A') (A") (A') (A') (A') (A')
                 (A') (A') (A') (A') (A') (A') (A') (A') (A') (A')
                 (A') (A') (A') (A") (A') (A') (A') (A') (A') (A')
                 (A') (A') (A') (A') (A') (A') (A') (A') (A') (A')
                 (A') (A') (A') (A') (A') (A') (A') (A') (A') (A')
                 (A')
 The electronic state is 1-A'.
 Alpha  occ. eigenvalues --  -10.76341 -10.75037 -10.74463 -10.74428 -10.72878
 Alpha  occ. eigenvalues --  -10.71713 -10.71453 -10.70961 -10.70766 -10.70379
 Alpha  occ. eigenvalues --  -10.69026 -10.68485 -10.67937 -10.67839  -1.16947
 Alpha  occ. eigenvalues --   -1.12677  -1.08146  -1.07053  -1.01129  -0.99562
 Alpha  occ. eigenvalues --   -0.96193  -0.92167  -0.85810  -0.85271  -0.82984
 Alpha  occ. eigenvalues --   -0.78671  -0.76189  -0.74245  -0.71817  -0.69405
 Alpha  occ. eigenvalues --   -0.68521  -0.68299  -0.66206  -0.65389  -0.63333
 Alpha  occ. eigenvalues --   -0.62038  -0.61463  -0.60794  -0.59933  -0.59718
 Alpha  occ. eigenvalues --   -0.56290  -0.54183  -0.53198  -0.51572  -0.47003
 Alpha  occ. eigenvalues --   -0.46577  -0.43711
 Alpha virt. eigenvalues --   -0.26511  -0.14984  -0.13149  -0.12112  -0.11305
 Alpha virt. eigenvalues --   -0.10250  -0.09473  -0.08063  -0.07661  -0.07495
 Alpha virt. eigenvalues --   -0.07246  -0.06707  -0.05658  -0.05607  -0.05587
 Alpha virt. eigenvalues --   -0.04001  -0.03742  -0.03407  -0.03122  -0.02111
 Alpha virt. eigenvalues --   -0.01338  -0.00945  -0.00412   0.00275   0.00322
 Alpha virt. eigenvalues --    0.00872   0.00985   0.01505   0.01575   0.01933
 Alpha virt. eigenvalues --    0.02385   0.02488   0.02949   0.03498   0.03825
 Alpha virt. eigenvalues --    0.04398   0.05082   0.05107   0.05190   0.05309
 Alpha virt. eigenvalues --    0.05938   0.06089   0.06177   0.06590   0.07092
 Alpha virt. eigenvalues --    0.07277   0.07647   0.07697   0.08273   0.08574
 Alpha virt. eigenvalues --    0.08691   0.09119   0.09427   0.09950   0.10742
 Alpha virt. eigenvalues --    0.11231   0.11463   0.12388   0.12787   0.13318
 Alpha virt. eigenvalues --    0.13498   0.13673   0.13683   0.15425   0.15725
 Alpha virt. eigenvalues --    0.16529   0.16820   0.17341   0.17961   0.18170
 Alpha virt. eigenvalues --    0.18327   0.19044   0.20088   0.20353   0.21167
 Alpha virt. eigenvalues --    0.21270   0.22279   0.22365   0.23168   0.23367
 Alpha virt. eigenvalues --    0.23936   0.25115   0.26308   0.27500   0.28869
 Alpha virt. eigenvalues --    0.30042   0.30626   0.32839   0.33302   0.36595
 Alpha virt. eigenvalues --    0.37949   0.38355   0.40347   0.41157   0.41376
 Alpha virt. eigenvalues --    0.42577   0.43156   0.43444   0.44028   0.44706
 Alpha virt. eigenvalues --    0.45245   0.45735   0.47289   0.47450   0.48077
 Alpha virt. eigenvalues --    0.48328   0.48570   0.49397   0.50725   0.51393
 Alpha virt. eigenvalues --    0.51902   0.52501   0.54022   0.54074   0.54732
 Alpha virt. eigenvalues --    0.55635   0.55671   0.57208   0.57454   0.58191
 Alpha virt. eigenvalues --    0.59918   0.60931   0.61644   0.63209   0.64030
 Alpha virt. eigenvalues --    0.64524   0.64565   0.65344   0.66949   0.69648
 Alpha virt. eigenvalues --    0.70057   0.70609   0.71635   0.72246   0.74619
 Alpha virt. eigenvalues --    0.75367   0.75487   0.76759   0.77263   0.78009
 Alpha virt. eigenvalues --    0.78647   0.79191   0.79851   0.80156   0.80965
 Alpha virt. eigenvalues --    0.82622   0.83041   0.84128   0.84593   0.87229
 Alpha virt. eigenvalues --    0.88539   0.88706   0.89286   0.90041   0.91122
 Alpha virt. eigenvalues --    0.91694   0.94883   0.94998   0.96076   0.97974
 Alpha virt. eigenvalues --    0.99901   1.00015   1.01172   1.03229   1.04253
 Alpha virt. eigenvalues --    1.04402   1.05539   1.07164   1.11218   1.16211
 Alpha virt. eigenvalues --    1.21191   1.21979   1.22380   1.28028   1.30171
 Alpha virt. eigenvalues --    1.32959   1.33137   1.35916   1.36049   1.36434
 Alpha virt. eigenvalues --    1.39818   1.40874   1.42399   1.43282   1.43660
 Alpha virt. eigenvalues --    1.44243   1.45098   1.45808   1.47549   1.48152
 Alpha virt. eigenvalues --    1.49378   1.49839   1.52682   1.53027   1.54786
 Alpha virt. eigenvalues --    1.56509   1.57158   1.59835   1.60656   1.61803
 Alpha virt. eigenvalues --    1.62157   1.64120   1.65264   1.65597   1.67288
 Alpha virt. eigenvalues --    1.68347   1.70655   1.73162   1.75019   1.78026
 Alpha virt. eigenvalues --    1.78041   1.79231   1.81218   1.82159   1.83956
 Alpha virt. eigenvalues --    1.84022   1.84676   1.84878   1.85446   1.86160
 Alpha virt. eigenvalues --    1.86253   1.87265   1.88314   1.90141   1.90799
 Alpha virt. eigenvalues --    1.95073   1.95111   1.98557   2.01133   2.01439
 Alpha virt. eigenvalues --    2.05024   2.07151   2.07221   2.11057   2.13467
 Alpha virt. eigenvalues --    2.15033   2.16455   2.20054   2.20185   2.24717
 Alpha virt. eigenvalues --    2.25677   2.27927   2.30222   2.34474   2.35438
 Alpha virt. eigenvalues --    2.36010   2.37662   2.40866   2.43821   2.44959
 Alpha virt. eigenvalues --    2.45999   2.47478   2.49871   2.54873   2.55462
 Alpha virt. eigenvalues --    2.56231   2.57148   2.58158   2.58755   2.59655
 Alpha virt. eigenvalues --    2.59990   2.61117   2.62664   2.63772   2.65147
 Alpha virt. eigenvalues --    2.66002   2.66676   2.68022   2.69366   2.70364
 Alpha virt. eigenvalues --    2.70846   2.74054   2.74598   2.75810   2.76310
 Alpha virt. eigenvalues --    2.78889   2.80284   2.81443   2.83924   2.86178
 Alpha virt. eigenvalues --    2.86898   2.92858   2.95372   2.95540   2.99485
 Alpha virt. eigenvalues --    3.03706   3.07882   3.09779   3.10824   3.16263
 Alpha virt. eigenvalues --    3.19376   3.26706   3.27959   3.32157   3.35175
 Alpha virt. eigenvalues --    3.35669   3.40547   3.42490   3.46016   3.52714
 Alpha virt. eigenvalues --    3.56247   3.58682   3.64305   3.66973   3.83839
 Alpha virt. eigenvalues --    3.89151   3.91457   3.92851   3.95208   3.98256
 Alpha virt. eigenvalues --    3.99742   4.07704   4.08732   4.28903   4.48272
 Alpha virt. eigenvalues --    4.59405   4.71232  23.41450  23.49271  23.61072
 Alpha virt. eigenvalues --   23.73939  23.78226  23.93368  23.94015  23.98938
 Alpha virt. eigenvalues --   24.03431  24.06315  24.10754  24.23307  24.42468
 Alpha virt. eigenvalues --   24.56507
          Condensed to atoms (all electrons):
               1          2          3          4          5          6
     1  C    7.800769   0.577869  -0.879102   1.324194   0.090680  -0.104783
     2  C    0.577869   7.083777   0.297729  -0.804916  -0.185852  -0.030717
     3  C   -0.879102   0.297729   6.361930   0.563636  -0.005257   0.028906
     4  C    1.324194  -0.804916   0.563636   7.570774   0.200861  -0.068290
     5  C    0.090680  -0.185852  -0.005257   0.200861   8.876704  -0.106614
     6  C   -0.104783  -0.030717   0.028906  -0.068290  -0.106614   7.114565
     7  C   -0.010600   0.020771  -0.023218  -0.063151  -0.124508   0.491526
     8  C    0.337494  -0.059925  -0.131138   0.156774   2.072417  -0.687685
     9  C   -1.186654  -0.060994   0.012785  -0.848985  -1.401294   0.234290
    10  C   -0.835868  -0.058967  -0.068488  -1.015377  -1.273009  -0.033395
    11  C   -0.539127  -0.410372   0.215630  -0.583892  -0.639989  -0.313369
    12  C   -0.805003   0.290479  -0.100950  -0.435000  -0.421817   0.301532
    13  C    0.034738  -0.114216  -0.210925  -0.538431  -1.645878   0.165752
    14  C   -0.187411  -0.388261  -0.053048   0.230219   0.055748  -0.877193
    15  H    0.335356  -0.061279   0.025326   0.015221   0.003472   0.001494
    16  H   -0.036847   0.401606  -0.009024   0.015365  -0.002136  -0.000542
    17  H   -0.021308  -0.031969   0.396821  -0.067919   0.000939   0.000745
    18  H    0.049268   0.007848  -0.105857   0.430128   0.011944  -0.004686
    19  H   -0.049562   0.003743   0.042510  -0.049701  -0.067584   0.046369
    20  H    0.011807   0.001857  -0.002625   0.022932   0.395395  -0.112114
    21  H   -0.001018  -0.000386   0.000271  -0.000568  -0.015549   0.366473
    22  H    0.000655   0.000357  -0.000283  -0.000751   0.011202  -0.028363
    23  H    0.007127  -0.003298   0.001165   0.004814   0.015599  -0.011045
    24  H    0.034319   0.019997  -0.000026  -0.006927  -0.010688  -0.004792
    25  H    0.034319   0.019997  -0.000026  -0.006927  -0.010688  -0.004792
               7          8          9         10         11         12
     1  C   -0.010600   0.337494  -1.186654  -0.835868  -0.539127  -0.805003
     2  C    0.020771  -0.059925  -0.060994  -0.058967  -0.410372   0.290479
     3  C   -0.023218  -0.131138   0.012785  -0.068488   0.215630  -0.100950
     4  C   -0.063151   0.156774  -0.848985  -1.015377  -0.583892  -0.435000
     5  C   -0.124508   2.072417  -1.401294  -1.273009  -0.639989  -0.421817
     6  C    0.491526  -0.687685   0.234290  -0.033395  -0.313369   0.301532
     7  C    6.333117   0.783740  -0.387745  -0.074391  -0.030616  -0.289527
     8  C    0.783740   9.166707  -2.289209  -1.033625  -0.484417  -1.035281
     9  C   -0.387745  -2.289209   8.373010   1.095254   1.124980   0.691126
    10  C   -0.074391  -1.033625   1.095254   7.359276   0.450861   0.760048
    11  C   -0.030616  -0.484417   1.124980   0.450861   7.515180   1.222481
    12  C   -0.289527  -1.035281   0.691126   0.760048   1.222481   7.670827
    13  C   -0.715034  -0.638944   0.945621   0.254972  -0.513633  -1.706011
    14  C    0.034945  -0.564876  -0.571846   0.224817  -1.265212  -0.624768
    15  H   -0.002741  -0.000171   0.032961  -0.001515  -0.042540   0.025754
    16  H    0.000276   0.000082  -0.010117  -0.009459  -0.000450  -0.002273
    17  H   -0.000473  -0.002168   0.003202   0.011094   0.028151   0.033569
    18  H    0.000892   0.008346  -0.023401   0.008266   0.003302  -0.057121
    19  H   -0.011723  -0.055448   0.077483   0.408032   0.032028   0.032439
    20  H    0.002138   0.044212  -0.033493   0.042897   0.016035  -0.030366
    21  H   -0.029928  -0.007228  -0.000742   0.002252  -0.007222   0.002946
    22  H    0.371578  -0.025258   0.006856  -0.004609   0.003689  -0.008859
    23  H   -0.094300   0.354753   0.064228  -0.005428  -0.014416   0.001422
    24  H    0.005500   0.005546   0.364781   0.003401   0.013890  -0.016306
    25  H    0.005500   0.005546   0.364781   0.003401   0.013890  -0.016306
              13         14         15         16         17         18
     1  C    0.034738  -0.187411   0.335356  -0.036847  -0.021308   0.049268
     2  C   -0.114216  -0.388261  -0.061279   0.401606  -0.031969   0.007848
     3  C   -0.210925  -0.053048   0.025326  -0.009024   0.396821  -0.105857
     4  C   -0.538431   0.230219   0.015221   0.015365  -0.067919   0.430128
     5  C   -1.645878   0.055748   0.003472  -0.002136   0.000939   0.011944
     6  C    0.165752  -0.877193   0.001494  -0.000542   0.000745  -0.004686
     7  C   -0.715034   0.034945  -0.002741   0.000276  -0.000473   0.000892
     8  C   -0.638944  -0.564876  -0.000171   0.000082  -0.002168   0.008346
     9  C    0.945621  -0.571846   0.032961  -0.010117   0.003202  -0.023401
    10  C    0.254972   0.224817  -0.001515  -0.009459   0.011094   0.008266
    11  C   -0.513633  -1.265212  -0.042540  -0.000450   0.028151   0.003302
    12  C   -1.706011  -0.624768   0.025754  -0.002273   0.033569  -0.057121
    13  C   11.072664   0.232914  -0.015967  -0.002297  -0.005260  -0.007881
    14  C    0.232914   9.737907   0.002348  -0.007806   0.000800  -0.002109
    15  H   -0.015967   0.002348   0.469209  -0.012537   0.001827  -0.000568
    16  H   -0.002297  -0.007806  -0.012537   0.434557  -0.009152   0.002380
    17  H   -0.005260   0.000800   0.001827  -0.009152   0.445890  -0.016190
    18  H   -0.007881  -0.002109  -0.000568   0.002380  -0.016190   0.456539
    19  H    0.041798  -0.086748   0.000197  -0.000654   0.002324  -0.005644
    20  H    0.020925  -0.048453  -0.000128   0.000046  -0.000222   0.001223
    21  H   -0.010216   0.036256   0.000016  -0.000008   0.000011  -0.000115
    22  H    0.031268  -0.024399  -0.000172   0.000008  -0.000008   0.000013
    23  H    0.001736   0.006165   0.000594  -0.000123   0.000018  -0.000050
    24  H   -0.021228  -0.053434  -0.001747   0.000585  -0.000048  -0.000001
    25  H   -0.021228  -0.053434  -0.001747   0.000585  -0.000048  -0.000001
              19         20         21         22         23         24
     1  C   -0.049562   0.011807  -0.001018   0.000655   0.007127   0.034319
     2  C    0.003743   0.001857  -0.000386   0.000357  -0.003298   0.019997
     3  C    0.042510  -0.002625   0.000271  -0.000283   0.001165  -0.000026
     4  C   -0.049701   0.022932  -0.000568  -0.000751   0.004814  -0.006927
     5  C   -0.067584   0.395395  -0.015549   0.011202   0.015599  -0.010688
     6  C    0.046369  -0.112114   0.366473  -0.028363  -0.011045  -0.004792
     7  C   -0.011723   0.002138  -0.029928   0.371578  -0.094300   0.005500
     8  C   -0.055448   0.044212  -0.007228  -0.025258   0.354753   0.005546
     9  C    0.077483  -0.033493  -0.000742   0.006856   0.064228   0.364781
    10  C    0.408032   0.042897   0.002252  -0.004609  -0.005428   0.003401
    11  C    0.032028   0.016035  -0.007222   0.003689  -0.014416   0.013890
    12  C    0.032439  -0.030366   0.002946  -0.008859   0.001422  -0.016306
    13  C    0.041798   0.020925  -0.010216   0.031268   0.001736  -0.021228
    14  C   -0.086748  -0.048453   0.036256  -0.024399   0.006165  -0.053434
    15  H    0.000197  -0.000128   0.000016  -0.000172   0.000594  -0.001747
    16  H   -0.000654   0.000046  -0.000008   0.000008  -0.000123   0.000585
    17  H    0.002324  -0.000222   0.000011  -0.000008   0.000018  -0.000048
    18  H   -0.005644   0.001223  -0.000115   0.000013  -0.000050  -0.000001
    19  H    0.445417  -0.005565   0.000810  -0.000292   0.000224   0.000556
    20  H   -0.005565   0.463297  -0.005190   0.001169   0.000353   0.000467
    21  H    0.000810  -0.005190   0.402546  -0.004541   0.000757  -0.000183
    22  H   -0.000292   0.001169  -0.004541   0.406556  -0.006083   0.000635
    23  H    0.000224   0.000353   0.000757  -0.006083   0.418256   0.000779
    24  H    0.000556   0.000467  -0.000183   0.000635   0.000779   0.499968
    25  H    0.000556   0.000467  -0.000183   0.000635   0.000779  -0.082558
              25
     1  C    0.034319
     2  C    0.019997
     3  C   -0.000026
     4  C   -0.006927
     5  C   -0.010688
     6  C   -0.004792
     7  C    0.005500
     8  C    0.005546
     9  C    0.364781
    10  C    0.003401
    11  C    0.013890
    12  C   -0.016306
    13  C   -0.021228
    14  C   -0.053434
    15  H   -0.001747
    16  H    0.000585
    17  H   -0.000048
    18  H   -0.000001
    19  H    0.000556
    20  H    0.000467
    21  H   -0.000183
    22  H    0.000635
    23  H    0.000779
    24  H   -0.082558
    25  H    0.499968
 Mulliken charges:
               1
     1  C    0.018689
     2  C   -0.514878
     3  C   -0.356740
     4  C   -0.044085
     5  C    0.175904
     6  C   -0.363276
     7  C   -0.192027
     8  C    0.079755
     9  C   -0.576878
    10  C   -0.210438
    11  C    0.205139
    12  C    0.516967
    13  C   -0.635237
    14  C    0.246878
    15  H    0.227339
    16  H    0.247936
    17  H    0.229372
    18  H    0.243476
    19  H    0.198435
    20  H    0.212937
    21  H    0.270740
    22  H    0.268994
    23  H    0.255974
    24  H    0.247512
    25  H    0.247512
 Sum of Mulliken charges =   1.00000
 Mulliken charges with hydrogens summed into heavy atoms:
               1
     1  C    0.246028
     2  C   -0.266942
     3  C   -0.127368
     4  C    0.199392
     5  C    0.388841
     6  C   -0.092536
     7  C    0.076967
     8  C    0.335729
     9  C   -0.081854
    10  C   -0.012003
    11  C    0.205139
    12  C    0.516967
    13  C   -0.635237
    14  C    0.246878
 Electronic spatial extent (au):  <R**2>=           2857.2154
 Charge=              1.0000 electrons
 Dipole moment (field-independent basis, Debye):
    X=              1.3135    Y=             -3.1658    Z=             -0.0000  Tot=              3.4275
 Quadrupole moment (field-independent basis, Debye-Ang):
   XX=            -49.9435   YY=            -37.0585   ZZ=            -83.9458
   XY=            -11.7840   XZ=              0.0000   YZ=             -0.0000
 Traceless Quadrupole moment (field-independent basis, Debye-Ang):
   XX=              7.0392   YY=             19.9241   ZZ=            -26.9632
   XY=            -11.7840   XZ=              0.0000   YZ=             -0.0000
 Octapole moment (field-independent basis, Debye-Ang**2):
  XXX=              4.5272  YYY=            -40.2425  ZZZ=             -0.0000  XYY=             21.3387
  XXY=            -15.2280  XXZ=             -0.0000  XZZ=              3.9619  YZZ=             -1.3150
  YYZ=             -0.0000  XYZ=              0.0000
 Hexadecapole moment (field-independent basis, Debye-Ang**3):
 XXXX=           -907.4597 YYYY=          -1954.9608 ZZZZ=            -98.7206 XXXY=            305.7877
 XXXZ=             -0.0000 YYYX=            229.0765 YYYZ=             -0.0000 ZZZX=              0.0000
 ZZZY=             -0.0000 XXYY=           -443.2762 XXZZ=           -227.3086 YYZZ=           -509.8503
 XXYZ=             -0.0000 YYXZ=              0.0000 ZZXY=            171.6208
 N-N= 7.817685054789D+02 E-N=-2.800064126824D+03  KE= 5.378530987529D+02
 Symmetry A'   KE= 5.230749817147D+02
 Symmetry A"   KE= 1.477811703819D+01
 Unable to Open any file for archive entry.
 1\1\GINC-GADI-CPU-CLX-1538\SP\RM062X TD-FC\6-311++G(d,p)\C14H11(1+)\TS
 1578\27-Jul-2022\0\\#n M062X/6-311++G(d,p) TD(NStates=1) EmpiricalDisp
 ersion=GD3 SP\\SP_5\\1,1\C,0,0.,2.532655,1.365431\C,0,0.,3.671508,0.66
 6989\C,0,0.,3.673861,-0.71883\C,0,0.,2.473156,-1.422538\C,0,0.,-2.4531
 56,-1.392538\C,0,0.,-3.693861,-0.70883\C,0,0.,-3.731508,0.676989\C,0,0
 .,-2.452655,1.355431\C,0,0.,-0.04,1.453369\C,0,0.,-0.08,-1.429189\C,0,
 0.,1.287055,0.602065\C,0,0.,1.282471,-0.640804\C,0,0.,-1.237055,0.7520
 65\C,0,0.,-1.192471,-0.820804\H,0,0.,2.333071,2.443647\H,0,0.,4.556753
 ,1.286689\H,0,0.,4.539262,-1.372349\H,0,0.,2.64255,-2.500059\H,0,0.,0.
 075,-2.510266\H,0,0.,-2.29255,-2.480059\H,0,0.,-4.679262,-1.172349\H,0
 ,0.,-4.716753,1.136689\H,0,0.,-2.643071,2.443647\H,0,-0.859585,-0.13,2
 .145787\H,0,0.859585,-0.13,2.145787\\Version=ES64L-G16RevC.01\State=1-
 A'\HF=-539.6535628\RMSD=3.810e-09\PG=CS [SG(C14H9),X(H2)]\\@
 The archive entry for this job was punched.


 EXPERIENCE IS A WONDERFUL THING.  IT ENABLES
 YOU TO RECOGNIZE A MISTAKE WHEN YOU MAKE IT AGAIN.
           - BACK OF A SUGAR PACKET
 Job cpu time:       0 days  0 hours 48 minutes 31.3 seconds.
 Elapsed time:       0 days  0 hours  1 minutes 31.5 seconds.
 File lengths (MBytes):  RWF=    459 Int=      0 D2E=      0 Chk=     15 Scr=      1
 Normal termination of Gaussian 16 at Wed Jul 27 12:15:37 2022.
