 Entering Gaussian System, Link 0=g16
 Initial command:
 /apps/gaussian/g16c01/g16/l1.exe "/jobfs/52815815.gadi-pbs/Gau-2077691.inp" -scrdir="/jobfs/52815815.gadi-pbs/"
 Entering Link 1 = /apps/gaussian/g16c01/g16/l1.exe PID=   2077692.
  
 Copyright (c) 1988-2019, Gaussian, Inc.  All Rights Reserved.
  
 This is part of the Gaussian(R) 16 program.  It is based on
 the Gaussian(R) 09 system (copyright 2009, Gaussian, Inc.),
 the Gaussian(R) 03 system (copyright 2003, Gaussian, Inc.),
 the Gaussian(R) 98 system (copyright 1998, Gaussian, Inc.),
 the Gaussian(R) 94 system (copyright 1995, Gaussian, Inc.),
 the Gaussian 92(TM) system (copyright 1992, Gaussian, Inc.),
 the Gaussian 90(TM) system (copyright 1990, Gaussian, Inc.),
 the Gaussian 88(TM) system (copyright 1988, Gaussian, Inc.),
 the Gaussian 86(TM) system (copyright 1986, Carnegie Mellon
 University), and the Gaussian 82(TM) system (copyright 1983,
 Carnegie Mellon University). Gaussian is a federally registered
 trademark of Gaussian, Inc.
  
 This software contains proprietary and confidential information,
 including trade secrets, belonging to Gaussian, Inc.
  
 This software is provided under written license and may be
 used, copied, transmitted, or stored only in accord with that
 written license.
  
 The following legend is applicable only to US Government
 contracts under FAR:
  
                    RESTRICTED RIGHTS LEGEND
  
 Use, reproduction and disclosure by the US Government is
 subject to restrictions as set forth in subparagraphs (a)
 and (c) of the Commercial Computer Software - Restricted
 Rights clause in FAR 52.227-19.
  
 Gaussian, Inc.
 340 Quinnipiac St., Bldg. 40, Wallingford CT 06492
  
  
 ---------------------------------------------------------------
 Warning -- This program may not be used in any manner that
 competes with the business of Gaussian, Inc. or will provide
 assistance to any competitor of Gaussian, Inc.  The licensee
 of this program is prohibited from giving any competitor of
 Gaussian, Inc. access to this program.  By using this program,
 the user acknowledges that Gaussian, Inc. is engaged in the
 business of creating and licensing software in the field of
 computational chemistry and represents and warrants to the
 licensee that it is not a competitor of Gaussian, Inc. and that
 it will not use this program in any manner prohibited above.
 ---------------------------------------------------------------
  

 Cite this work as:
 Gaussian 16, Revision C.01,
 M. J. Frisch, G. W. Trucks, H. B. Schlegel, G. E. Scuseria, 
 M. A. Robb, J. R. Cheeseman, G. Scalmani, V. Barone, 
 G. A. Petersson, H. Nakatsuji, X. Li, M. Caricato, A. V. Marenich, 
 J. Bloino, B. G. Janesko, R. Gomperts, B. Mennucci, H. P. Hratchian, 
 J. V. Ortiz, A. F. Izmaylov, J. L. Sonnenberg, D. Williams-Young, 
 F. Ding, F. Lipparini, F. Egidi, J. Goings, B. Peng, A. Petrone, 
 T. Henderson, D. Ranasinghe, V. G. Zakrzewski, J. Gao, N. Rega, 
 G. Zheng, W. Liang, M. Hada, M. Ehara, K. Toyota, R. Fukuda, 
 J. Hasegawa, M. Ishida, T. Nakajima, Y. Honda, O. Kitao, H. Nakai, 
 T. Vreven, K. Throssell, J. A. Montgomery, Jr., J. E. Peralta, 
 F. Ogliaro, M. J. Bearpark, J. J. Heyd, E. N. Brothers, K. N. Kudin, 
 V. N. Staroverov, T. A. Keith, R. Kobayashi, J. Normand, 
 K. Raghavachari, A. P. Rendell, J. C. Burant, S. S. Iyengar, 
 J. Tomasi, M. Cossi, J. M. Millam, M. Klene, C. Adamo, R. Cammi, 
 J. W. Ochterski, R. L. Martin, K. Morokuma, O. Farkas, 
 J. B. Foresman, and D. J. Fox, Gaussian, Inc., Wallingford CT, 2019.
 
 ******************************************
 Gaussian 16:  ES64L-G16RevC.01  3-Jul-2019
                27-Jul-2022 
 ******************************************
 %NProcShared=32
 Will use up to   32 processors via shared memory.
 %mem = 128GB
 ---------------------------------------------------------------
 #n M062X/6-311++G(d,p) TD(NStates=1) EmpiricalDispersion=GD3 SP
 ---------------------------------------------------------------
 1/38=1,172=1/1;
 2/12=2,17=6,18=5,40=1/2;
 3/5=4,6=6,7=1111,11=9,25=1,30=1,74=-55,124=31/1,2,3,8;
 4//1;
 5/5=2,38=5/2;
 8/6=1,10=2,108=1/1;
 9/41=1,42=1,70=2/14;
 6/7=2,8=2,9=2,10=2/1;
 99/5=1,9=1/99;
 ----
 SP_3
 ----
 Symbolic Z-matrix:
 Charge =  1 Multiplicity = 1
 C                     0.        2.46866   1.36343 
 C                     0.        3.62951   0.64499 
 C                     0.        3.65086  -0.76483 
 C                     0.        2.52916  -1.44054 
 C                     0.       -2.39716  -1.37454 
 C                     0.       -3.71686  -0.66283 
 C                     0.       -3.77351   0.69899 
 C                     0.       -2.51666   1.35743 
 C                     0.       -0.048     1.45337 
 C                     0.        0.039    -1.42919 
 C                     0.        1.30405   0.66507 
 C                     0.        1.29147  -0.6798 
 C                     0.       -1.22006   0.68907 
 C                     0.       -1.18347  -0.7818 
 H                     0.        2.38007   2.44365 
 H                     0.        4.53475   1.23569 
 H                     0.        4.56426  -1.33835 
 H                     0.        2.59955  -2.52006 
 H                     0.        0.12     -2.51027 
 H                     0.       -2.33555  -2.46006 
 H                     0.       -4.65426  -1.20635 
 H                     0.       -4.73875   1.18769 
 H                     0.       -2.59607   2.44365 
 H                    -0.85959  -0.21      2.14579 
 H                     0.85959  -0.21      2.14579 
 
                          Input orientation:                          
 ---------------------------------------------------------------------
 Center     Atomic      Atomic             Coordinates (Angstroms)
 Number     Number       Type             X           Y           Z
 ---------------------------------------------------------------------
      1          6           0        0.000000    2.468655    1.363431
      2          6           0        0.000000    3.629508    0.644989
      3          6           0        0.000000    3.650861   -0.764830
      4          6           0        0.000000    2.529156   -1.440538
      5          6           0        0.000000   -2.397156   -1.374538
      6          6           0        0.000000   -3.716861   -0.662830
      7          6           0        0.000000   -3.773508    0.698989
      8          6           0        0.000000   -2.516655    1.357431
      9          6           0        0.000000   -0.048000    1.453369
     10          6           0        0.000000    0.039000   -1.429189
     11          6           0        0.000000    1.304055    0.665065
     12          6           0        0.000000    1.291471   -0.679804
     13          6           0        0.000000   -1.220055    0.689065
     14          6           0        0.000000   -1.183471   -0.781804
     15          1           0        0.000000    2.380071    2.443647
     16          1           0        0.000000    4.534753    1.235689
     17          1           0        0.000000    4.564262   -1.338349
     18          1           0        0.000000    2.599550   -2.520059
     19          1           0        0.000000    0.120000   -2.510266
     20          1           0        0.000000   -2.335550   -2.460059
     21          1           0        0.000000   -4.654262   -1.206349
     22          1           0        0.000000   -4.738753    1.187689
     23          1           0        0.000000   -2.596071    2.443647
     24          1           0       -0.859585   -0.210000    2.145787
     25          1           0        0.859585   -0.210000    2.145787
 ---------------------------------------------------------------------
                    Distance matrix (angstroms):
                    1          2          3          4          5
     1  C    0.000000
     2  C    1.365188   0.000000
     3  C    2.434565   1.409981   0.000000
     4  C    2.804622   2.358007   1.309505   0.000000
     5  C    5.583242   6.356034   6.078672   4.926754   0.000000
     6  C    6.508943   7.461872   7.368428   6.294248   1.499383
     7  C    6.277426   7.403213   7.567299   6.655911   2.488746
     8  C    4.985314   6.187317   6.522442   5.769648   2.734581
     9  C    2.518262   3.765308   4.313001   3.875104   3.676356
    10  C    3.701614   4.146560   3.672453   2.490182   2.436769
    11  C    1.357943   2.325540   2.748108   2.436070   4.225984
    12  C    2.358086   2.687284   2.360922   1.452784   3.753482
    13  C    3.749847   4.849763   5.083270   4.311820   2.375715
    14  C    4.235571   5.020010   4.834362   3.770614   1.350691
    15  H    1.083842   2.190037   3.450975   3.887045   6.115589
    16  H    2.070043   1.080923   2.187085   3.344340   7.407067
    17  H    3.419237   2.192577   1.078529   2.037670   6.961512
    18  H    3.885695   3.328414   2.045992   1.081814   5.126333
    19  H    4.530089   4.719352   3.938721   2.635972   2.761513
    20  H    6.139989   6.724823   6.221810   4.970391   1.087268
    21  H    7.572299   8.488127   8.316851   7.187234   2.263364
    22  H    7.209550   8.385840   8.613823   7.728524   3.471035
    23  H    5.178640   6.480201   7.022712   6.430773   3.823363
    24  H    2.919959   4.211069   4.910888   4.593864   4.232638
    25  H    2.919959   4.211069   4.910888   4.593864   4.232638
                    6          7          8          9         10
     6  C    0.000000
     7  C    1.362997   0.000000
     8  C    2.349883   1.418882   0.000000
     9  C    4.235427   3.801118   2.470518   0.000000
    10  C    3.833249   4.366275   3.781088   2.883871   0.000000
    11  C    5.193544   5.077676   3.882936   1.565080   2.446684
    12  C    5.008361   5.249294   4.318814   2.518851   1.459542
    13  C    2.839306   2.553472   1.458727   1.399240   2.464187
    14  C    2.536182   2.983461   2.520656   2.507049   1.383309
    15  H    6.842717   6.396121   5.015754   2.622247   4.525425
    16  H    8.467202   8.325578   7.052459   4.587920   5.226219
    17  H    8.308629   8.583074   7.576715   5.391350   4.526174
    18  H    6.583794   7.139898   6.419539   4.774689   2.783238
    19  H    4.258465   5.045664   4.680922   3.967194   1.084107
    20  H    2.266727   3.470923   3.821783   4.532969   2.588664
    21  H    1.083574   2.099057   3.338013   5.318999   4.698549
    22  H    2.113926   1.081908   2.228572   4.698271   5.447474
    23  H    3.302479   2.104802   1.089115   2.733737   4.684278
    24  H    4.574417   3.940901   2.584772   1.115604   3.685287
    25  H    4.574417   3.940901   2.584772   1.115604   3.685287
                   11         12         13         14         15
    11  C    0.000000
    12  C    1.344928   0.000000
    13  C    2.524224   2.860344   0.000000
    14  C    2.877710   2.477043   1.471324   0.000000
    15  H    2.078741   3.307718   4.004930   4.806492   0.000000
    16  H    3.280704   3.766695   5.780710   6.063692   2.470186
    17  H    3.826567   3.338389   6.129334   5.774615   4.367400
    18  H    3.438506   2.257789   4.988773   4.163265   4.968556
    19  H    3.388910   2.173232   3.468640   2.164860   5.445106
    20  H    4.797200   4.040370   3.340855   2.035639   6.803191
    21  H    6.245297   5.969002   3.922547   3.496660   7.924917
    22  H    6.065366   6.312775   3.553852   4.064349   7.228768
    23  H    4.286530   4.986876   2.229793   3.521218   4.976142
    24  H    2.285560   3.313196   1.970060   3.202705   2.745191
    25  H    2.285560   3.313196   1.970060   3.202705   2.745191
                   16         17         18         19         20
    16  H    0.000000
    17  H    2.574207   0.000000
    18  H    4.225003   2.292713   0.000000
    19  H    5.789838   4.596178   2.479569   0.000000
    20  H    7.801257   6.990396   4.935465   2.456063   0.000000
    21  H    9.507973   9.219469   7.371813   4.949119   2.635947
    22  H    9.273630   9.639863   8.221806   6.105928   4.368232
    23  H    7.232414   8.097769   7.185601   5.649628   4.910622
    24  H    4.907122   5.972576   5.513853   4.746221   5.144965
    25  H    4.907122   5.972576   5.513853   4.746221   5.144965
                   21         22         23         24         25
    21  H    0.000000
    22  H    2.395528   0.000000
    23  H    4.190301   2.483650   0.000000
    24  H    5.632687   4.708125   2.553613   0.000000
    25  H    5.632687   4.708125   2.553613   1.719170   0.000000
 Stoichiometry    C14H11(1+)
 Framework group  CS[SG(C14H9),X(H2)]
 Deg. of freedom    46
 Full point group                 CS      NOp   2
 Largest Abelian subgroup         CS      NOp   2
 Largest concise Abelian subgroup CS      NOp   2
                         Standard orientation:                         
 ---------------------------------------------------------------------
 Center     Atomic      Atomic             Coordinates (Angstroms)
 Number     Number       Type             X           Y           Z
 ---------------------------------------------------------------------
      1          6           0       -2.403357   -1.479082    0.000000
      2          6           0       -2.349693   -2.843215    0.000000
      3          6           0       -1.133167   -3.556033    0.000000
      4          6           0        0.007296   -2.912489    0.000000
      5          6           0        2.375701    1.407646    0.000000
      6          6           0        2.406121    2.906720    0.000000
      7          6           0        1.248751    3.626619    0.000000
      8          6           0        0.056766    2.856947    0.000000
      9          6           0       -1.242366    0.755586    0.000000
     10          6           0        1.223638   -0.739584    0.000000
     11          6           0       -1.222051   -0.809362    0.000000
     12          6           0       -0.045342   -1.460659    0.000000
     13          6           0        0.000000    1.399325    0.000000
     14          6           0        1.262162    0.643188    0.000000
     15          1           0       -3.299906   -0.870056    0.000000
     16          1           0       -3.309578   -3.340222    0.000000
     17          1           0       -1.083785   -4.633431    0.000000
     18          1           0        0.912198   -3.505342    0.000000
     19          1           0        2.124671   -1.342434    0.000000
     20          1           0        3.290152    0.819487    0.000000
     21          1           0        3.340776    3.454947    0.000000
     22          1           0        1.298722    4.707373    0.000000
     23          1           0       -0.849520    3.460949    0.000000
     24          1           0       -1.765242    1.237548    0.859585
     25          1           0       -1.765242    1.237548   -0.859585
 ---------------------------------------------------------------------
 Rotational constants (GHZ):           2.1371279           0.4442759           0.3686123
 Standard basis: 6-311++G(d,p) (5D, 7F)
 There are   299 symmetry adapted cartesian basis functions of A'  symmetry.
 There are   100 symmetry adapted cartesian basis functions of A"  symmetry.
 There are   285 symmetry adapted basis functions of A'  symmetry.
 There are   100 symmetry adapted basis functions of A"  symmetry.
   385 basis functions,   603 primitive gaussians,   399 cartesian basis functions
    47 alpha electrons       47 beta electrons
       nuclear repulsion energy       781.5030640645 Hartrees.
 NAtoms=   25 NActive=   25 NUniq=   24 SFac= 1.09D+00 NAtFMM=   60 NAOKFM=F Big=F
 Integral buffers will be    131072 words long.
 Regular integral format.
 Two-electron integral symmetry is turned on.
 Nuclear repulsion after empirical dispersion term =      781.5020878573 Hartrees.
 One-electron integrals computed using PRISM.
 NBasis=   385 RedAO= T EigKep=  1.02D-06  NBF=   285   100
 NBsUse=   379 1.00D-06 EigRej=  7.63D-07 NBFU=   279   100
 ExpMin= 3.60D-02 ExpMax= 4.56D+03 ExpMxC= 6.82D+02 IAcc=3 IRadAn=         5 AccDes= 0.00D+00
 Harris functional with IExCor= 1009 and IRadAn=       5 diagonalized for initial guess.
 HarFok:  IExCor= 1009 AccDes= 0.00D+00 IRadAn=         5 IDoV= 1 UseB2=F ITyADJ=14
 ICtDFT=  3500011 ScaDFX=  1.000000  1.000000  1.000000  1.000000
 FoFCou: FMM=F IPFlag=           0 FMFlag=      100000 FMFlg1=           0
         NFxFlg=           0 DoJE=T BraDBF=F KetDBF=T FulRan=T
         wScrn=  0.000000 ICntrl=       500 IOpCl=  0 I1Cent=   200000004 NGrid=           0
         NMat0=    1 NMatS0=      1 NMatT0=    0 NMatD0=    1 NMtDS0=    0 NMtDT0=    0
 Petite list used in FoFCou.
 Initial guess orbital symmetries:
       Occupied  (A') (A') (A') (A') (A') (A') (A') (A') (A') (A')
                 (A') (A') (A') (A') (A') (A') (A') (A') (A') (A')
                 (A') (A') (A') (A') (A') (A') (A') (A') (A') (A')
                 (A') (A') (A") (A') (A') (A') (A') (A') (A") (A')
                 (A") (A') (A') (A") (A") (A") (A")
       Virtual   (A") (A") (A") (A") (A") (A') (A') (A') (A') (A")
                 (A') (A") (A') (A') (A') (A") (A') (A') (A') (A')
                 (A") (A') (A") (A') (A") (A') (A') (A') (A") (A')
                 (A') (A') (A') (A") (A') (A') (A') (A") (A') (A")
                 (A') (A') (A') (A") (A') (A') (A') (A') (A") (A')
                 (A") (A') (A') (A") (A') (A') (A') (A") (A") (A')
                 (A') (A') (A') (A') (A') (A") (A') (A') (A') (A")
                 (A') (A') (A') (A') (A') (A') (A') (A') (A') (A')
                 (A') (A') (A') (A') (A') (A') (A') (A') (A') (A')
                 (A') (A') (A') (A') (A') (A') (A") (A') (A") (A')
                 (A") (A') (A") (A') (A') (A") (A') (A") (A") (A")
                 (A') (A') (A') (A') (A") (A') (A') (A") (A") (A')
                 (A") (A") (A') (A') (A') (A") (A') (A') (A') (A")
                 (A') (A') (A') (A') (A') (A') (A') (A") (A') (A')
                 (A') (A') (A') (A') (A') (A') (A') (A") (A') (A')
                 (A") (A') (A") (A') (A") (A') (A") (A') (A') (A")
                 (A") (A') (A") (A") (A") (A') (A') (A') (A') (A')
                 (A") (A') (A') (A') (A') (A") (A') (A') (A') (A')
                 (A") (A') (A") (A') (A') (A') (A") (A') (A") (A")
                 (A") (A') (A') (A') (A") (A') (A') (A") (A') (A')
                 (A") (A") (A") (A') (A') (A") (A") (A') (A') (A')
                 (A") (A') (A") (A') (A') (A") (A") (A') (A') (A')
                 (A") (A') (A') (A') (A") (A') (A') (A") (A') (A")
                 (A') (A') (A') (A") (A') (A') (A") (A') (A") (A')
                 (A") (A') (A') (A') (A') (A") (A') (A') (A') (A")
                 (A') (A') (A') (A") (A") (A') (A') (A') (A") (A')
                 (A') (A') (A") (A') (A") (A') (A") (A') (A") (A')
                 (A') (A') (A') (A") (A') (A") (A') (A') (A") (A')
                 (A") (A') (A") (A') (A") (A") (A') (A') (A') (A')
                 (A') (A') (A') (A') (A') (A') (A') (A') (A') (A')
                 (A') (A') (A') (A') (A") (A') (A') (A') (A') (A')
                 (A') (A') (A') (A') (A') (A') (A') (A') (A') (A')
                 (A') (A') (A') (A') (A') (A') (A') (A') (A') (A')
                 (A') (A')
 The electronic state of the initial guess is 1-A'.
 Requested convergence on RMS density matrix=1.00D-08 within 128 cycles.
 Requested convergence on MAX density matrix=1.00D-06.
 Requested convergence on             energy=1.00D-06.
 No special actions if energy rises.
 SCF Done:  E(RM062X) =  -539.703342828     A.U. after   16 cycles
            NFock= 16  Conv=0.42D-08     -V/T= 2.0038
 DoSCS=F DFT=T ScalE2(SS,OS)=  1.000000  1.000000
 ExpMin= 3.60D-02 ExpMax= 4.56D+03 ExpMxC= 6.82D+02 IAcc=3 IRadAn=         5 AccDes= 0.00D+00
 HarFok:  IExCor=  205 AccDes= 0.00D+00 IRadAn=         5 IDoV=-2 UseB2=F ITyADJ=14
 ICtDFT= 12500011 ScaDFX=  1.000000  1.000000  1.000000  1.000000
 Range of M.O.s used for correlation:    15   379
 NBasis=   385 NAE=    47 NBE=    47 NFC=    14 NFV=     0
 NROrb=    365 NOA=    33 NOB=    33 NVA=   332 NVB=   332

 **** Warning!!: The largest alpha MO coefficient is  0.13581807D+03

 Orbital symmetries:
       Occupied  (A') (A') (A') (A') (A') (A') (A') (A') (A') (A')
                 (A') (A') (A') (A') (A') (A') (A') (A') (A') (A')
                 (A') (A') (A') (A') (A') (A') (A') (A') (A') (A')
                 (A') (A") (A') (A') (A') (A') (A') (A") (A") (A')
                 (A') (A') (A') (A") (A") (A") (A")
       Virtual   (A") (A") (A") (A") (A') (A') (A') (A') (A") (A')
                 (A') (A") (A') (A') (A") (A') (A") (A') (A') (A')
                 (A") (A") (A') (A') (A') (A") (A') (A') (A") (A')
                 (A") (A') (A") (A') (A') (A') (A') (A') (A") (A')
                 (A") (A') (A') (A") (A") (A') (A') (A") (A") (A')
                 (A') (A') (A') (A') (A') (A") (A') (A') (A') (A')
                 (A') (A") (A') (A') (A') (A') (A") (A') (A') (A')
                 (A') (A') (A') (A') (A') (A') (A') (A') (A') (A')
                 (A') (A') (A') (A') (A') (A') (A') (A') (A') (A')
                 (A') (A') (A') (A") (A') (A") (A') (A") (A') (A')
                 (A") (A') (A') (A") (A') (A') (A") (A") (A') (A")
                 (A') (A") (A') (A') (A') (A") (A") (A') (A') (A")
                 (A") (A') (A') (A") (A') (A") (A') (A') (A') (A')
                 (A') (A') (A') (A') (A') (A') (A') (A') (A') (A')
                 (A') (A') (A') (A") (A') (A') (A') (A') (A') (A')
                 (A') (A") (A') (A") (A') (A') (A") (A") (A') (A")
                 (A") (A') (A") (A') (A') (A") (A") (A") (A') (A')
                 (A') (A") (A') (A') (A') (A") (A') (A') (A') (A")
                 (A') (A') (A") (A') (A') (A') (A") (A") (A') (A")
                 (A") (A') (A') (A") (A') (A') (A") (A') (A') (A')
                 (A") (A") (A") (A') (A") (A') (A") (A') (A') (A')
                 (A") (A') (A") (A') (A') (A") (A') (A') (A") (A')
                 (A") (A') (A') (A') (A") (A') (A') (A") (A') (A")
                 (A') (A') (A") (A') (A') (A') (A") (A') (A") (A')
                 (A") (A') (A') (A") (A') (A') (A') (A') (A') (A')
                 (A") (A') (A') (A') (A') (A") (A') (A") (A") (A')
                 (A') (A') (A') (A') (A') (A") (A') (A') (A') (A')
                 (A') (A") (A") (A") (A') (A") (A') (A") (A') (A")
                 (A') (A") (A") (A') (A") (A") (A') (A') (A') (A')
                 (A') (A') (A') (A') (A') (A') (A') (A') (A') (A')
                 (A') (A') (A') (A') (A") (A') (A') (A') (A') (A')
                 (A') (A') (A') (A') (A') (A') (A') (A') (A') (A')
                 (A') (A') (A') (A') (A') (A') (A') (A') (A') (A')
                 (A') (A')
     4 initial guesses have been made.
 Convergence on wavefunction:    0.001000000000000
 Iteration     1 Dimension     4 NMult     0 NNew      4
 CISAX will form     4 AO SS matrices at one time.
 Iteration     2 Dimension     6 NMult     4 NNew      2
 Iteration     3 Dimension     8 NMult     6 NNew      2
 Iteration     4 Dimension    10 NMult     8 NNew      2
 Iteration     5 Dimension    12 NMult    10 NNew      2
 Iteration     6 Dimension    14 NMult    12 NNew      2
 ***********************************************************************
 Excited states from <AA,BB:AA,BB> singles matrix:
 ***********************************************************************
 
 Ground to excited state transition densities written to RWF  633
 Ground to excited state transition electric dipole moments (Au):
       state          X           Y           Z        Dip. S.      Osc.
         1        -0.3706      0.5621      0.0000      0.4532      0.0270
 Ground to excited state transition velocity dipole moments (Au):
       state          X           Y           Z        Dip. S.      Osc.
         1         0.0422     -0.0505      0.0000      0.0043      0.0323
 Ground to excited state transition magnetic dipole moments (Au):
       state          X           Y           Z
         1         0.0000     -0.0000     -0.5019
 Ground to excited state transition velocity quadrupole moments (Au):
       state          XX          YY          ZZ          XY          XZ          YZ
         1         0.1892      0.0131     -0.0075      0.1512     -0.0000     -0.0000
 <0|del|b> * <b|rxdel|0> + <0|del|b> * <b|delr+rdel|0>
 Rotatory Strengths (R) in cgs (10**-40 erg-esu-cm/Gauss)
       state          XX          YY          ZZ    R(velocity)    E-M Angle
         1        -0.0000     -0.0000      0.0000      0.0000       90.00
 1/2[<0|r|b>*<b|rxdel|0> + (<0|rxdel|b>*<b|r|0>)*]
 Rotatory Strengths (R) in cgs (10**-40 erg-esu-cm/Gauss)
       state          XX          YY          ZZ     R(length)
         1         0.0000      0.0000      0.0000      0.0000
  1/2[<0|del|b>*<b|r|0> + (<0|r|b>*<b|del|0>)*] (Au)
       state          X           Y           Z        Dip. S.   Osc.(frdel)
         1        -0.0156     -0.0284      0.0000      0.0440      0.0293

 Excitation energies and oscillator strengths:
 
 Excited State   1:      Singlet-A'     2.4317 eV  509.87 nm  f=0.0270  <S**2>=0.000
      47 -> 48         0.70378
 This state for optimization and/or second-order correction.
 Total Energy, E(TD-HF/TD-DFT) =  -539.613980219    
 Copying the excited state density for this state as the 1-particle RhoCI density.
 SavETr:  write IOETrn=   770 NScale= 10 NData=  16 NLR=1 NState=    1 LETran=      28.

 **********************************************************************

            Population analysis using the SCF Density.

 **********************************************************************

 Orbital symmetries:
       Occupied  (A') (A') (A') (A') (A') (A') (A') (A') (A') (A')
                 (A') (A') (A') (A') (A') (A') (A') (A') (A') (A')
                 (A') (A') (A') (A') (A') (A') (A') (A') (A') (A')
                 (A') (A") (A') (A') (A') (A') (A') (A") (A") (A')
                 (A') (A') (A') (A") (A") (A") (A")
       Virtual   (A") (A") (A") (A") (A') (A') (A') (A') (A") (A')
                 (A') (A") (A') (A') (A") (A') (A") (A') (A') (A')
                 (A") (A") (A') (A') (A') (A") (A') (A') (A") (A')
                 (A") (A') (A") (A') (A') (A') (A') (A') (A") (A')
                 (A") (A') (A') (A") (A") (A') (A') (A") (A") (A')
                 (A') (A') (A') (A') (A') (A") (A') (A') (A') (A')
                 (A') (A") (A') (A') (A') (A') (A") (A') (A') (A')
                 (A') (A') (A') (A') (A') (A') (A') (A') (A') (A')
                 (A') (A') (A') (A') (A') (A') (A') (A') (A') (A')
                 (A') (A') (A') (A") (A') (A") (A') (A") (A') (A')
                 (A") (A') (A') (A") (A') (A') (A") (A") (A') (A")
                 (A') (A") (A') (A') (A') (A") (A") (A') (A') (A")
                 (A") (A') (A') (A") (A') (A") (A') (A') (A') (A')
                 (A') (A') (A') (A') (A') (A') (A') (A') (A') (A')
                 (A') (A') (A') (A") (A') (A') (A') (A') (A') (A')
                 (A') (A") (A') (A") (A') (A') (A") (A") (A') (A")
                 (A") (A') (A") (A') (A') (A") (A") (A") (A') (A')
                 (A') (A") (A') (A') (A') (A") (A') (A') (A') (A")
                 (A') (A') (A") (A') (A') (A') (A") (A") (A') (A")
                 (A") (A') (A') (A") (A') (A') (A") (A') (A') (A')
                 (A") (A") (A") (A') (A") (A') (A") (A') (A') (A')
                 (A") (A') (A") (A') (A') (A") (A') (A') (A") (A')
                 (A") (A') (A') (A') (A") (A') (A') (A") (A') (A")
                 (A') (A') (A") (A') (A') (A') (A") (A') (A") (A')
                 (A") (A') (A') (A") (A') (A') (A') (A') (A') (A')
                 (A") (A') (A') (A') (A') (A") (A') (A") (A") (A')
                 (A') (A') (A') (A') (A') (A") (A') (A') (A') (A')
                 (A') (A") (A") (A") (A') (A") (A') (A") (A') (A")
                 (A') (A") (A") (A') (A") (A") (A') (A') (A') (A')
                 (A') (A') (A') (A') (A') (A') (A') (A') (A') (A')
                 (A') (A') (A') (A') (A") (A') (A') (A') (A') (A')
                 (A') (A') (A') (A') (A') (A') (A') (A') (A') (A')
                 (A') (A') (A') (A') (A') (A') (A') (A') (A') (A')
                 (A') (A')
 The electronic state is 1-A'.
 Alpha  occ. eigenvalues --  -10.77685 -10.73749 -10.72932 -10.72608 -10.72225
 Alpha  occ. eigenvalues --  -10.72040 -10.71212 -10.71079 -10.70859 -10.70508
 Alpha  occ. eigenvalues --  -10.70469 -10.70248 -10.69451 -10.68829  -1.16843
 Alpha  occ. eigenvalues --   -1.12837  -1.06816  -1.06265  -1.01788  -1.01182
 Alpha  occ. eigenvalues --   -0.95100  -0.91011  -0.86614  -0.85715  -0.83621
 Alpha  occ. eigenvalues --   -0.78194  -0.76328  -0.74121  -0.69985  -0.69285
 Alpha  occ. eigenvalues --   -0.68445  -0.68192  -0.67986  -0.65124  -0.64716
 Alpha  occ. eigenvalues --   -0.62417  -0.61011  -0.60943  -0.59099  -0.58810
 Alpha  occ. eigenvalues --   -0.57125  -0.54744  -0.54237  -0.52453  -0.47954
 Alpha  occ. eigenvalues --   -0.46229  -0.43100
 Alpha virt. eigenvalues --   -0.26113  -0.15209  -0.13785  -0.12492  -0.11194
 Alpha virt. eigenvalues --   -0.10124  -0.09241  -0.08028  -0.07829  -0.07481
 Alpha virt. eigenvalues --   -0.07219  -0.07108  -0.05680  -0.05596  -0.05389
 Alpha virt. eigenvalues --   -0.03919  -0.03679  -0.03465  -0.03115  -0.02130
 Alpha virt. eigenvalues --   -0.01343  -0.01031   0.00092   0.00374   0.00502
 Alpha virt. eigenvalues --    0.00986   0.01486   0.01804   0.01885   0.02103
 Alpha virt. eigenvalues --    0.02490   0.02642   0.02866   0.03162   0.03566
 Alpha virt. eigenvalues --    0.04144   0.04499   0.04652   0.05016   0.05391
 Alpha virt. eigenvalues --    0.05992   0.06193   0.06455   0.07084   0.07258
 Alpha virt. eigenvalues --    0.07807   0.08032   0.08164   0.08649   0.08676
 Alpha virt. eigenvalues --    0.08883   0.09257   0.09885   0.10118   0.10906
 Alpha virt. eigenvalues --    0.11033   0.11655   0.12259   0.12757   0.13053
 Alpha virt. eigenvalues --    0.13282   0.13485   0.13620   0.14993   0.15823
 Alpha virt. eigenvalues --    0.15991   0.16025   0.16846   0.17154   0.17465
 Alpha virt. eigenvalues --    0.18163   0.18532   0.19329   0.19679   0.20646
 Alpha virt. eigenvalues --    0.21212   0.21472   0.22628   0.23382   0.23580
 Alpha virt. eigenvalues --    0.24156   0.24747   0.26044   0.26832   0.27703
 Alpha virt. eigenvalues --    0.28818   0.29951   0.30065   0.31916   0.33813
 Alpha virt. eigenvalues --    0.36627   0.38323   0.39182   0.40928   0.41235
 Alpha virt. eigenvalues --    0.41360   0.42280   0.43028   0.43106   0.44287
 Alpha virt. eigenvalues --    0.44325   0.45223   0.47003   0.47539   0.47652
 Alpha virt. eigenvalues --    0.48192   0.48366   0.49397   0.50059   0.50441
 Alpha virt. eigenvalues --    0.51143   0.52143   0.52797   0.53215   0.54069
 Alpha virt. eigenvalues --    0.54319   0.54991   0.55331   0.55968   0.57404
 Alpha virt. eigenvalues --    0.58229   0.59668   0.61557   0.61635   0.62332
 Alpha virt. eigenvalues --    0.63663   0.64000   0.64850   0.65952   0.67646
 Alpha virt. eigenvalues --    0.69531   0.70360   0.71157   0.72103   0.72479
 Alpha virt. eigenvalues --    0.74711   0.76322   0.76558   0.76866   0.77264
 Alpha virt. eigenvalues --    0.78013   0.78370   0.78517   0.80114   0.80380
 Alpha virt. eigenvalues --    0.81382   0.81747   0.83150   0.83753   0.84976
 Alpha virt. eigenvalues --    0.86813   0.86973   0.87920   0.89657   0.89868
 Alpha virt. eigenvalues --    0.91500   0.92220   0.94058   0.94364   0.96066
 Alpha virt. eigenvalues --    0.97980   1.00052   1.00693   1.01074   1.02387
 Alpha virt. eigenvalues --    1.02533   1.04635   1.05734   1.06274   1.09835
 Alpha virt. eigenvalues --    1.19250   1.19770   1.21772   1.23279   1.26455
 Alpha virt. eigenvalues --    1.31887   1.33669   1.34456   1.35103   1.35729
 Alpha virt. eigenvalues --    1.37238   1.40954   1.41003   1.41160   1.43151
 Alpha virt. eigenvalues --    1.43794   1.44092   1.45820   1.46303   1.46960
 Alpha virt. eigenvalues --    1.47732   1.49402   1.52070   1.53455   1.53577
 Alpha virt. eigenvalues --    1.55615   1.55988   1.58308   1.60215   1.61442
 Alpha virt. eigenvalues --    1.62947   1.63665   1.63901   1.66177   1.67809
 Alpha virt. eigenvalues --    1.67810   1.69160   1.70117   1.74261   1.75730
 Alpha virt. eigenvalues --    1.77036   1.77198   1.79826   1.79897   1.81739
 Alpha virt. eigenvalues --    1.82499   1.83254   1.83913   1.84257   1.84659
 Alpha virt. eigenvalues --    1.84891   1.86686   1.87259   1.88208   1.91000
 Alpha virt. eigenvalues --    1.91140   1.93771   1.96872   1.98665   1.99529
 Alpha virt. eigenvalues --    1.99900   2.03884   2.05689   2.06481   2.11231
 Alpha virt. eigenvalues --    2.12818   2.14911   2.14979   2.18579   2.20503
 Alpha virt. eigenvalues --    2.22762   2.27421   2.30209   2.33267   2.33856
 Alpha virt. eigenvalues --    2.34208   2.38126   2.38860   2.40828   2.43591
 Alpha virt. eigenvalues --    2.44735   2.46324   2.47676   2.53377   2.54631
 Alpha virt. eigenvalues --    2.55536   2.55655   2.56252   2.58559   2.58602
 Alpha virt. eigenvalues --    2.58949   2.59968   2.61204   2.62765   2.63156
 Alpha virt. eigenvalues --    2.64815   2.65289   2.65754   2.66673   2.68437
 Alpha virt. eigenvalues --    2.70536   2.71136   2.73248   2.74538   2.74612
 Alpha virt. eigenvalues --    2.76483   2.78158   2.79672   2.80394   2.83496
 Alpha virt. eigenvalues --    2.86332   2.86342   2.91931   2.96211   2.97411
 Alpha virt. eigenvalues --    3.01762   3.02504   3.07234   3.11184   3.17259
 Alpha virt. eigenvalues --    3.18455   3.21161   3.25354   3.27743   3.29697
 Alpha virt. eigenvalues --    3.31987   3.38345   3.42252   3.44375   3.49114
 Alpha virt. eigenvalues --    3.52208   3.54923   3.57817   3.62712   3.64221
 Alpha virt. eigenvalues --    3.73157   3.91665   3.92800   3.94639   3.94933
 Alpha virt. eigenvalues --    4.02495   4.03485   4.08465   4.11665   4.33511
 Alpha virt. eigenvalues --    4.59056   4.61107   4.72593  23.43886  23.57616
 Alpha virt. eigenvalues --   23.71835  23.76400  23.79439  23.90040  23.91942
 Alpha virt. eigenvalues --   23.93600  23.98970  24.08596  24.09644  24.12893
 Alpha virt. eigenvalues --   24.19268  24.28783
          Condensed to atoms (all electrons):
               1          2          3          4          5          6
     1  C    8.243141   0.211122  -0.588509   2.150314  -0.276791  -0.092042
     2  C    0.211122   7.632104   0.340035  -1.348162  -0.013081  -0.018542
     3  C   -0.588509   0.340035   6.347094   0.899247  -0.108641   0.017747
     4  C    2.150314  -1.348162   0.899247  11.251565  -1.007243  -0.126201
     5  C   -0.276791  -0.013081  -0.108641  -1.007243  14.167478   0.953466
     6  C   -0.092042  -0.018542   0.017747  -0.126201   0.953466   6.619430
     7  C    0.036299  -0.007859  -0.010500   0.069226  -1.719038   0.297310
     8  C    0.284011  -0.016453  -0.118457  -0.096903   3.981964  -0.287540
     9  C   -0.227733  -0.893554   0.226273   0.504886  -0.513369   0.263536
    10  C   -1.169049   0.039565  -0.056633  -2.281570  -2.609671  -0.400225
    11  C    0.600536  -0.893769   0.655491   1.982782  -1.767226  -0.209814
    12  C   -3.144425   1.761454  -1.311501  -4.755186   0.566055  -0.098934
    13  C    0.784897  -0.455010  -0.170925  -0.065544  -3.913211   0.395264
    14  C   -1.260004  -0.161343  -0.080728  -1.292296  -2.200143  -1.203928
    15  H    0.375378  -0.095351   0.004854   0.018135   0.006686   0.001435
    16  H   -0.026618   0.388656  -0.016310   0.022908  -0.002341  -0.000456
    17  H   -0.023108  -0.027075   0.404923  -0.093292   0.000052   0.000494
    18  H    0.051493   0.001933  -0.077124   0.495654  -0.007360  -0.004887
    19  H   -0.033177  -0.005454   0.049162  -0.032534  -0.092344   0.043263
    20  H    0.005799   0.002998  -0.004478   0.003848   0.454203  -0.081652
    21  H   -0.000901  -0.000446   0.000275   0.000426  -0.063054   0.359925
    22  H    0.000480   0.000242  -0.000180  -0.000404  -0.009519  -0.012596
    23  H    0.001569  -0.001185   0.000518  -0.000660   0.063305  -0.004376
    24  H    0.049682   0.015707   0.000467   0.001040  -0.030103  -0.004317
    25  H    0.049682   0.015707   0.000467   0.001040  -0.030103  -0.004317
               7          8          9         10         11         12
     1  C    0.036299   0.284011  -0.227733  -1.169049   0.600536  -3.144425
     2  C   -0.007859  -0.016453  -0.893554   0.039565  -0.893769   1.761454
     3  C   -0.010500  -0.118457   0.226273  -0.056633   0.655491  -1.311501
     4  C    0.069226  -0.096903   0.504886  -2.281570   1.982782  -4.755186
     5  C   -1.719038   3.981964  -0.513369  -2.609671  -1.767226   0.566055
     6  C    0.297310  -0.287540   0.263536  -0.400225  -0.209814  -0.098934
     7  C    7.330383  -0.831732  -0.882901   0.443756  -0.241949  -0.174600
     8  C   -0.831732  10.901312  -1.217647  -1.699370  -0.143255  -0.768067
     9  C   -0.882901  -1.217647   9.738152   0.453781   1.772932  -2.806839
    10  C    0.443756  -1.699370   0.453781   8.404455   0.042122   2.230470
    11  C   -0.241949  -0.143255   1.772932   0.042122  12.113741  -4.090451
    12  C   -0.174600  -0.768067  -2.806839   2.230470  -4.090451  18.978743
    13  C    0.388774  -1.775159   0.733723   0.339307  -0.024575  -4.580194
    14  C    1.372634  -2.756831  -1.660609   1.854214  -3.327163   3.277406
    15  H   -0.002818   0.006622   0.070577  -0.001626  -0.043945  -0.005216
    16  H    0.000395   0.000702  -0.005660  -0.011309   0.008230  -0.010521
    17  H   -0.000318  -0.001840  -0.001636   0.018412  -0.012632   0.082035
    18  H    0.002040   0.005425  -0.010095  -0.025340   0.041863  -0.090281
    19  H   -0.003784  -0.064520   0.073706   0.420667   0.060433  -0.082144
    20  H   -0.005718   0.066552  -0.027047   0.020274  -0.002514  -0.001866
    21  H    0.000365  -0.044707  -0.009428   0.015855  -0.007263   0.005752
    22  H    0.378774  -0.043238   0.002220  -0.000718   0.002218  -0.006004
    23  H   -0.134430   0.414117   0.107861  -0.019750   0.014981   0.009402
    24  H    0.015842  -0.006650   0.371990   0.008037   0.014946  -0.053734
    25  H    0.015842  -0.006650   0.371990   0.008037   0.014946  -0.053734
              13         14         15         16         17         18
     1  C    0.784897  -1.260004   0.375378  -0.026618  -0.023108   0.051493
     2  C   -0.455010  -0.161343  -0.095351   0.388656  -0.027075   0.001933
     3  C   -0.170925  -0.080728   0.004854  -0.016310   0.404923  -0.077124
     4  C   -0.065544  -1.292296   0.018135   0.022908  -0.093292   0.495654
     5  C   -3.913211  -2.200143   0.006686  -0.002341   0.000052  -0.007360
     6  C    0.395264  -1.203928   0.001435  -0.000456   0.000494  -0.004887
     7  C    0.388774   1.372634  -0.002818   0.000395  -0.000318   0.002040
     8  C   -1.775159  -2.756831   0.006622   0.000702  -0.001840   0.005425
     9  C    0.733723  -1.660609   0.070577  -0.005660  -0.001636  -0.010095
    10  C    0.339307   1.854214  -0.001626  -0.011309   0.018412  -0.025340
    11  C   -0.024575  -3.327163  -0.043945   0.008230  -0.012632   0.041863
    12  C   -4.580194   3.277406  -0.005216  -0.010521   0.082035  -0.090281
    13  C   16.016271  -1.056517  -0.006640   0.001558  -0.006142  -0.005382
    14  C   -1.056517  14.318181   0.001844  -0.010926   0.005229  -0.041985
    15  H   -0.006640   0.001844   0.446931  -0.009666   0.002038  -0.000059
    16  H    0.001558  -0.010926  -0.009666   0.416975  -0.008298   0.002329
    17  H   -0.006142   0.005229   0.002038  -0.008298   0.435315  -0.015212
    18  H   -0.005382  -0.041985  -0.000059   0.002329  -0.015212   0.449420
    19  H    0.074273  -0.036598   0.000482  -0.000728   0.002355  -0.003435
    20  H    0.000474  -0.095098  -0.000173   0.000041  -0.000234   0.001058
    21  H   -0.018247   0.101112   0.000017  -0.000008   0.000010  -0.000081
    22  H    0.038615  -0.013610  -0.000131   0.000008  -0.000006   0.000007
    23  H   -0.083790  -0.041928   0.000453  -0.000128   0.000005  -0.000080
    24  H    0.014072  -0.066434  -0.001490   0.000556  -0.000088   0.000069
    25  H    0.014072  -0.066434  -0.001490   0.000556  -0.000088   0.000069
              19         20         21         22         23         24
     1  C   -0.033177   0.005799  -0.000901   0.000480   0.001569   0.049682
     2  C   -0.005454   0.002998  -0.000446   0.000242  -0.001185   0.015707
     3  C    0.049162  -0.004478   0.000275  -0.000180   0.000518   0.000467
     4  C   -0.032534   0.003848   0.000426  -0.000404  -0.000660   0.001040
     5  C   -0.092344   0.454203  -0.063054  -0.009519   0.063305  -0.030103
     6  C    0.043263  -0.081652   0.359925  -0.012596  -0.004376  -0.004317
     7  C   -0.003784  -0.005718   0.000365   0.378774  -0.134430   0.015842
     8  C   -0.064520   0.066552  -0.044707  -0.043238   0.414117  -0.006650
     9  C    0.073706  -0.027047  -0.009428   0.002220   0.107861   0.371990
    10  C    0.420667   0.020274   0.015855  -0.000718  -0.019750   0.008037
    11  C    0.060433  -0.002514  -0.007263   0.002218   0.014981   0.014946
    12  C   -0.082144  -0.001866   0.005752  -0.006004   0.009402  -0.053734
    13  C    0.074273   0.000474  -0.018247   0.038615  -0.083790   0.014072
    14  C   -0.036598  -0.095098   0.101112  -0.013610  -0.041928  -0.066434
    15  H    0.000482  -0.000173   0.000017  -0.000131   0.000453  -0.001490
    16  H   -0.000728   0.000041  -0.000008   0.000008  -0.000128   0.000556
    17  H    0.002355  -0.000234   0.000010  -0.000006   0.000005  -0.000088
    18  H   -0.003435   0.001058  -0.000081   0.000007  -0.000080   0.000069
    19  H    0.445303  -0.008530   0.000625  -0.000265  -0.000045   0.000713
    20  H   -0.008530   0.469247  -0.007321   0.001128   0.000325   0.000348
    21  H    0.000625  -0.007321   0.416632  -0.003896   0.000336  -0.000168
    22  H   -0.000265   0.001128  -0.003896   0.419902  -0.007019   0.000688
    23  H   -0.000045   0.000325   0.000336  -0.007019   0.438238  -0.000454
    24  H    0.000713   0.000348  -0.000168   0.000688  -0.000454   0.492268
    25  H    0.000713   0.000348  -0.000168   0.000688  -0.000454  -0.078208
              25
     1  C    0.049682
     2  C    0.015707
     3  C    0.000467
     4  C    0.001040
     5  C   -0.030103
     6  C   -0.004317
     7  C    0.015842
     8  C   -0.006650
     9  C    0.371990
    10  C    0.008037
    11  C    0.014946
    12  C   -0.053734
    13  C    0.014072
    14  C   -0.066434
    15  H   -0.001490
    16  H    0.000556
    17  H   -0.000088
    18  H    0.000069
    19  H    0.000713
    20  H    0.000348
    21  H   -0.000168
    22  H    0.000688
    23  H   -0.000454
    24  H   -0.078208
    25  H    0.492268
 Mulliken charges:
               1
     1  C   -0.002046
     2  C   -0.472240
     3  C   -0.402568
     4  C   -0.301077
     5  C    0.170029
     6  C   -0.402048
     7  C   -0.335994
     8  C    0.218315
     9  C   -0.435111
    10  C   -0.023691
    11  C   -0.560662
    12  C    1.122381
    13  C   -0.639965
    14  C    0.441954
    15  H    0.233151
    16  H    0.260054
    17  H    0.239100
    18  H    0.229962
    19  H    0.191861
    20  H    0.207987
    21  H    0.254358
    22  H    0.252616
    23  H    0.243190
    24  H    0.255221
    25  H    0.255221
 Sum of Mulliken charges =   1.00000
 Mulliken charges with hydrogens summed into heavy atoms:
               1
     1  C    0.231106
     2  C   -0.212186
     3  C   -0.163468
     4  C   -0.071115
     5  C    0.378016
     6  C   -0.147690
     7  C   -0.083377
     8  C    0.461505
     9  C    0.075331
    10  C    0.168170
    11  C   -0.560662
    12  C    1.122381
    13  C   -0.639965
    14  C    0.441954
 Electronic spatial extent (au):  <R**2>=           2857.9332
 Charge=              1.0000 electrons
 Dipole moment (field-independent basis, Debye):
    X=              0.1291    Y=             -0.1123    Z=             -0.0000  Tot=              0.1711
 Quadrupole moment (field-independent basis, Debye-Ang):
   XX=            -52.3074   YY=            -35.4455   ZZ=            -84.0948
   XY=              9.4986   XZ=              0.0000   YZ=             -0.0000
 Traceless Quadrupole moment (field-independent basis, Debye-Ang):
   XX=              4.9751   YY=             21.8371   ZZ=            -26.8122
   XY=              9.4986   XZ=              0.0000   YZ=             -0.0000
 Octapole moment (field-independent basis, Debye-Ang**2):
  XXX=             -2.5185  YYY=             11.1486  ZZZ=              0.0000  XYY=              7.3752
  XXY=             -3.3320  XXZ=             -0.0000  XZZ=             -3.3467  YZZ=              0.1526
  YYZ=             -0.0000  XYZ=              0.0000
 Hexadecapole moment (field-independent basis, Debye-Ang**3):
 XXXX=          -1035.4834 YYYY=          -1798.4581 ZZZZ=            -99.2330 XXXY=           -367.1077
 XXXZ=              0.0000 YYYX=           -287.7526 YYYZ=             -0.0000 ZZZX=             -0.0000
 ZZZY=             -0.0000 XXYY=           -461.0133 XXZZ=           -247.7699 YYZZ=           -489.1984
 XXYZ=             -0.0000 YYXZ=              0.0000 ZZXY=           -187.1680
 N-N= 7.815020878573D+02 E-N=-2.799360323620D+03  KE= 5.376503265868D+02
 Symmetry A'   KE= 5.229668182335D+02
 Symmetry A"   KE= 1.468350835332D+01
 Unable to Open any file for archive entry.
 1\1\GINC-GADI-CPU-CLX-1538\SP\RM062X TD-FC\6-311++G(d,p)\C14H11(1+)\TS
 1578\27-Jul-2022\0\\#n M062X/6-311++G(d,p) TD(NStates=1) EmpiricalDisp
 ersion=GD3 SP\\SP_3\\1,1\C,0,0.,2.468655,1.363431\C,0,0.,3.629508,0.64
 4989\C,0,0.,3.650861,-0.76483\C,0,0.,2.529156,-1.440538\C,0,0.,-2.3971
 56,-1.374538\C,0,0.,-3.716861,-0.66283\C,0,0.,-3.773508,0.698989\C,0,0
 .,-2.516655,1.357431\C,0,0.,-0.048,1.453369\C,0,0.,0.039,-1.429189\C,0
 ,0.,1.304055,0.665065\C,0,0.,1.291471,-0.679804\C,0,0.,-1.220055,0.689
 065\C,0,0.,-1.183471,-0.781804\H,0,0.,2.380071,2.443647\H,0,0.,4.53475
 3,1.235689\H,0,0.,4.564262,-1.338349\H,0,0.,2.59955,-2.520059\H,0,0.,0
 .12,-2.510266\H,0,0.,-2.33555,-2.460059\H,0,0.,-4.654262,-1.206349\H,0
 ,0.,-4.738753,1.187689\H,0,0.,-2.596071,2.443647\H,0,-0.859585,-0.21,2
 .145787\H,0,0.859585,-0.21,2.145787\\Version=ES64L-G16RevC.01\State=1-
 A'\HF=-539.7033428\RMSD=4.238e-09\PG=CS [SG(C14H9),X(H2)]\\@
 The archive entry for this job was punched.


 ...THOSE SCIENCES ARE VAIN AND FULL OF ERRORS WHICH 
 ARE NOT BORN FROM EXPERIMENT, THE MOTHER OF CERTAINTY...

                          -- LEONARDO DA VINCI, 1452-1519
 Job cpu time:       0 days  0 hours 47 minutes  8.4 seconds.
 Elapsed time:       0 days  0 hours  1 minutes 29.9 seconds.
 File lengths (MBytes):  RWF=    460 Int=      0 D2E=      0 Chk=     15 Scr=      1
 Normal termination of Gaussian 16 at Wed Jul 27 12:01:30 2022.
