 Entering Gaussian System, Link 0=g16
 Initial command:
 /apps/gaussian/g16c01/g16/l1.exe "/jobfs/52815815.gadi-pbs/Gau-2306534.inp" -scrdir="/jobfs/52815815.gadi-pbs/"
 Entering Link 1 = /apps/gaussian/g16c01/g16/l1.exe PID=   2306535.
  
 Copyright (c) 1988-2019, Gaussian, Inc.  All Rights Reserved.
  
 This is part of the Gaussian(R) 16 program.  It is based on
 the Gaussian(R) 09 system (copyright 2009, Gaussian, Inc.),
 the Gaussian(R) 03 system (copyright 2003, Gaussian, Inc.),
 the Gaussian(R) 98 system (copyright 1998, Gaussian, Inc.),
 the Gaussian(R) 94 system (copyright 1995, Gaussian, Inc.),
 the Gaussian 92(TM) system (copyright 1992, Gaussian, Inc.),
 the Gaussian 90(TM) system (copyright 1990, Gaussian, Inc.),
 the Gaussian 88(TM) system (copyright 1988, Gaussian, Inc.),
 the Gaussian 86(TM) system (copyright 1986, Carnegie Mellon
 University), and the Gaussian 82(TM) system (copyright 1983,
 Carnegie Mellon University). Gaussian is a federally registered
 trademark of Gaussian, Inc.
  
 This software contains proprietary and confidential information,
 including trade secrets, belonging to Gaussian, Inc.
  
 This software is provided under written license and may be
 used, copied, transmitted, or stored only in accord with that
 written license.
  
 The following legend is applicable only to US Government
 contracts under FAR:
  
                    RESTRICTED RIGHTS LEGEND
  
 Use, reproduction and disclosure by the US Government is
 subject to restrictions as set forth in subparagraphs (a)
 and (c) of the Commercial Computer Software - Restricted
 Rights clause in FAR 52.227-19.
  
 Gaussian, Inc.
 340 Quinnipiac St., Bldg. 40, Wallingford CT 06492
  
  
 ---------------------------------------------------------------
 Warning -- This program may not be used in any manner that
 competes with the business of Gaussian, Inc. or will provide
 assistance to any competitor of Gaussian, Inc.  The licensee
 of this program is prohibited from giving any competitor of
 Gaussian, Inc. access to this program.  By using this program,
 the user acknowledges that Gaussian, Inc. is engaged in the
 business of creating and licensing software in the field of
 computational chemistry and represents and warrants to the
 licensee that it is not a competitor of Gaussian, Inc. and that
 it will not use this program in any manner prohibited above.
 ---------------------------------------------------------------
  

 Cite this work as:
 Gaussian 16, Revision C.01,
 M. J. Frisch, G. W. Trucks, H. B. Schlegel, G. E. Scuseria, 
 M. A. Robb, J. R. Cheeseman, G. Scalmani, V. Barone, 
 G. A. Petersson, H. Nakatsuji, X. Li, M. Caricato, A. V. Marenich, 
 J. Bloino, B. G. Janesko, R. Gomperts, B. Mennucci, H. P. Hratchian, 
 J. V. Ortiz, A. F. Izmaylov, J. L. Sonnenberg, D. Williams-Young, 
 F. Ding, F. Lipparini, F. Egidi, J. Goings, B. Peng, A. Petrone, 
 T. Henderson, D. Ranasinghe, V. G. Zakrzewski, J. Gao, N. Rega, 
 G. Zheng, W. Liang, M. Hada, M. Ehara, K. Toyota, R. Fukuda, 
 J. Hasegawa, M. Ishida, T. Nakajima, Y. Honda, O. Kitao, H. Nakai, 
 T. Vreven, K. Throssell, J. A. Montgomery, Jr., J. E. Peralta, 
 F. Ogliaro, M. J. Bearpark, J. J. Heyd, E. N. Brothers, K. N. Kudin, 
 V. N. Staroverov, T. A. Keith, R. Kobayashi, J. Normand, 
 K. Raghavachari, A. P. Rendell, J. C. Burant, S. S. Iyengar, 
 J. Tomasi, M. Cossi, J. M. Millam, M. Klene, C. Adamo, R. Cammi, 
 J. W. Ochterski, R. L. Martin, K. Morokuma, O. Farkas, 
 J. B. Foresman, and D. J. Fox, Gaussian, Inc., Wallingford CT, 2019.
 
 ******************************************
 Gaussian 16:  ES64L-G16RevC.01  3-Jul-2019
                27-Jul-2022 
 ******************************************
 %NProcShared=32
 Will use up to   32 processors via shared memory.
 %mem = 128GB
 ---------------------------------------------------------------
 #n M062X/6-311++G(d,p) TD(NStates=1) EmpiricalDispersion=GD3 SP
 ---------------------------------------------------------------
 1/38=1,172=1/1;
 2/12=2,17=6,18=5,40=1/2;
 3/5=4,6=6,7=1111,11=9,25=1,30=1,74=-55,124=31/1,2,3,8;
 4//1;
 5/5=2,38=5/2;
 8/6=1,10=2,108=1/1;
 9/41=1,42=1,70=2/14;
 6/7=2,8=2,9=2,10=2/1;
 99/5=1,9=1/99;
 ----
 SP_5
 ----
 Symbolic Z-matrix:
 Charge =  1 Multiplicity = 1
 C                     0.        2.48466   1.36543 
 C                     0.        3.61751   0.64299 
 C                     0.        3.64686  -0.76683 
 C                     0.        2.53316  -1.44654 
 C                     0.       -2.39316  -1.36854 
 C                     0.       -3.72086  -0.66083 
 C                     0.       -3.78551   0.70099 
 C                     0.       -2.50066   1.35543 
 C                     0.       -0.064     1.45337 
 C                     0.        0.007    -1.42919 
 C                     0.        1.31406   0.63507 
 C                     0.        1.30947  -0.6438 
 C                     0.       -1.21006   0.71907 
 C                     0.       -1.16547  -0.8178 
 H                     0.        2.31807   2.44365 
 H                     0.        4.50275   1.26569 
 H                     0.        4.53626  -1.37835 
 H                     0.        2.66955  -2.52406 
 H                     0.        0.15     -2.51027 
 H                     0.       -2.26555  -2.45606 
 H                     0.       -4.68226  -1.16635 
 H                     0.       -4.77075   1.15769 
 H                     0.       -2.65807   2.44365 
 H                    -0.85959  -0.262     2.14579 
 H                     0.85959  -0.262     2.14579 
 
                          Input orientation:                          
 ---------------------------------------------------------------------
 Center     Atomic      Atomic             Coordinates (Angstroms)
 Number     Number       Type             X           Y           Z
 ---------------------------------------------------------------------
      1          6           0        0.000000    2.484655    1.365431
      2          6           0        0.000000    3.617508    0.642989
      3          6           0        0.000000    3.646861   -0.766830
      4          6           0        0.000000    2.533156   -1.446538
      5          6           0        0.000000   -2.393156   -1.368538
      6          6           0        0.000000   -3.720861   -0.660830
      7          6           0        0.000000   -3.785508    0.700989
      8          6           0        0.000000   -2.500655    1.355431
      9          6           0        0.000000   -0.064000    1.453369
     10          6           0        0.000000    0.007000   -1.429189
     11          6           0        0.000000    1.314055    0.635065
     12          6           0        0.000000    1.309471   -0.643804
     13          6           0        0.000000   -1.210055    0.719065
     14          6           0        0.000000   -1.165471   -0.817804
     15          1           0        0.000000    2.318071    2.443647
     16          1           0        0.000000    4.502753    1.265689
     17          1           0        0.000000    4.536262   -1.378349
     18          1           0        0.000000    2.669550   -2.524059
     19          1           0        0.000000    0.150000   -2.510266
     20          1           0        0.000000   -2.265550   -2.456059
     21          1           0        0.000000   -4.682262   -1.166349
     22          1           0        0.000000   -4.770753    1.157689
     23          1           0        0.000000   -2.658071    2.443647
     24          1           0       -0.859585   -0.262000    2.145787
     25          1           0        0.859585   -0.262000    2.145787
 ---------------------------------------------------------------------
                    Distance matrix (angstroms):
                    1          2          3          4          5
     1  C    0.000000
     2  C    1.343606   0.000000
     3  C    2.428427   1.410125   0.000000
     4  C    2.812387   2.354133   1.304738   0.000000
     5  C    5.591746   6.338322   6.069914   4.926929   0.000000
     6  C    6.527952   7.453295   7.368484   6.303179   1.504544
     7  C    6.305270   7.403243   7.575922   6.673634   2.494311
     8  C    4.985320   6.159504   6.503533   5.761101   2.726089
     9  C    2.550172   3.769644   4.324323   3.892901   3.658979
    10  C    3.734793   4.162894   3.699636   2.526216   2.400922
    11  C    1.379760   2.303467   2.721634   2.412318   4.214005
    12  C    2.327678   2.642512   2.340625   1.463484   3.772888
    13  C    3.750823   4.828162   5.079126   4.324519   2.399545
    14  C    4.253226   5.001080   4.812602   3.751686   1.345555
    15  H    1.091009   2.220564   3.474600   3.896126   6.060397
    16  H    2.020561   1.082319   2.205376   3.351938   7.381918
    17  H    3.425992   2.220341   1.079347   2.004266   6.929425
    18  H    3.893882   3.305876   2.010719   1.086119   5.192901
    19  H    4.524560   4.686857   3.907378   2.609780   2.787685
    20  H    6.096576   6.649396   6.148992   4.903745   1.094982
    21  H    7.600961   8.494698   8.338699   7.220856   2.298018
    22  H    7.258381   8.404037   8.634813   7.754295   3.469120
    23  H    5.254539   6.528802   7.075262   6.487093   3.821379
    24  H    2.981938   4.248279   4.949891   4.632125   4.198951
    25  H    2.981938   4.248279   4.949891   4.632125   4.198951
                    6          7          8          9         10
     6  C    0.000000
     7  C    1.363353   0.000000
     8  C    2.356737   1.441923   0.000000
     9  C    4.224035   3.796801   2.438622   0.000000
    10  C    3.806222   4.349802   3.747325   2.883432   0.000000
    11  C    5.199012   5.099989   3.882131   1.602703   2.443264
    12  C    5.030361   5.269467   4.302790   2.506902   1.520941
    13  C    2.865006   2.575516   1.438961   1.361119   2.469052
    14  C    2.560207   3.028420   2.550621   2.524176   1.322301
    15  H    6.790175   6.347482   4.940074   2.579712   4.509979
    16  H    8.446260   8.307476   7.003983   4.570608   5.241580
    17  H    8.288239   8.577616   7.549288   5.401948   4.529547
    18  H    6.656499   7.215865   6.463858   4.826202   2.878874
    19  H    4.289986   5.079408   4.687172   3.969408   1.090494
    20  H    2.311012   3.503887   3.818734   4.486697   2.493781
    21  H    1.086205   2.071502   3.334484   5.309545   4.696623
    22  H    2.099830   1.085948   2.278694   4.716031   5.433126
    23  H    3.281356   2.075565   1.099543   2.776663   4.701219
    24  H    4.536486   3.904028   2.524901   1.121398   3.686692
    25  H    4.536486   3.904028   2.524901   1.121398   3.686692
                   11         12         13         14         15
    11  C    0.000000
    12  C    1.278877   0.000000
    13  C    2.525507   2.864511   0.000000
    14  C    2.873826   2.481051   1.537516   0.000000
    15  H    2.068578   3.248019   3.927067   4.772015   0.000000
    16  H    3.250459   3.720647   5.738900   6.039015   2.482019
    17  H    3.799533   3.309341   6.117132   5.729221   4.419052
    18  H    3.437649   2.320598   5.056598   4.197463   4.980125
    19  H    3.353823   2.197283   3.504045   2.143570   5.407567
    20  H    4.729547   4.008122   3.345965   1.973336   6.709449
    21  H    6.261063   6.014476   3.951077   3.534021   7.876340
    22  H    6.107211   6.341490   3.587612   4.111038   7.204520
    23  H    4.364488   5.027300   2.251873   3.586770   4.976142
    24  H    2.346299   3.315151   1.916567   3.215279   2.735758
    25  H    2.346299   3.315151   1.916567   3.215279   2.735758
                   16         17         18         19         20
    16  H    0.000000
    17  H    2.644250   0.000000
    18  H    4.209848   2.190266   0.000000
    19  H    5.762317   4.529959   2.519588   0.000000
    20  H    7.724075   6.886661   4.935568   2.416158   0.000000
    21  H    9.501542   9.220961   7.476130   5.015662   2.739315
    22  H    9.274135   9.646347   8.301408   6.137402   4.397183
    23  H    7.257065   8.146538   7.284343   5.694429   4.915404
    24  H    4.921009   6.015126   5.580352   4.752627   5.092159
    25  H    4.921009   6.015126   5.580352   4.752627   5.092159
                   21         22         23         24         25
    21  H    0.000000
    22  H    2.325722   0.000000
    23  H    4.138770   2.473280   0.000000
    24  H    5.589977   4.695112   2.562960   0.000000
    25  H    5.589977   4.695112   2.562960   1.719170   0.000000
 Stoichiometry    C14H11(1+)
 Framework group  CS[SG(C14H9),X(H2)]
 Deg. of freedom    46
 Full point group                 CS      NOp   2
 Largest Abelian subgroup         CS      NOp   2
 Largest concise Abelian subgroup CS      NOp   2
                         Standard orientation:                         
 ---------------------------------------------------------------------
 Center     Atomic      Atomic             Coordinates (Angstroms)
 Number     Number       Type             X           Y           Z
 ---------------------------------------------------------------------
      1          6           0       -2.446222   -1.438361    0.000000
      2          6           0       -2.405350   -2.781345    0.000000
      3          6           0       -1.209184   -3.528097    0.000000
      4          6           0       -0.055255   -2.919171    0.000000
      5          6           0        2.398981    1.352990    0.000000
      6          6           0        2.470491    2.855833    0.000000
      7          6           0        1.333625    3.608340    0.000000
      8          6           0        0.113811    2.839449    0.000000
      9          6           0       -1.217389    0.796219    0.000000
     10          6           0        1.222706   -0.740047    0.000000
     11          6           0       -1.219654   -0.806482    0.000000
     12          6           0       -0.118619   -1.457059    0.000000
     13          6           0       -0.000000    1.404995    0.000000
     14          6           0        1.297521    0.580135    0.000000
     15          1           0       -3.287271   -0.743424    0.000000
     16          1           0       -3.393379   -3.223175    0.000000
     17          1           0       -1.139010   -4.605160    0.000000
     18          1           0        0.800648   -3.587815    0.000000
     19          1           0        2.078284   -1.416187    0.000000
     20          1           0        3.267973    0.686778    0.000000
     21          1           0        3.396824    3.423061    0.000000
     22          1           0        1.445510    4.688509    0.000000
     23          1           0       -0.740522    3.531626    0.000000
     24          1           0       -1.710917    1.320697    0.859585
     25          1           0       -1.710917    1.320697   -0.859585
 ---------------------------------------------------------------------
 Rotational constants (GHZ):           2.1357339           0.4441447           0.3684805
 Standard basis: 6-311++G(d,p) (5D, 7F)
 There are   299 symmetry adapted cartesian basis functions of A'  symmetry.
 There are   100 symmetry adapted cartesian basis functions of A"  symmetry.
 There are   285 symmetry adapted basis functions of A'  symmetry.
 There are   100 symmetry adapted basis functions of A"  symmetry.
   385 basis functions,   603 primitive gaussians,   399 cartesian basis functions
    47 alpha electrons       47 beta electrons
       nuclear repulsion energy       781.7535073121 Hartrees.
 NAtoms=   25 NActive=   25 NUniq=   24 SFac= 1.09D+00 NAtFMM=   60 NAOKFM=F Big=F
 Integral buffers will be    131072 words long.
 Regular integral format.
 Two-electron integral symmetry is turned on.
 Nuclear repulsion after empirical dispersion term =      781.7525325278 Hartrees.
 One-electron integrals computed using PRISM.
 NBasis=   385 RedAO= T EigKep=  2.67D-06  NBF=   285   100
 NBsUse=   378 1.00D-06 EigRej=  9.26D-07 NBFU=   278   100
 ExpMin= 3.60D-02 ExpMax= 4.56D+03 ExpMxC= 6.82D+02 IAcc=3 IRadAn=         5 AccDes= 0.00D+00
 Harris functional with IExCor= 1009 and IRadAn=       5 diagonalized for initial guess.
 HarFok:  IExCor= 1009 AccDes= 0.00D+00 IRadAn=         5 IDoV= 1 UseB2=F ITyADJ=14
 ICtDFT=  3500011 ScaDFX=  1.000000  1.000000  1.000000  1.000000
 FoFCou: FMM=F IPFlag=           0 FMFlag=      100000 FMFlg1=           0
         NFxFlg=           0 DoJE=T BraDBF=F KetDBF=T FulRan=T
         wScrn=  0.000000 ICntrl=       500 IOpCl=  0 I1Cent=   200000004 NGrid=           0
         NMat0=    1 NMatS0=      1 NMatT0=    0 NMatD0=    1 NMtDS0=    0 NMtDT0=    0
 Petite list used in FoFCou.
 Initial guess orbital symmetries:
       Occupied  (A') (A') (A') (A') (A') (A') (A') (A') (A') (A')
                 (A') (A') (A') (A') (A') (A') (A') (A') (A') (A')
                 (A') (A') (A') (A') (A') (A') (A') (A') (A') (A')
                 (A') (A') (A") (A') (A') (A') (A') (A") (A') (A')
                 (A") (A') (A') (A") (A") (A") (A")
       Virtual   (A") (A") (A") (A") (A") (A') (A') (A') (A') (A")
                 (A') (A') (A") (A') (A') (A') (A") (A') (A') (A')
                 (A") (A') (A') (A") (A') (A") (A') (A") (A') (A')
                 (A') (A') (A') (A") (A') (A') (A') (A") (A') (A")
                 (A') (A') (A') (A') (A") (A') (A') (A') (A") (A')
                 (A") (A') (A") (A') (A') (A') (A') (A") (A") (A')
                 (A') (A') (A') (A') (A") (A') (A') (A') (A') (A")
                 (A') (A') (A') (A') (A') (A') (A') (A') (A') (A')
                 (A') (A') (A') (A') (A') (A') (A') (A') (A') (A')
                 (A') (A') (A') (A') (A') (A") (A") (A') (A") (A')
                 (A') (A") (A') (A') (A") (A") (A') (A") (A') (A")
                 (A') (A') (A') (A") (A') (A") (A') (A") (A') (A")
                 (A") (A') (A') (A') (A") (A') (A') (A') (A") (A')
                 (A') (A') (A') (A') (A') (A') (A') (A') (A") (A')
                 (A') (A') (A') (A') (A') (A') (A") (A') (A') (A")
                 (A') (A') (A") (A') (A") (A") (A') (A") (A') (A")
                 (A') (A") (A") (A') (A") (A') (A') (A') (A') (A")
                 (A') (A') (A') (A') (A') (A") (A') (A') (A') (A")
                 (A') (A") (A') (A') (A') (A") (A") (A') (A") (A")
                 (A') (A') (A') (A") (A') (A') (A") (A') (A') (A")
                 (A") (A") (A') (A') (A") (A") (A') (A') (A') (A")
                 (A') (A") (A') (A") (A') (A') (A") (A') (A') (A")
                 (A') (A') (A') (A") (A') (A') (A") (A') (A") (A')
                 (A") (A') (A') (A') (A') (A") (A') (A") (A') (A")
                 (A') (A') (A') (A') (A") (A') (A') (A') (A') (A")
                 (A') (A') (A') (A") (A") (A') (A") (A') (A') (A')
                 (A') (A") (A') (A") (A') (A") (A') (A") (A') (A')
                 (A') (A') (A") (A') (A") (A') (A") (A') (A') (A")
                 (A') (A") (A') (A") (A') (A") (A') (A') (A') (A')
                 (A') (A') (A') (A') (A') (A') (A') (A') (A') (A')
                 (A') (A') (A') (A") (A') (A') (A') (A') (A') (A')
                 (A') (A') (A') (A') (A') (A') (A') (A') (A') (A')
                 (A') (A') (A') (A') (A') (A') (A') (A') (A') (A')
                 (A')
 The electronic state of the initial guess is 1-A'.
 Requested convergence on RMS density matrix=1.00D-08 within 128 cycles.
 Requested convergence on MAX density matrix=1.00D-06.
 Requested convergence on             energy=1.00D-06.
 No special actions if energy rises.
 SCF Done:  E(RM062X) =  -539.644292345     A.U. after   16 cycles
            NFock= 16  Conv=0.31D-08     -V/T= 2.0034
 DoSCS=F DFT=T ScalE2(SS,OS)=  1.000000  1.000000
 ExpMin= 3.60D-02 ExpMax= 4.56D+03 ExpMxC= 6.82D+02 IAcc=3 IRadAn=         5 AccDes= 0.00D+00
 HarFok:  IExCor=  205 AccDes= 0.00D+00 IRadAn=         5 IDoV=-2 UseB2=F ITyADJ=14
 ICtDFT= 12500011 ScaDFX=  1.000000  1.000000  1.000000  1.000000
 Range of M.O.s used for correlation:    15   378
 NBasis=   385 NAE=    47 NBE=    47 NFC=    14 NFV=     0
 NROrb=    364 NOA=    33 NOB=    33 NVA=   331 NVB=   331

 **** Warning!!: The largest alpha MO coefficient is  0.11461236D+03

 Orbital symmetries:
       Occupied  (A') (A') (A') (A') (A') (A') (A') (A') (A') (A')
                 (A') (A') (A') (A') (A') (A') (A') (A') (A') (A')
                 (A') (A') (A') (A') (A') (A') (A') (A') (A') (A')
                 (A') (A") (A') (A') (A') (A') (A") (A') (A") (A')
                 (A') (A') (A') (A") (A") (A") (A")
       Virtual   (A") (A") (A") (A") (A') (A') (A') (A') (A") (A')
                 (A') (A") (A') (A') (A") (A') (A") (A') (A') (A')
                 (A") (A") (A') (A') (A') (A") (A') (A') (A") (A')
                 (A') (A") (A') (A") (A') (A') (A') (A') (A") (A')
                 (A') (A") (A') (A') (A") (A") (A') (A") (A') (A')
                 (A') (A") (A') (A') (A') (A") (A') (A') (A') (A')
                 (A') (A') (A") (A') (A") (A') (A') (A') (A') (A')
                 (A') (A') (A') (A') (A') (A') (A') (A') (A') (A')
                 (A') (A') (A') (A') (A') (A') (A') (A') (A') (A')
                 (A') (A') (A") (A") (A') (A') (A') (A") (A') (A")
                 (A') (A') (A") (A') (A") (A') (A') (A") (A") (A')
                 (A") (A') (A') (A') (A") (A") (A') (A') (A") (A")
                 (A') (A') (A") (A') (A") (A') (A') (A') (A') (A')
                 (A') (A') (A') (A') (A') (A') (A') (A') (A') (A')
                 (A') (A') (A') (A") (A') (A') (A') (A') (A') (A')
                 (A") (A') (A") (A') (A') (A") (A') (A") (A") (A")
                 (A") (A') (A') (A") (A') (A") (A') (A") (A') (A')
                 (A") (A') (A') (A') (A") (A') (A') (A') (A") (A')
                 (A") (A') (A') (A') (A") (A') (A') (A") (A") (A")
                 (A') (A') (A") (A') (A') (A") (A') (A') (A') (A")
                 (A") (A") (A') (A") (A") (A') (A') (A') (A') (A")
                 (A') (A') (A") (A') (A') (A") (A') (A") (A') (A")
                 (A') (A') (A') (A') (A") (A') (A") (A') (A") (A')
                 (A") (A') (A') (A') (A') (A") (A') (A") (A') (A")
                 (A') (A') (A') (A') (A") (A') (A') (A') (A') (A")
                 (A') (A') (A') (A") (A') (A') (A') (A") (A') (A")
                 (A') (A') (A') (A') (A") (A') (A') (A') (A') (A')
                 (A") (A") (A") (A') (A") (A') (A") (A') (A") (A")
                 (A') (A") (A') (A") (A') (A") (A') (A') (A') (A')
                 (A') (A') (A') (A') (A') (A') (A') (A') (A') (A')
                 (A') (A') (A') (A") (A') (A') (A') (A') (A') (A')
                 (A') (A') (A') (A') (A') (A') (A') (A') (A') (A')
                 (A') (A') (A') (A') (A') (A') (A') (A') (A') (A')
                 (A')
     4 initial guesses have been made.
 Convergence on wavefunction:    0.001000000000000
 Iteration     1 Dimension     4 NMult     0 NNew      4
 CISAX will form     4 AO SS matrices at one time.
 Iteration     2 Dimension     6 NMult     4 NNew      2
 Iteration     3 Dimension     8 NMult     6 NNew      2
 Iteration     4 Dimension    10 NMult     8 NNew      2
 Iteration     5 Dimension    12 NMult    10 NNew      2
 Iteration     6 Dimension    14 NMult    12 NNew      2
 ***********************************************************************
 Excited states from <AA,BB:AA,BB> singles matrix:
 ***********************************************************************
 
 Ground to excited state transition densities written to RWF  633
 Ground to excited state transition electric dipole moments (Au):
       state          X           Y           Z        Dip. S.      Osc.
         1        -0.4029      0.6473     -0.0000      0.5813      0.0347
 Ground to excited state transition velocity dipole moments (Au):
       state          X           Y           Z        Dip. S.      Osc.
         1         0.0458     -0.0593      0.0000      0.0056      0.0418
 Ground to excited state transition magnetic dipole moments (Au):
       state          X           Y           Z
         1         0.0000      0.0000     -0.7715
 Ground to excited state transition velocity quadrupole moments (Au):
       state          XX          YY          ZZ          XY          XZ          YZ
         1         0.2297     -0.0346     -0.0086      0.1600     -0.0000     -0.0000
 <0|del|b> * <b|rxdel|0> + <0|del|b> * <b|delr+rdel|0>
 Rotatory Strengths (R) in cgs (10**-40 erg-esu-cm/Gauss)
       state          XX          YY          ZZ    R(velocity)    E-M Angle
         1        -0.0000     -0.0000      0.0000     -0.0000       90.00
 1/2[<0|r|b>*<b|rxdel|0> + (<0|rxdel|b>*<b|r|0>)*]
 Rotatory Strengths (R) in cgs (10**-40 erg-esu-cm/Gauss)
       state          XX          YY          ZZ     R(length)
         1         0.0000     -0.0000     -0.0000     -0.0000
  1/2[<0|del|b>*<b|r|0> + (<0|r|b>*<b|del|0>)*] (Au)
       state          X           Y           Z        Dip. S.   Osc.(frdel)
         1        -0.0184     -0.0384     -0.0000      0.0568      0.0379

 Excitation energies and oscillator strengths:
 
 Excited State   1:      Singlet-A'     2.4350 eV  509.18 nm  f=0.0347  <S**2>=0.000
      47 -> 48         0.70318
 This state for optimization and/or second-order correction.
 Total Energy, E(TD-HF/TD-DFT) =  -539.554809014    
 Copying the excited state density for this state as the 1-particle RhoCI density.
 SavETr:  write IOETrn=   770 NScale= 10 NData=  16 NLR=1 NState=    1 LETran=      28.

 **********************************************************************

            Population analysis using the SCF Density.

 **********************************************************************

 Orbital symmetries:
       Occupied  (A') (A') (A') (A') (A') (A') (A') (A') (A') (A')
                 (A') (A') (A') (A') (A') (A') (A') (A') (A') (A')
                 (A') (A') (A') (A') (A') (A') (A') (A') (A') (A')
                 (A') (A") (A') (A') (A') (A') (A") (A') (A") (A')
                 (A') (A') (A') (A") (A") (A") (A")
       Virtual   (A") (A") (A") (A") (A') (A') (A') (A') (A") (A')
                 (A') (A") (A') (A') (A") (A') (A") (A') (A') (A')
                 (A") (A") (A') (A') (A') (A") (A') (A') (A") (A')
                 (A') (A") (A') (A") (A') (A') (A') (A') (A") (A')
                 (A') (A") (A') (A') (A") (A") (A') (A") (A') (A')
                 (A') (A") (A') (A') (A') (A") (A') (A') (A') (A')
                 (A') (A') (A") (A') (A") (A') (A') (A') (A') (A')
                 (A') (A') (A') (A') (A') (A') (A') (A') (A') (A')
                 (A') (A') (A') (A') (A') (A') (A') (A') (A') (A')
                 (A') (A') (A") (A") (A') (A') (A') (A") (A') (A")
                 (A') (A') (A") (A') (A") (A') (A') (A") (A") (A')
                 (A") (A') (A') (A') (A") (A") (A') (A') (A") (A")
                 (A') (A') (A") (A') (A") (A') (A') (A') (A') (A')
                 (A') (A') (A') (A') (A') (A') (A') (A') (A') (A')
                 (A') (A') (A') (A") (A') (A') (A') (A') (A') (A')
                 (A") (A') (A") (A') (A') (A") (A') (A") (A") (A")
                 (A") (A') (A') (A") (A') (A") (A') (A") (A') (A')
                 (A") (A') (A') (A') (A") (A') (A') (A') (A") (A')
                 (A") (A') (A') (A') (A") (A') (A') (A") (A") (A")
                 (A') (A') (A") (A') (A') (A") (A') (A') (A') (A")
                 (A") (A") (A') (A") (A") (A') (A') (A') (A') (A")
                 (A') (A') (A") (A') (A') (A") (A') (A") (A') (A")
                 (A') (A') (A') (A') (A") (A') (A") (A') (A") (A')
                 (A") (A') (A') (A') (A') (A") (A') (A") (A') (A")
                 (A') (A') (A') (A') (A") (A') (A') (A') (A') (A")
                 (A') (A') (A') (A") (A') (A') (A') (A") (A') (A")
                 (A') (A') (A') (A') (A") (A') (A') (A') (A') (A')
                 (A") (A") (A") (A') (A") (A') (A") (A') (A") (A")
                 (A') (A") (A') (A") (A') (A") (A') (A') (A') (A')
                 (A') (A') (A') (A') (A') (A') (A') (A') (A') (A')
                 (A') (A') (A') (A") (A') (A') (A') (A') (A') (A')
                 (A') (A') (A') (A') (A') (A') (A') (A') (A') (A')
                 (A') (A') (A') (A') (A') (A') (A') (A') (A') (A')
                 (A')
 The electronic state is 1-A'.
 Alpha  occ. eigenvalues --  -10.77417 -10.74650 -10.73387 -10.72563 -10.72150
 Alpha  occ. eigenvalues --  -10.72012 -10.71790 -10.71326 -10.71091 -10.71079
 Alpha  occ. eigenvalues --  -10.69659 -10.69582 -10.68814 -10.68056  -1.17031
 Alpha  occ. eigenvalues --   -1.13128  -1.07380  -1.06842  -1.01629  -1.01267
 Alpha  occ. eigenvalues --   -0.95313  -0.91508  -0.86343  -0.85414  -0.83252
 Alpha  occ. eigenvalues --   -0.78360  -0.76262  -0.74021  -0.70874  -0.69461
 Alpha  occ. eigenvalues --   -0.68616  -0.68487  -0.66957  -0.65015  -0.63997
 Alpha  occ. eigenvalues --   -0.62490  -0.61007  -0.60959  -0.59540  -0.59096
 Alpha  occ. eigenvalues --   -0.56605  -0.53923  -0.53318  -0.52760  -0.47509
 Alpha  occ. eigenvalues --   -0.46255  -0.43456
 Alpha virt. eigenvalues --   -0.26256  -0.15467  -0.13352  -0.12235  -0.11226
 Alpha virt. eigenvalues --   -0.10197  -0.09270  -0.08151  -0.07712  -0.07470
 Alpha virt. eigenvalues --   -0.07219  -0.06977  -0.05695  -0.05636  -0.05497
 Alpha virt. eigenvalues --   -0.04022  -0.03686  -0.03599  -0.03123  -0.02109
 Alpha virt. eigenvalues --   -0.01369  -0.01018  -0.00285   0.00126   0.00462
 Alpha virt. eigenvalues --    0.00843   0.01276   0.01609   0.01612   0.01833
 Alpha virt. eigenvalues --    0.02516   0.02521   0.02992   0.03179   0.03872
 Alpha virt. eigenvalues --    0.04291   0.04740   0.04848   0.05036   0.05359
 Alpha virt. eigenvalues --    0.05929   0.06037   0.06371   0.06967   0.07085
 Alpha virt. eigenvalues --    0.07241   0.07740   0.07943   0.08321   0.08616
 Alpha virt. eigenvalues --    0.08894   0.08993   0.09088   0.10034   0.10730
 Alpha virt. eigenvalues --    0.11003   0.11554   0.12415   0.12935   0.12981
 Alpha virt. eigenvalues --    0.13306   0.13404   0.13525   0.15503   0.15948
 Alpha virt. eigenvalues --    0.16022   0.16148   0.16631   0.17434   0.17673
 Alpha virt. eigenvalues --    0.18613   0.18887   0.19552   0.20689   0.21006
 Alpha virt. eigenvalues --    0.21258   0.22477   0.23034   0.23214   0.23519
 Alpha virt. eigenvalues --    0.24111   0.25013   0.26708   0.27296   0.28731
 Alpha virt. eigenvalues --    0.30013   0.30371   0.32045   0.32893   0.36046
 Alpha virt. eigenvalues --    0.38175   0.38766   0.40321   0.41067   0.41659
 Alpha virt. eigenvalues --    0.41952   0.42856   0.43126   0.44102   0.44249
 Alpha virt. eigenvalues --    0.45338   0.45649   0.47265   0.47726   0.48413
 Alpha virt. eigenvalues --    0.48554   0.49235   0.49321   0.50253   0.51437
 Alpha virt. eigenvalues --    0.52277   0.52495   0.54035   0.54110   0.54330
 Alpha virt. eigenvalues --    0.54648   0.55786   0.56455   0.57168   0.58221
 Alpha virt. eigenvalues --    0.59794   0.60855   0.61638   0.62230   0.64216
 Alpha virt. eigenvalues --    0.64432   0.64774   0.65768   0.67099   0.69200
 Alpha virt. eigenvalues --    0.69623   0.70648   0.71594   0.72226   0.74027
 Alpha virt. eigenvalues --    0.75687   0.76124   0.76805   0.77119   0.77789
 Alpha virt. eigenvalues --    0.78624   0.79218   0.80214   0.80217   0.81254
 Alpha virt. eigenvalues --    0.82128   0.83350   0.84067   0.84489   0.86277
 Alpha virt. eigenvalues --    0.86750   0.87848   0.88992   0.90097   0.92002
 Alpha virt. eigenvalues --    0.92097   0.94380   0.94812   0.96209   0.98693
 Alpha virt. eigenvalues --    0.99736   0.99774   1.00578   1.02848   1.02879
 Alpha virt. eigenvalues --    1.04922   1.05909   1.07085   1.10505   1.17537
 Alpha virt. eigenvalues --    1.18629   1.20874   1.21313   1.25955   1.31894
 Alpha virt. eigenvalues --    1.33074   1.33836   1.34696   1.35554   1.35919
 Alpha virt. eigenvalues --    1.39876   1.40439   1.42007   1.42566   1.43159
 Alpha virt. eigenvalues --    1.44089   1.45398   1.45709   1.46895   1.48336
 Alpha virt. eigenvalues --    1.49758   1.51782   1.52714   1.53311   1.54946
 Alpha virt. eigenvalues --    1.56557   1.57644   1.60551   1.62121   1.62496
 Alpha virt. eigenvalues --    1.62912   1.63628   1.65778   1.66672   1.67837
 Alpha virt. eigenvalues --    1.67895   1.70898   1.73347   1.74392   1.76957
 Alpha virt. eigenvalues --    1.77789   1.79559   1.80826   1.82182   1.83226
 Alpha virt. eigenvalues --    1.83494   1.83617   1.84623   1.85317   1.86556
 Alpha virt. eigenvalues --    1.86917   1.87086   1.88836   1.90714   1.90725
 Alpha virt. eigenvalues --    1.93650   1.95749   1.98453   2.00397   2.01708
 Alpha virt. eigenvalues --    2.04876   2.06691   2.07049   2.11287   2.13332
 Alpha virt. eigenvalues --    2.14442   2.15225   2.19015   2.19495   2.22703
 Alpha virt. eigenvalues --    2.26077   2.28728   2.30365   2.34171   2.34300
 Alpha virt. eigenvalues --    2.36783   2.37469   2.39699   2.43393   2.43834
 Alpha virt. eigenvalues --    2.44986   2.45874   2.49379   2.54639   2.55424
 Alpha virt. eigenvalues --    2.56317   2.57043   2.57099   2.58089   2.59077
 Alpha virt. eigenvalues --    2.60408   2.61226   2.61820   2.63520   2.64762
 Alpha virt. eigenvalues --    2.65699   2.66222   2.67575   2.69193   2.70703
 Alpha virt. eigenvalues --    2.70854   2.73620   2.74276   2.76574   2.76709
 Alpha virt. eigenvalues --    2.78422   2.80057   2.80600   2.83668   2.86480
 Alpha virt. eigenvalues --    2.86512   2.92023   2.94271   2.95793   3.00027
 Alpha virt. eigenvalues --    3.03133   3.07549   3.10364   3.13105   3.17928
 Alpha virt. eigenvalues --    3.19946   3.23637   3.28266   3.30313   3.31238
 Alpha virt. eigenvalues --    3.38831   3.41743   3.47138   3.49490   3.53056
 Alpha virt. eigenvalues --    3.56641   3.57775   3.61126   3.63908   3.79645
 Alpha virt. eigenvalues --    3.89292   3.91298   3.92324   3.94997   3.98955
 Alpha virt. eigenvalues --    4.01003   4.07636   4.10341   4.30316   4.52743
 Alpha virt. eigenvalues --    4.55977   4.71950  23.41886  23.52414  23.62838
 Alpha virt. eigenvalues --   23.73049  23.76535  23.89435  23.91529  23.98343
 Alpha virt. eigenvalues --   24.07321  24.09596  24.19145  24.25365  24.31286
 Alpha virt. eigenvalues --   24.39086
          Condensed to atoms (all electrons):
               1          2          3          4          5          6
     1  C    7.345989   0.695724  -0.813593   1.136201   0.031788  -0.082431
     2  C    0.695724   7.391875   0.385750  -0.812966  -0.199257  -0.029170
     3  C   -0.813593   0.385750   6.301028   0.522900  -0.003016   0.024043
     4  C    1.136201  -0.812966   0.522900   7.612321   0.203949  -0.053333
     5  C    0.031788  -0.199257  -0.003016   0.203949   8.444436   0.138125
     6  C   -0.082431  -0.029170   0.024043  -0.053333   0.138125   6.705461
     7  C   -0.021459   0.018057  -0.019544  -0.059950  -0.207448   0.497311
     8  C    0.284694  -0.084391  -0.120225   0.154420   2.088196  -0.587550
     9  C   -0.916889  -0.186006   0.019786  -0.665888  -1.319272   0.154303
    10  C   -0.920070  -0.128689   0.049748  -1.244220  -0.965163  -0.131718
    11  C   -0.149853  -0.499923   0.070028  -0.494391  -0.895758  -0.233542
    12  C   -0.637304   0.273600  -0.223651  -0.214111  -0.009756   0.100971
    13  C    0.138214  -0.209623  -0.231904  -0.496989  -1.860471   0.200634
    14  C   -0.471732  -0.444348   0.050924   0.045636   0.101190  -0.611231
    15  H    0.352598  -0.061666   0.022112   0.014640   0.002016   0.001468
    16  H   -0.034519   0.390513  -0.009848   0.019736  -0.002080  -0.000512
    17  H   -0.015870  -0.034544   0.409692  -0.074133   0.000653   0.000642
    18  H    0.040521   0.006030  -0.099003   0.434073   0.011958  -0.003688
    19  H   -0.040770   0.002822   0.041809  -0.046693  -0.059980   0.041393
    20  H    0.009265   0.002339  -0.002266   0.021490   0.377404  -0.096205
    21  H   -0.000710  -0.000439   0.000243  -0.000156  -0.018121   0.368833
    22  H   -0.000018   0.000293  -0.000235  -0.000767   0.001562  -0.015757
    23  H    0.007303  -0.003455   0.000941   0.004948   0.017228  -0.011813
    24  H    0.038251   0.022223   0.000528  -0.006958  -0.014040  -0.004812
    25  H    0.038251   0.022223   0.000528  -0.006958  -0.014040  -0.004812
               7          8          9         10         11         12
     1  C   -0.021459   0.284694  -0.916889  -0.920070  -0.149853  -0.637304
     2  C    0.018057  -0.084391  -0.186006  -0.128689  -0.499923   0.273600
     3  C   -0.019544  -0.120225   0.019786   0.049748   0.070028  -0.223651
     4  C   -0.059950   0.154420  -0.665888  -1.244220  -0.494391  -0.214111
     5  C   -0.207448   2.088196  -1.319272  -0.965163  -0.895758  -0.009756
     6  C    0.497311  -0.587550   0.154303  -0.131718  -0.233542   0.100971
     7  C    6.162156   0.656739  -0.283287  -0.009018  -0.013540  -0.210228
     8  C    0.656739   9.509186  -2.433742  -1.056596  -0.706855  -0.771614
     9  C   -0.283287  -2.433742   8.183563   1.065456   1.265373   0.263516
    10  C   -0.009018  -1.056596   1.065456   7.412581   0.705625   0.665374
    11  C   -0.013540  -0.706855   1.265373   0.705625   7.485309   0.897566
    12  C   -0.210228  -0.771614   0.263516   0.665374   0.897566   7.752736
    13  C   -0.699076  -0.660686   0.846476  -0.031818  -0.233008  -2.172260
    14  C    0.143716  -0.713877  -0.326835   0.325235  -1.467464  -0.209950
    15  H   -0.002379  -0.001104   0.021168   0.000442  -0.035595   0.029705
    16  H    0.000239   0.000313  -0.009738  -0.011291   0.005697   0.000518
    17  H   -0.000422  -0.002150   0.002367   0.014793   0.020262   0.029127
    18  H    0.000762   0.008470  -0.018750  -0.009129   0.006924  -0.031884
    19  H   -0.009003  -0.059250   0.069061   0.412849   0.034151  -0.013787
    20  H    0.001292   0.044165  -0.028949   0.038628   0.013638  -0.012112
    21  H   -0.031047  -0.007299  -0.002378   0.004094  -0.006724   0.003266
    22  H    0.364737  -0.027547   0.006599  -0.002731   0.002550  -0.006721
    23  H   -0.080934   0.347342   0.071753  -0.006697  -0.010430   0.000379
    24  H    0.003430  -0.010519   0.376562   0.004747   0.030559  -0.016799
    25  H    0.003430  -0.010519   0.376562   0.004747   0.030559  -0.016799
              13         14         15         16         17         18
     1  C    0.138214  -0.471732   0.352598  -0.034519  -0.015870   0.040521
     2  C   -0.209623  -0.444348  -0.061666   0.390513  -0.034544   0.006030
     3  C   -0.231904   0.050924   0.022112  -0.009848   0.409692  -0.099003
     4  C   -0.496989   0.045636   0.014640   0.019736  -0.074133   0.434073
     5  C   -1.860471   0.101190   0.002016  -0.002080   0.000653   0.011958
     6  C    0.200634  -0.611231   0.001468  -0.000512   0.000642  -0.003688
     7  C   -0.699076   0.143716  -0.002379   0.000239  -0.000422   0.000762
     8  C   -0.660686  -0.713877  -0.001104   0.000313  -0.002150   0.008470
     9  C    0.846476  -0.326835   0.021168  -0.009738   0.002367  -0.018750
    10  C   -0.031818   0.325235   0.000442  -0.011291   0.014793  -0.009129
    11  C   -0.233008  -1.467464  -0.035595   0.005697   0.020262   0.006924
    12  C   -2.172260  -0.209950   0.029705   0.000518   0.029127  -0.031884
    13  C   12.069562  -0.031924  -0.020800  -0.001667  -0.006318  -0.008787
    14  C   -0.031924   9.727054  -0.000251  -0.009151   0.003120  -0.018373
    15  H   -0.020800  -0.000251   0.461170  -0.011319   0.002141  -0.000399
    16  H   -0.001667  -0.009151  -0.011319   0.423553  -0.009068   0.002350
    17  H   -0.006318   0.003120   0.002141  -0.009068   0.446612  -0.017481
    18  H   -0.008787  -0.018373  -0.000399   0.002350  -0.017481   0.451333
    19  H    0.041557  -0.049165   0.000483  -0.000753   0.002721  -0.003723
    20  H    0.037652  -0.072969  -0.000201   0.000059  -0.000258   0.001216
    21  H   -0.011253   0.036750   0.000024  -0.000008   0.000012  -0.000092
    22  H    0.031777  -0.020636  -0.000162   0.000007  -0.000007   0.000010
    23  H   -0.003003  -0.005312   0.000436  -0.000112   0.000010  -0.000018
    24  H   -0.035536  -0.060529  -0.001614   0.000514  -0.000051  -0.000076
    25  H   -0.035536  -0.060529  -0.001614   0.000514  -0.000051  -0.000076
              19         20         21         22         23         24
     1  C   -0.040770   0.009265  -0.000710  -0.000018   0.007303   0.038251
     2  C    0.002822   0.002339  -0.000439   0.000293  -0.003455   0.022223
     3  C    0.041809  -0.002266   0.000243  -0.000235   0.000941   0.000528
     4  C   -0.046693   0.021490  -0.000156  -0.000767   0.004948  -0.006958
     5  C   -0.059980   0.377404  -0.018121   0.001562   0.017228  -0.014040
     6  C    0.041393  -0.096205   0.368833  -0.015757  -0.011813  -0.004812
     7  C   -0.009003   0.001292  -0.031047   0.364737  -0.080934   0.003430
     8  C   -0.059250   0.044165  -0.007299  -0.027547   0.347342  -0.010519
     9  C    0.069061  -0.028949  -0.002378   0.006599   0.071753   0.376562
    10  C    0.412849   0.038628   0.004094  -0.002731  -0.006697   0.004747
    11  C    0.034151   0.013638  -0.006724   0.002550  -0.010430   0.030559
    12  C   -0.013787  -0.012112   0.003266  -0.006721   0.000379  -0.016799
    13  C    0.041557   0.037652  -0.011253   0.031777  -0.003003  -0.035536
    14  C   -0.049165  -0.072969   0.036750  -0.020636  -0.005312  -0.060529
    15  H    0.000483  -0.000201   0.000024  -0.000162   0.000436  -0.001614
    16  H   -0.000753   0.000059  -0.000008   0.000007  -0.000112   0.000514
    17  H    0.002721  -0.000258   0.000012  -0.000007   0.000010  -0.000051
    18  H   -0.003723   0.001216  -0.000092   0.000010  -0.000018  -0.000076
    19  H    0.443605  -0.007395   0.000435  -0.000229   0.000082   0.000618
    20  H   -0.007395   0.474547  -0.005143   0.000906   0.000087   0.000601
    21  H    0.000435  -0.005143   0.412432  -0.004446   0.000438  -0.000209
    22  H   -0.000229   0.000906  -0.004446   0.414288  -0.005192   0.000605
    23  H    0.000082   0.000087   0.000438  -0.005192   0.427430   0.000952
    24  H    0.000618   0.000601  -0.000209   0.000605   0.000952   0.494063
    25  H    0.000618   0.000601  -0.000209   0.000605   0.000952  -0.079825
              25
     1  C    0.038251
     2  C    0.022223
     3  C    0.000528
     4  C   -0.006958
     5  C   -0.014040
     6  C   -0.004812
     7  C    0.003430
     8  C   -0.010519
     9  C    0.376562
    10  C    0.004747
    11  C    0.030559
    12  C   -0.016799
    13  C   -0.035536
    14  C   -0.060529
    15  H   -0.001614
    16  H    0.000514
    17  H   -0.000051
    18  H   -0.000076
    19  H    0.000618
    20  H    0.000601
    21  H   -0.000209
    22  H    0.000605
    23  H    0.000952
    24  H   -0.079825
    25  H    0.494063
 Mulliken charges:
               1
     1  C   -0.013582
     2  C   -0.516971
     3  C   -0.376775
     4  C    0.007200
     5  C    0.149899
     6  C   -0.366612
     7  C   -0.204535
     8  C    0.160399
     9  C   -0.530810
    10  C   -0.187180
    11  C    0.178842
    12  C    0.530217
    13  C   -0.615214
    14  C    0.140651
    15  H    0.228698
    16  H    0.256054
    17  H    0.228202
    18  H    0.247833
    19  H    0.198546
    20  H    0.201610
    21  H    0.261709
    22  H    0.260509
    23  H    0.246683
    24  H    0.257314
    25  H    0.257314
 Sum of Mulliken charges =   1.00000
 Mulliken charges with hydrogens summed into heavy atoms:
               1
     1  C    0.215116
     2  C   -0.260918
     3  C   -0.148574
     4  C    0.255033
     5  C    0.351509
     6  C   -0.104903
     7  C    0.055973
     8  C    0.407082
     9  C   -0.016181
    10  C    0.011366
    11  C    0.178842
    12  C    0.530217
    13  C   -0.615214
    14  C    0.140651
 Electronic spatial extent (au):  <R**2>=           2859.3681
 Charge=              1.0000 electrons
 Dipole moment (field-independent basis, Debye):
    X=              0.8791    Y=              1.1008    Z=             -0.0000  Tot=              1.4088
 Quadrupole moment (field-independent basis, Debye-Ang):
   XX=            -53.0175   YY=            -35.1322   ZZ=            -84.0258
   XY=              9.3253   XZ=              0.0000   YZ=             -0.0000
 Traceless Quadrupole moment (field-independent basis, Debye-Ang):
   XX=              4.3743   YY=             22.2597   ZZ=            -26.6340
   XY=              9.3253   XZ=              0.0000   YZ=             -0.0000
 Octapole moment (field-independent basis, Debye-Ang**2):
  XXX=              1.6278  YYY=             26.1078  ZZZ=             -0.0000  XYY=             16.7854
  XXY=              2.9785  XXZ=             -0.0000  XZZ=             -2.6664  YZZ=              1.1991
  YYZ=             -0.0000  XYZ=              0.0000
 Hexadecapole moment (field-independent basis, Debye-Ang**3):
 XXXX=          -1088.2975 YYYY=          -1749.1437 ZZZZ=            -98.9946 XXXY=           -384.4708
 XXXZ=              0.0000 YYYX=           -297.3256 YYYZ=             -0.0000 ZZZX=              0.0000
 ZZZY=             -0.0000 XXYY=           -464.6218 XXZZ=           -256.0774 YYZZ=           -481.9214
 XXYZ=             -0.0000 YYXZ=              0.0000 ZZXY=           -192.2687
 N-N= 7.817525325278D+02 E-N=-2.799887023201D+03  KE= 5.377914066810D+02
 Symmetry A'   KE= 5.230530307390D+02
 Symmetry A"   KE= 1.473837594200D+01
 Unable to Open any file for archive entry.
 1\1\GINC-GADI-CPU-CLX-1538\SP\RM062X TD-FC\6-311++G(d,p)\C14H11(1+)\TS
 1578\27-Jul-2022\0\\#n M062X/6-311++G(d,p) TD(NStates=1) EmpiricalDisp
 ersion=GD3 SP\\SP_5\\1,1\C,0,0.,2.484655,1.365431\C,0,0.,3.617508,0.64
 2989\C,0,0.,3.646861,-0.76683\C,0,0.,2.533156,-1.446538\C,0,0.,-2.3931
 56,-1.368538\C,0,0.,-3.720861,-0.66083\C,0,0.,-3.785508,0.700989\C,0,0
 .,-2.500655,1.355431\C,0,0.,-0.064,1.453369\C,0,0.,0.007,-1.429189\C,0
 ,0.,1.314055,0.635065\C,0,0.,1.309471,-0.643804\C,0,0.,-1.210055,0.719
 065\C,0,0.,-1.165471,-0.817804\H,0,0.,2.318071,2.443647\H,0,0.,4.50275
 3,1.265689\H,0,0.,4.536262,-1.378349\H,0,0.,2.66955,-2.524059\H,0,0.,0
 .15,-2.510266\H,0,0.,-2.26555,-2.456059\H,0,0.,-4.682262,-1.166349\H,0
 ,0.,-4.770753,1.157689\H,0,0.,-2.658071,2.443647\H,0,-0.859585,-0.262,
 2.145787\H,0,0.859585,-0.262,2.145787\\Version=ES64L-G16RevC.01\State=
 1-A'\HF=-539.6442923\RMSD=3.051e-09\PG=CS [SG(C14H9),X(H2)]\\@
 The archive entry for this job was punched.


 MEN HAVE BECOME THE TOOLS OF THEIR TOOLS... THOREAU   
 Job cpu time:       0 days  0 hours 49 minutes 29.2 seconds.
 Elapsed time:       0 days  0 hours  1 minutes 33.3 seconds.
 File lengths (MBytes):  RWF=    459 Int=      0 D2E=      0 Chk=     15 Scr=      1
 Normal termination of Gaussian 16 at Wed Jul 27 12:20:36 2022.
