 Entering Gaussian System, Link 0=g16
 Initial command:
 /apps/gaussian/g16c01/g16/l1.exe "/jobfs/52815815.gadi-pbs/Gau-2072746.inp" -scrdir="/jobfs/52815815.gadi-pbs/"
 Entering Link 1 = /apps/gaussian/g16c01/g16/l1.exe PID=   2072747.
  
 Copyright (c) 1988-2019, Gaussian, Inc.  All Rights Reserved.
  
 This is part of the Gaussian(R) 16 program.  It is based on
 the Gaussian(R) 09 system (copyright 2009, Gaussian, Inc.),
 the Gaussian(R) 03 system (copyright 2003, Gaussian, Inc.),
 the Gaussian(R) 98 system (copyright 1998, Gaussian, Inc.),
 the Gaussian(R) 94 system (copyright 1995, Gaussian, Inc.),
 the Gaussian 92(TM) system (copyright 1992, Gaussian, Inc.),
 the Gaussian 90(TM) system (copyright 1990, Gaussian, Inc.),
 the Gaussian 88(TM) system (copyright 1988, Gaussian, Inc.),
 the Gaussian 86(TM) system (copyright 1986, Carnegie Mellon
 University), and the Gaussian 82(TM) system (copyright 1983,
 Carnegie Mellon University). Gaussian is a federally registered
 trademark of Gaussian, Inc.
  
 This software contains proprietary and confidential information,
 including trade secrets, belonging to Gaussian, Inc.
  
 This software is provided under written license and may be
 used, copied, transmitted, or stored only in accord with that
 written license.
  
 The following legend is applicable only to US Government
 contracts under FAR:
  
                    RESTRICTED RIGHTS LEGEND
  
 Use, reproduction and disclosure by the US Government is
 subject to restrictions as set forth in subparagraphs (a)
 and (c) of the Commercial Computer Software - Restricted
 Rights clause in FAR 52.227-19.
  
 Gaussian, Inc.
 340 Quinnipiac St., Bldg. 40, Wallingford CT 06492
  
  
 ---------------------------------------------------------------
 Warning -- This program may not be used in any manner that
 competes with the business of Gaussian, Inc. or will provide
 assistance to any competitor of Gaussian, Inc.  The licensee
 of this program is prohibited from giving any competitor of
 Gaussian, Inc. access to this program.  By using this program,
 the user acknowledges that Gaussian, Inc. is engaged in the
 business of creating and licensing software in the field of
 computational chemistry and represents and warrants to the
 licensee that it is not a competitor of Gaussian, Inc. and that
 it will not use this program in any manner prohibited above.
 ---------------------------------------------------------------
  

 Cite this work as:
 Gaussian 16, Revision C.01,
 M. J. Frisch, G. W. Trucks, H. B. Schlegel, G. E. Scuseria, 
 M. A. Robb, J. R. Cheeseman, G. Scalmani, V. Barone, 
 G. A. Petersson, H. Nakatsuji, X. Li, M. Caricato, A. V. Marenich, 
 J. Bloino, B. G. Janesko, R. Gomperts, B. Mennucci, H. P. Hratchian, 
 J. V. Ortiz, A. F. Izmaylov, J. L. Sonnenberg, D. Williams-Young, 
 F. Ding, F. Lipparini, F. Egidi, J. Goings, B. Peng, A. Petrone, 
 T. Henderson, D. Ranasinghe, V. G. Zakrzewski, J. Gao, N. Rega, 
 G. Zheng, W. Liang, M. Hada, M. Ehara, K. Toyota, R. Fukuda, 
 J. Hasegawa, M. Ishida, T. Nakajima, Y. Honda, O. Kitao, H. Nakai, 
 T. Vreven, K. Throssell, J. A. Montgomery, Jr., J. E. Peralta, 
 F. Ogliaro, M. J. Bearpark, J. J. Heyd, E. N. Brothers, K. N. Kudin, 
 V. N. Staroverov, T. A. Keith, R. Kobayashi, J. Normand, 
 K. Raghavachari, A. P. Rendell, J. C. Burant, S. S. Iyengar, 
 J. Tomasi, M. Cossi, J. M. Millam, M. Klene, C. Adamo, R. Cammi, 
 J. W. Ochterski, R. L. Martin, K. Morokuma, O. Farkas, 
 J. B. Foresman, and D. J. Fox, Gaussian, Inc., Wallingford CT, 2019.
 
 ******************************************
 Gaussian 16:  ES64L-G16RevC.01  3-Jul-2019
                27-Jul-2022 
 ******************************************
 %NProcShared=32
 Will use up to   32 processors via shared memory.
 %mem = 128GB
 ---------------------------------------------------------------
 #n M062X/6-311++G(d,p) TD(NStates=1) EmpiricalDispersion=GD3 SP
 ---------------------------------------------------------------
 1/38=1,172=1/1;
 2/12=2,17=6,18=5,40=1/2;
 3/5=4,6=6,7=1111,11=9,25=1,30=1,74=-55,124=31/1,2,3,8;
 4//1;
 5/5=2,38=5/2;
 8/6=1,10=2,108=1/1;
 9/41=1,42=1,70=2/14;
 6/7=2,8=2,9=2,10=2/1;
 99/5=1,9=1/99;
 ----
 SP_2
 ----
 Symbolic Z-matrix:
 Charge =  1 Multiplicity = 1
 C                     0.        2.44466   1.36243 
 C                     0.        3.61751   0.63799 
 C                     0.        3.64386  -0.77983 
 C                     0.        2.54716  -1.44554 
 C                     0.       -2.37916  -1.36954 
 C                     0.       -3.72386  -0.64783 
 C                     0.       -3.78551   0.70599 
 C                     0.       -2.54066   1.35843 
 C                     0.       -0.048     1.45337 
 C                     0.        0.084    -1.42919 
 C                     0.        1.30806   0.69107 
 C                     0.        1.29147  -0.6988 
 C                     0.       -1.21606   0.66307 
 C                     0.       -1.18347  -0.7628 
 H                     0.        2.40607   2.44365 
 H                     0.        4.53275   1.21369 
 H                     0.        4.57726  -1.32035 
 H                     0.        2.57355  -2.52606 
 H                     0.        0.13     -2.51027 
 H                     0.       -2.36155  -2.45406 
 H                     0.       -4.64126  -1.22435 
 H                     0.       -4.74075   1.20969 
 H                     0.       -2.57007   2.44365 
 H                    -0.85959  -0.228     2.14579 
 H                     0.85959  -0.228     2.14579 
 
                          Input orientation:                          
 ---------------------------------------------------------------------
 Center     Atomic      Atomic             Coordinates (Angstroms)
 Number     Number       Type             X           Y           Z
 ---------------------------------------------------------------------
      1          6           0        0.000000    2.444655    1.362431
      2          6           0        0.000000    3.617508    0.637989
      3          6           0        0.000000    3.643861   -0.779830
      4          6           0        0.000000    2.547156   -1.445538
      5          6           0        0.000000   -2.379156   -1.369538
      6          6           0        0.000000   -3.723861   -0.647830
      7          6           0        0.000000   -3.785508    0.705989
      8          6           0        0.000000   -2.540655    1.358431
      9          6           0        0.000000   -0.048000    1.453369
     10          6           0        0.000000    0.084000   -1.429189
     11          6           0        0.000000    1.308055    0.691065
     12          6           0        0.000000    1.291471   -0.698804
     13          6           0        0.000000   -1.216055    0.663065
     14          6           0        0.000000   -1.183471   -0.762804
     15          1           0        0.000000    2.406071    2.443647
     16          1           0        0.000000    4.532753    1.213689
     17          1           0        0.000000    4.577262   -1.320349
     18          1           0        0.000000    2.573550   -2.526059
     19          1           0        0.000000    0.130000   -2.510266
     20          1           0        0.000000   -2.361550   -2.454059
     21          1           0        0.000000   -4.641262   -1.224349
     22          1           0        0.000000   -4.740753    1.209689
     23          1           0        0.000000   -2.570071    2.443647
     24          1           0       -0.859585   -0.228000    2.145787
     25          1           0        0.859585   -0.228000    2.145787
 ---------------------------------------------------------------------
                    Distance matrix (angstroms):
                    1          2          3          4          5
     1  C    0.000000
     2  C    1.378550   0.000000
     3  C    2.455072   1.418064   0.000000
     4  C    2.809839   2.342379   1.282938   0.000000
     5  C    5.543718   6.323776   6.051817   4.926898   0.000000
     6  C    6.487815   7.453122   7.368904   6.321550   1.526137
     7  C    6.264651   7.403328   7.576489   6.688176   2.507118
     8  C    4.985312   6.200162   6.543730   5.809308   2.732745
     9  C    2.494313   3.755102   4.314744   3.890822   3.661023
    10  C    3.655931   4.093764   3.618602   2.463210   2.463878
    11  C    1.320073   2.310063   2.760348   2.469908   4.223933
    12  C    2.361890   2.682809   2.353785   1.460944   3.731405
    13  C    3.726917   4.833628   5.069589   4.313695   2.341854
    14  C    4.204750   5.001162   4.827362   3.792585   1.340816
    15  H    1.081904   2.174392   3.452959   3.891743   6.118724
    16  H    2.093389   1.081251   2.182716   3.318747   7.378858
    17  H    3.427145   2.180875   1.078609   2.033962   6.956592
    18  H    3.890626   3.331824   2.048141   1.080843   5.085945
    19  H    4.511697   4.698321   3.916839   2.641267   2.756288
    20  H    6.137198   6.731263   6.234421   5.011238   1.084664
    21  H    7.543318   8.466143   8.297039   7.191820   2.266761
    22  H    7.187031   8.377790   8.617421   7.756536   3.497078
    23  H    5.129961   6.445660   7.000268   6.427423   3.817961
    24  H    2.914724   4.219037   4.928431   4.619306   4.209972
    25  H    2.914724   4.219037   4.928431   4.619306   4.209972
                    6          7          8          9         10
     6  C    0.000000
     7  C    1.355222   0.000000
     8  C    2.329176   1.405468   0.000000
     9  C    4.234028   3.811501   2.494462   0.000000
    10  C    3.887200   4.419511   3.828791   2.885579   0.000000
    11  C    5.206997   5.093585   3.906142   1.555633   2.448221
    12  C    5.015591   5.267747   4.349414   2.534962   1.411187
    13  C    2.829759   2.569812   1.496028   1.410295   2.463264
    14  C    2.542990   2.987967   2.518251   2.490124   1.431975
    15  H    6.865369   6.430794   5.064365   2.646340   4.515625
    16  H    8.463860   8.333740   7.074889   4.587019   5.174573
    17  H    8.328321   8.604764   7.605301   5.393196   4.494580
    18  H    6.571539   7.133285   6.422177   4.765330   2.720475
    19  H    4.280294   5.067100   4.700980   3.967630   1.082055
    20  H    2.262378   3.466058   3.816695   4.540981   2.651617
    21  H    1.083512   2.111521   3.329159   5.316788   4.729700
    22  H    2.117651   1.079911   2.205120   4.699076   5.499265
    23  H    3.299767   2.120552   1.085615   2.709519   4.694992
    24  H    4.556778   3.932908   2.589824   1.118360   3.690079
    25  H    4.556778   3.932908   2.589824   1.118360   3.690079
                   11         12         13         14         15
    11  C    0.000000
    12  C    1.389968   0.000000
    13  C    2.524265   2.853485   0.000000
    14  C    2.884690   2.475769   1.426241   0.000000
    15  H    2.068135   3.334266   4.036121   4.813122   0.000000
    16  H    3.266774   3.763448   5.775117   6.048284   2.456740
    17  H    3.838424   3.344061   6.123435   5.787651   4.345312
    18  H    3.457075   2.232171   4.952940   4.150214   4.972527
    19  H    3.411207   2.151839   3.447012   2.186053   5.451766
    20  H    4.832991   4.052836   3.320937   2.061120   6.835037
    21  H    6.250055   5.955965   3.910802   3.488458   7.944753
    22  H    6.071001   6.326932   3.566832   4.067553   7.252568
    23  H    4.255750   4.978605   2.236925   3.493421   4.976142
    24  H    2.283543   3.337570   1.978283   3.179892   2.786743
    25  H    2.283543   3.337570   1.978283   3.179892   2.786743
                   16         17         18         19         20
    16  H    0.000000
    17  H    2.534429   0.000000
    18  H    4.221871   2.338503   0.000000
    19  H    5.766461   4.603699   2.443601   0.000000
    20  H    7.809212   7.030819   4.935625   2.492184   0.000000
    21  H    9.492449   9.219024   7.331300   4.941510   2.590227
    22  H    9.273507   9.655387   8.213090   6.128809   4.368484
    23  H    7.208530   8.077873   7.152259   5.641953   4.902143
    24  H    4.926709   5.986946   5.514863   4.748250   5.142908
    25  H    4.926709   5.986946   5.514863   4.748250   5.142908
                   21         22         23         24         25
    21  H    0.000000
    22  H    2.436070   0.000000
    23  H    4.212366   2.496901   0.000000
    24  H    5.619038   4.688295   2.512549   0.000000
    25  H    5.619038   4.688295   2.512549   1.719170   0.000000
 Stoichiometry    C14H11(1+)
 Framework group  CS[SG(C14H9),X(H2)]
 Deg. of freedom    46
 Full point group                 CS      NOp   2
 Largest Abelian subgroup         CS      NOp   2
 Largest concise Abelian subgroup CS      NOp   2
                         Standard orientation:                         
 ---------------------------------------------------------------------
 Center     Atomic      Atomic             Coordinates (Angstroms)
 Number     Number       Type             X           Y           Z
 ---------------------------------------------------------------------
      1          6           0       -2.368468   -1.494222    0.000000
      2          6           0       -2.294852   -2.870806    0.000000
      3          6           0       -1.063154   -3.573533    0.000000
      4          6           0        0.046776   -2.930117    0.000000
      5          6           0        2.341392    1.429821    0.000000
      6          6           0        2.352549    2.955917    0.000000
      7          6           0        1.193938    3.658943    0.000000
      8          6           0        0.024639    2.879149    0.000000
      9          6           0       -1.253480    0.737011    0.000000
     10          6           0        1.213086   -0.760526    0.000000
     11          6           0       -1.234449   -0.818505    0.000000
     12          6           0       -0.006700   -1.470153    0.000000
     13          6           0        0.000000    1.383324    0.000000
     14          6           0        1.235776    0.671269    0.000000
     15          1           0       -3.298887   -0.942103    0.000000
     16          1           0       -3.238809   -3.398109    0.000000
     17          1           0       -1.036180   -4.651805    0.000000
     18          1           0        0.982429   -3.471205    0.000000
     19          1           0        2.139829   -1.319087    0.000000
     20          1           0        3.284768    0.894529    0.000000
     21          1           0        3.298258    3.484720    0.000000
     22          1           0        1.209747    4.738738    0.000000
     23          1           0       -0.913686    3.425139    0.000000
     24          1           0       -1.774892    1.226880    0.859585
     25          1           0       -1.774892    1.226880   -0.859585
 ---------------------------------------------------------------------
 Rotational constants (GHZ):           2.1384745           0.4441190           0.3685444
 Standard basis: 6-311++G(d,p) (5D, 7F)
 There are   299 symmetry adapted cartesian basis functions of A'  symmetry.
 There are   100 symmetry adapted cartesian basis functions of A"  symmetry.
 There are   285 symmetry adapted basis functions of A'  symmetry.
 There are   100 symmetry adapted basis functions of A"  symmetry.
   385 basis functions,   603 primitive gaussians,   399 cartesian basis functions
    47 alpha electrons       47 beta electrons
       nuclear repulsion energy       781.6225328351 Hartrees.
 NAtoms=   25 NActive=   25 NUniq=   24 SFac= 1.09D+00 NAtFMM=   60 NAOKFM=F Big=F
 Integral buffers will be    131072 words long.
 Regular integral format.
 Two-electron integral symmetry is turned on.
 Nuclear repulsion after empirical dispersion term =      781.6215575010 Hartrees.
 One-electron integrals computed using PRISM.
 NBasis=   385 RedAO= T EigKep=  1.13D-06  NBF=   285   100
 NBsUse=   379 1.00D-06 EigRej=  7.90D-07 NBFU=   279   100
 ExpMin= 3.60D-02 ExpMax= 4.56D+03 ExpMxC= 6.82D+02 IAcc=3 IRadAn=         5 AccDes= 0.00D+00
 Harris functional with IExCor= 1009 and IRadAn=       5 diagonalized for initial guess.
 HarFok:  IExCor= 1009 AccDes= 0.00D+00 IRadAn=         5 IDoV= 1 UseB2=F ITyADJ=14
 ICtDFT=  3500011 ScaDFX=  1.000000  1.000000  1.000000  1.000000
 FoFCou: FMM=F IPFlag=           0 FMFlag=      100000 FMFlg1=           0
         NFxFlg=           0 DoJE=T BraDBF=F KetDBF=T FulRan=T
         wScrn=  0.000000 ICntrl=       500 IOpCl=  0 I1Cent=   200000004 NGrid=           0
         NMat0=    1 NMatS0=      1 NMatT0=    0 NMatD0=    1 NMtDS0=    0 NMtDT0=    0
 Petite list used in FoFCou.
 Initial guess orbital symmetries:
       Occupied  (A') (A') (A') (A') (A') (A') (A') (A') (A') (A')
                 (A') (A') (A') (A') (A') (A') (A') (A') (A') (A')
                 (A') (A') (A') (A') (A') (A') (A') (A') (A') (A')
                 (A') (A') (A') (A") (A') (A') (A') (A') (A") (A')
                 (A') (A") (A') (A") (A") (A") (A")
       Virtual   (A") (A") (A") (A") (A") (A') (A') (A') (A') (A")
                 (A') (A") (A') (A') (A') (A") (A') (A') (A') (A')
                 (A") (A') (A") (A') (A') (A") (A') (A') (A") (A')
                 (A') (A') (A') (A') (A") (A') (A') (A") (A') (A')
                 (A") (A') (A") (A') (A') (A') (A') (A') (A') (A")
                 (A') (A") (A') (A") (A') (A') (A') (A") (A') (A")
                 (A') (A') (A') (A') (A') (A") (A') (A') (A') (A")
                 (A') (A') (A') (A') (A') (A') (A') (A') (A') (A')
                 (A') (A') (A') (A') (A') (A') (A') (A') (A') (A')
                 (A') (A') (A') (A') (A') (A') (A") (A') (A") (A')
                 (A') (A") (A") (A') (A') (A") (A') (A") (A") (A")
                 (A') (A') (A') (A") (A') (A') (A') (A") (A") (A")
                 (A') (A") (A') (A') (A') (A") (A') (A') (A") (A')
                 (A') (A') (A') (A') (A') (A') (A") (A') (A') (A')
                 (A') (A') (A') (A') (A') (A') (A') (A") (A') (A')
                 (A") (A') (A") (A') (A") (A') (A") (A') (A') (A")
                 (A") (A') (A") (A") (A') (A") (A') (A') (A') (A')
                 (A") (A') (A') (A') (A') (A') (A") (A') (A') (A')
                 (A") (A') (A') (A") (A') (A") (A') (A") (A') (A")
                 (A") (A') (A') (A') (A") (A') (A') (A") (A') (A')
                 (A") (A") (A") (A') (A') (A") (A') (A") (A') (A")
                 (A') (A') (A") (A') (A') (A") (A") (A') (A') (A')
                 (A") (A') (A') (A') (A") (A') (A') (A') (A") (A")
                 (A') (A') (A') (A") (A') (A') (A") (A') (A") (A')
                 (A") (A') (A') (A') (A") (A') (A') (A') (A') (A")
                 (A') (A') (A') (A") (A") (A') (A') (A") (A') (A')
                 (A') (A") (A') (A') (A") (A') (A") (A') (A") (A')
                 (A') (A') (A') (A") (A') (A") (A') (A') (A") (A')
                 (A") (A') (A") (A') (A") (A") (A') (A') (A') (A')
                 (A') (A') (A') (A') (A') (A') (A') (A') (A') (A')
                 (A') (A') (A') (A") (A') (A') (A') (A') (A') (A')
                 (A') (A') (A') (A') (A') (A') (A') (A') (A') (A')
                 (A') (A') (A') (A') (A') (A') (A') (A') (A') (A')
                 (A') (A')
 The electronic state of the initial guess is 1-A'.
 Requested convergence on RMS density matrix=1.00D-08 within 128 cycles.
 Requested convergence on MAX density matrix=1.00D-06.
 Requested convergence on             energy=1.00D-06.
 No special actions if energy rises.
 SCF Done:  E(RM062X) =  -539.697592232     A.U. after   16 cycles
            NFock= 16  Conv=0.49D-08     -V/T= 2.0037
 DoSCS=F DFT=T ScalE2(SS,OS)=  1.000000  1.000000
 ExpMin= 3.60D-02 ExpMax= 4.56D+03 ExpMxC= 6.82D+02 IAcc=3 IRadAn=         5 AccDes= 0.00D+00
 HarFok:  IExCor=  205 AccDes= 0.00D+00 IRadAn=         5 IDoV=-2 UseB2=F ITyADJ=14
 ICtDFT= 12500011 ScaDFX=  1.000000  1.000000  1.000000  1.000000
 Range of M.O.s used for correlation:    15   379
 NBasis=   385 NAE=    47 NBE=    47 NFC=    14 NFV=     0
 NROrb=    365 NOA=    33 NOB=    33 NVA=   332 NVB=   332

 **** Warning!!: The largest alpha MO coefficient is  0.16935027D+03

 Orbital symmetries:
       Occupied  (A') (A') (A') (A') (A') (A') (A') (A') (A') (A')
                 (A') (A') (A') (A') (A') (A') (A') (A') (A') (A')
                 (A') (A') (A') (A') (A') (A') (A') (A') (A') (A')
                 (A') (A") (A') (A') (A') (A') (A") (A') (A') (A")
                 (A') (A') (A') (A") (A") (A") (A")
       Virtual   (A") (A") (A") (A") (A') (A') (A') (A') (A") (A')
                 (A') (A") (A') (A') (A") (A') (A") (A') (A') (A')
                 (A") (A") (A') (A') (A') (A") (A') (A') (A") (A')
                 (A") (A') (A") (A') (A') (A') (A') (A') (A") (A')
                 (A") (A') (A') (A") (A") (A') (A") (A') (A') (A")
                 (A') (A') (A') (A') (A') (A") (A') (A') (A') (A')
                 (A') (A") (A') (A') (A') (A") (A') (A') (A') (A')
                 (A') (A') (A') (A') (A') (A') (A') (A') (A') (A')
                 (A') (A') (A') (A') (A') (A') (A') (A') (A') (A')
                 (A') (A') (A') (A') (A") (A") (A') (A") (A') (A')
                 (A") (A') (A') (A') (A") (A") (A') (A") (A') (A")
                 (A') (A") (A') (A') (A') (A") (A') (A") (A') (A")
                 (A") (A') (A') (A") (A') (A") (A') (A') (A') (A')
                 (A') (A') (A') (A') (A') (A') (A') (A') (A') (A')
                 (A') (A') (A') (A") (A') (A') (A') (A') (A') (A')
                 (A") (A') (A') (A') (A") (A') (A") (A") (A') (A")
                 (A") (A') (A") (A') (A') (A") (A") (A") (A') (A')
                 (A") (A') (A') (A') (A') (A") (A') (A') (A') (A")
                 (A') (A') (A') (A") (A") (A') (A') (A") (A") (A')
                 (A") (A') (A') (A") (A') (A") (A') (A') (A') (A')
                 (A") (A") (A") (A') (A") (A') (A') (A") (A') (A')
                 (A") (A') (A") (A') (A') (A") (A') (A') (A') (A")
                 (A") (A') (A') (A') (A") (A') (A') (A") (A') (A")
                 (A') (A') (A") (A') (A') (A') (A") (A') (A") (A')
                 (A") (A') (A') (A") (A') (A') (A') (A') (A') (A')
                 (A") (A') (A') (A') (A') (A") (A") (A') (A') (A")
                 (A') (A') (A') (A') (A') (A") (A') (A') (A') (A')
                 (A') (A") (A') (A") (A") (A") (A') (A") (A') (A")
                 (A') (A") (A") (A') (A") (A") (A') (A') (A') (A')
                 (A') (A') (A') (A') (A') (A') (A') (A') (A') (A')
                 (A') (A') (A') (A") (A') (A') (A') (A') (A') (A')
                 (A') (A') (A') (A') (A') (A') (A') (A') (A') (A')
                 (A') (A') (A') (A') (A') (A') (A') (A') (A') (A')
                 (A') (A')
     4 initial guesses have been made.
 Convergence on wavefunction:    0.001000000000000
 Iteration     1 Dimension     4 NMult     0 NNew      4
 CISAX will form     4 AO SS matrices at one time.
 Iteration     2 Dimension     6 NMult     4 NNew      2
 Iteration     3 Dimension     8 NMult     6 NNew      2
 Iteration     4 Dimension    10 NMult     8 NNew      2
 Iteration     5 Dimension    12 NMult    10 NNew      2
 Iteration     6 Dimension    14 NMult    12 NNew      2
 ***********************************************************************
 Excited states from <AA,BB:AA,BB> singles matrix:
 ***********************************************************************
 
 Ground to excited state transition densities written to RWF  633
 Ground to excited state transition electric dipole moments (Au):
       state          X           Y           Z        Dip. S.      Osc.
         1        -0.2999      0.5269     -0.0000      0.3675      0.0199
 Ground to excited state transition velocity dipole moments (Au):
       state          X           Y           Z        Dip. S.      Osc.
         1         0.0331     -0.0421     -0.0000      0.0029      0.0235
 Ground to excited state transition magnetic dipole moments (Au):
       state          X           Y           Z
         1         0.0000      0.0000     -0.2518
 Ground to excited state transition velocity quadrupole moments (Au):
       state          XX          YY          ZZ          XY          XZ          YZ
         1         0.1382      0.0251     -0.0063      0.1248     -0.0000     -0.0000
 <0|del|b> * <b|rxdel|0> + <0|del|b> * <b|delr+rdel|0>
 Rotatory Strengths (R) in cgs (10**-40 erg-esu-cm/Gauss)
       state          XX          YY          ZZ    R(velocity)    E-M Angle
         1        -0.0000      0.0000      0.0000      0.0000       90.00
 1/2[<0|r|b>*<b|rxdel|0> + (<0|rxdel|b>*<b|r|0>)*]
 Rotatory Strengths (R) in cgs (10**-40 erg-esu-cm/Gauss)
       state          XX          YY          ZZ     R(length)
         1         0.0000     -0.0000     -0.0000     -0.0000
  1/2[<0|del|b>*<b|r|0> + (<0|r|b>*<b|del|0>)*] (Au)
       state          X           Y           Z        Dip. S.   Osc.(frdel)
         1        -0.0099     -0.0222      0.0000      0.0321      0.0214

 Excitation energies and oscillator strengths:
 
 Excited State   1:      Singlet-A'     2.2147 eV  559.83 nm  f=0.0199  <S**2>=0.000
      47 -> 48         0.70360
 This state for optimization and/or second-order correction.
 Total Energy, E(TD-HF/TD-DFT) =  -539.616204226    
 Copying the excited state density for this state as the 1-particle RhoCI density.
 SavETr:  write IOETrn=   770 NScale= 10 NData=  16 NLR=1 NState=    1 LETran=      28.

 **********************************************************************

            Population analysis using the SCF Density.

 **********************************************************************

 Orbital symmetries:
       Occupied  (A') (A') (A') (A') (A') (A') (A') (A') (A') (A')
                 (A') (A') (A') (A') (A') (A') (A') (A') (A') (A')
                 (A') (A') (A') (A') (A') (A') (A') (A') (A') (A')
                 (A') (A") (A') (A') (A') (A') (A") (A') (A') (A")
                 (A') (A') (A') (A") (A") (A") (A")
       Virtual   (A") (A") (A") (A") (A') (A') (A') (A') (A") (A')
                 (A') (A") (A') (A') (A") (A') (A") (A') (A') (A')
                 (A") (A") (A') (A') (A') (A") (A') (A') (A") (A')
                 (A") (A') (A") (A') (A') (A') (A') (A') (A") (A')
                 (A") (A') (A') (A") (A") (A') (A") (A') (A') (A")
                 (A') (A') (A') (A') (A') (A") (A') (A') (A') (A')
                 (A') (A") (A') (A') (A') (A") (A') (A') (A') (A')
                 (A') (A') (A') (A') (A') (A') (A') (A') (A') (A')
                 (A') (A') (A') (A') (A') (A') (A') (A') (A') (A')
                 (A') (A') (A') (A') (A") (A") (A') (A") (A') (A')
                 (A") (A') (A') (A') (A") (A") (A') (A") (A') (A")
                 (A') (A") (A') (A') (A') (A") (A') (A") (A') (A")
                 (A") (A') (A') (A") (A') (A") (A') (A') (A') (A')
                 (A') (A') (A') (A') (A') (A') (A') (A') (A') (A')
                 (A') (A') (A') (A") (A') (A') (A') (A') (A') (A')
                 (A") (A') (A') (A') (A") (A') (A") (A") (A') (A")
                 (A") (A') (A") (A') (A') (A") (A") (A") (A') (A')
                 (A") (A') (A') (A') (A') (A") (A') (A') (A') (A")
                 (A') (A') (A') (A") (A") (A') (A') (A") (A") (A')
                 (A") (A') (A') (A") (A') (A") (A') (A') (A') (A')
                 (A") (A") (A") (A') (A") (A') (A') (A") (A') (A')
                 (A") (A') (A") (A') (A') (A") (A') (A') (A') (A")
                 (A") (A') (A') (A') (A") (A') (A') (A") (A') (A")
                 (A') (A') (A") (A') (A') (A') (A") (A') (A") (A')
                 (A") (A') (A') (A") (A') (A') (A') (A') (A') (A')
                 (A") (A') (A') (A') (A') (A") (A") (A') (A') (A")
                 (A') (A') (A') (A') (A') (A") (A') (A') (A') (A')
                 (A') (A") (A') (A") (A") (A") (A') (A") (A') (A")
                 (A') (A") (A") (A') (A") (A") (A') (A') (A') (A')
                 (A') (A') (A') (A') (A') (A') (A') (A') (A') (A')
                 (A') (A') (A') (A") (A') (A') (A') (A') (A') (A')
                 (A') (A') (A') (A') (A') (A') (A') (A') (A') (A')
                 (A') (A') (A') (A') (A') (A') (A') (A') (A') (A')
                 (A') (A')
 The electronic state is 1-A'.
 Alpha  occ. eigenvalues --  -10.77524 -10.73797 -10.73096 -10.72911 -10.72632
 Alpha  occ. eigenvalues --  -10.71582 -10.71236 -10.71209 -10.70941 -10.69993
 Alpha  occ. eigenvalues --  -10.69947 -10.69632 -10.69521 -10.69368  -1.17124
 Alpha  occ. eigenvalues --   -1.12784  -1.06636  -1.06427  -1.02193  -1.01235
 Alpha  occ. eigenvalues --   -0.94755  -0.90661  -0.86823  -0.85728  -0.83702
 Alpha  occ. eigenvalues --   -0.77908  -0.76654  -0.74050  -0.69742  -0.69553
 Alpha  occ. eigenvalues --   -0.68425  -0.68058  -0.67942  -0.66044  -0.64623
 Alpha  occ. eigenvalues --   -0.61934  -0.61405  -0.60746  -0.58722  -0.58568
 Alpha  occ. eigenvalues --   -0.57266  -0.55208  -0.53755  -0.52318  -0.49249
 Alpha  occ. eigenvalues --   -0.46239  -0.41985
 Alpha virt. eigenvalues --   -0.26114  -0.15144  -0.13918  -0.12463  -0.11217
 Alpha virt. eigenvalues --   -0.10121  -0.09308  -0.07929  -0.07751  -0.07522
 Alpha virt. eigenvalues --   -0.07233  -0.07090  -0.05692  -0.05561  -0.05399
 Alpha virt. eigenvalues --   -0.03958  -0.03724  -0.03396  -0.03120  -0.02123
 Alpha virt. eigenvalues --   -0.01285  -0.01115   0.00118   0.00437   0.00605
 Alpha virt. eigenvalues --    0.01053   0.01464   0.01808   0.02076   0.02192
 Alpha virt. eigenvalues --    0.02454   0.02633   0.02829   0.03150   0.03583
 Alpha virt. eigenvalues --    0.04117   0.04282   0.04659   0.05029   0.05474
 Alpha virt. eigenvalues --    0.05950   0.06239   0.06436   0.07117   0.07312
 Alpha virt. eigenvalues --    0.07874   0.08152   0.08225   0.08674   0.08694
 Alpha virt. eigenvalues --    0.09006   0.09232   0.09838   0.10397   0.10917
 Alpha virt. eigenvalues --    0.11058   0.11835   0.12287   0.12486   0.13046
 Alpha virt. eigenvalues --    0.13289   0.13470   0.13527   0.14427   0.15354
 Alpha virt. eigenvalues --    0.15999   0.16330   0.16566   0.17322   0.17351
 Alpha virt. eigenvalues --    0.18063   0.18770   0.19385   0.19736   0.20767
 Alpha virt. eigenvalues --    0.21341   0.21460   0.22532   0.23498   0.23725
 Alpha virt. eigenvalues --    0.24391   0.24622   0.25674   0.26713   0.27764
 Alpha virt. eigenvalues --    0.28887   0.29673   0.29929   0.31620   0.34787
 Alpha virt. eigenvalues --    0.36390   0.38394   0.39364   0.40678   0.40679
 Alpha virt. eigenvalues --    0.41240   0.42176   0.42988   0.43502   0.44510
 Alpha virt. eigenvalues --    0.44566   0.45259   0.46343   0.47142   0.47476
 Alpha virt. eigenvalues --    0.48052   0.48227   0.49408   0.50260   0.50805
 Alpha virt. eigenvalues --    0.51181   0.52136   0.52746   0.53171   0.54240
 Alpha virt. eigenvalues --    0.54354   0.54931   0.54962   0.56461   0.57666
 Alpha virt. eigenvalues --    0.58223   0.60047   0.61749   0.61851   0.62245
 Alpha virt. eigenvalues --    0.63414   0.63900   0.64877   0.65927   0.68372
 Alpha virt. eigenvalues --    0.69645   0.70008   0.71683   0.72626   0.72935
 Alpha virt. eigenvalues --    0.74761   0.76368   0.76531   0.76795   0.77516
 Alpha virt. eigenvalues --    0.78106   0.78568   0.78712   0.80230   0.80316
 Alpha virt. eigenvalues --    0.81096   0.81953   0.83138   0.83675   0.85335
 Alpha virt. eigenvalues --    0.86348   0.87075   0.88101   0.89950   0.90207
 Alpha virt. eigenvalues --    0.91304   0.92623   0.93885   0.94385   0.96113
 Alpha virt. eigenvalues --    0.98047   0.99070   1.01067   1.01538   1.02307
 Alpha virt. eigenvalues --    1.02653   1.04724   1.05585   1.06630   1.10010
 Alpha virt. eigenvalues --    1.19247   1.19989   1.21590   1.24014   1.26212
 Alpha virt. eigenvalues --    1.32553   1.33321   1.34304   1.35219   1.35730
 Alpha virt. eigenvalues --    1.37668   1.39995   1.40093   1.41199   1.43680
 Alpha virt. eigenvalues --    1.43797   1.44110   1.46427   1.46825   1.47383
 Alpha virt. eigenvalues --    1.47425   1.49481   1.52390   1.53718   1.54531
 Alpha virt. eigenvalues --    1.55910   1.56197   1.58292   1.59665   1.61389
 Alpha virt. eigenvalues --    1.62402   1.64023   1.64729   1.66125   1.68177
 Alpha virt. eigenvalues --    1.68520   1.69539   1.70120   1.74539   1.76253
 Alpha virt. eigenvalues --    1.76670   1.76782   1.79122   1.79851   1.81744
 Alpha virt. eigenvalues --    1.82477   1.82998   1.83656   1.84205   1.84351
 Alpha virt. eigenvalues --    1.84523   1.86906   1.87419   1.88384   1.91401
 Alpha virt. eigenvalues --    1.92055   1.93426   1.97608   1.98276   1.99109
 Alpha virt. eigenvalues --    1.99677   2.03128   2.06221   2.06787   2.11051
 Alpha virt. eigenvalues --    2.13226   2.15257   2.15326   2.18500   2.20942
 Alpha virt. eigenvalues --    2.22284   2.27602   2.30785   2.32716   2.33857
 Alpha virt. eigenvalues --    2.35845   2.38593   2.38982   2.41660   2.42838
 Alpha virt. eigenvalues --    2.44653   2.46849   2.49155   2.52735   2.53088
 Alpha virt. eigenvalues --    2.55866   2.56424   2.57572   2.58691   2.58698
 Alpha virt. eigenvalues --    2.59404   2.60191   2.61605   2.62899   2.63033
 Alpha virt. eigenvalues --    2.64752   2.65304   2.65550   2.66401   2.67973
 Alpha virt. eigenvalues --    2.70439   2.71172   2.73194   2.73251   2.74599
 Alpha virt. eigenvalues --    2.76409   2.76927   2.79337   2.81919   2.83825
 Alpha virt. eigenvalues --    2.86274   2.86407   2.91921   2.96574   2.98503
 Alpha virt. eigenvalues --    3.00853   3.03795   3.06024   3.10218   3.16018
 Alpha virt. eigenvalues --    3.18747   3.21012   3.24663   3.28846   3.30564
 Alpha virt. eigenvalues --    3.31435   3.37484   3.42522   3.45346   3.49648
 Alpha virt. eigenvalues --    3.53462   3.54942   3.57830   3.63092   3.64887
 Alpha virt. eigenvalues --    3.71127   3.91479   3.92159   3.93987   3.95883
 Alpha virt. eigenvalues --    4.03282   4.04092   4.08544   4.12139   4.33750
 Alpha virt. eigenvalues --    4.58144   4.62997   4.70616  23.44104  23.58523
 Alpha virt. eigenvalues --   23.71030  23.76596  23.81028  23.85540  23.90673
 Alpha virt. eigenvalues --   23.94675  23.96612  24.00542  24.13593  24.14621
 Alpha virt. eigenvalues --   24.23880  24.38206
          Condensed to atoms (all electrons):
               1          2          3          4          5          6
     1  C    7.800213   0.640520  -0.680514   1.448624  -0.125738  -0.076172
     2  C    0.640520   7.507378   0.469039  -1.016316  -0.075708  -0.018341
     3  C   -0.680514   0.469039   6.512060   0.752704  -0.094525   0.017323
     4  C    1.448624  -1.016316   0.752704  10.997198  -0.535927  -0.123329
     5  C   -0.125738  -0.075708  -0.094525  -0.535927  11.762702   0.886277
     6  C   -0.076172  -0.018341   0.017323  -0.123329   0.886277   6.571950
     7  C   -0.009736  -0.001613  -0.011014   0.046516  -1.401878   0.182385
     8  C    0.340569  -0.018458  -0.117900  -0.075928   3.062758  -0.218183
     9  C   -0.676584  -0.885732   0.243412   0.449953  -0.651865   0.258349
    10  C   -1.051078  -0.011509  -0.078930  -2.603578  -2.335820  -0.518609
    11  C    0.632848  -0.856674   0.709055   1.365384  -1.958516  -0.120606
    12  C   -1.937009   1.069753  -1.384105  -2.956888   0.551920  -0.268635
    13  C    0.497752  -0.298568  -0.253262  -0.887675  -2.277946   0.827442
    14  C   -1.274170  -0.340227  -0.016430  -1.118180  -1.213582  -1.283674
    15  H    0.368767  -0.090907  -0.000816   0.013202   0.008324   0.001479
    16  H   -0.019824   0.382110  -0.020928   0.027367  -0.002407  -0.000443
    17  H   -0.013954  -0.030372   0.402068  -0.081886  -0.000041   0.000455
    18  H    0.041472   0.004850  -0.077377   0.485678   0.000672  -0.004734
    19  H   -0.031993  -0.006083   0.050361  -0.064114  -0.075169   0.047554
    20  H    0.005748   0.002534  -0.005052   0.005901   0.444558  -0.080310
    21  H   -0.000972  -0.000448   0.000318   0.000704  -0.059916   0.356436
    22  H    0.000051   0.000235  -0.000205  -0.000763  -0.000435  -0.008361
    23  H    0.005021  -0.001716   0.000615   0.001260   0.045688   0.000441
    24  H    0.048084   0.017822   0.000148  -0.003361  -0.024749  -0.003496
    25  H    0.048084   0.017822   0.000148  -0.003361  -0.024749  -0.003496
               7          8          9         10         11         12
     1  C   -0.009736   0.340569  -0.676584  -1.051078   0.632848  -1.937009
     2  C   -0.001613  -0.018458  -0.885732  -0.011509  -0.856674   1.069753
     3  C   -0.011014  -0.117900   0.243412  -0.078930   0.709055  -1.384105
     4  C    0.046516  -0.075928   0.449953  -2.603578   1.365384  -2.956888
     5  C   -1.401878   3.062758  -0.651865  -2.335820  -1.958516   0.551920
     6  C    0.182385  -0.218183   0.258349  -0.518609  -0.120606  -0.268635
     7  C    7.207121  -0.551928  -0.761473   0.492455  -0.241720  -0.092017
     8  C   -0.551928  10.159650  -1.348419  -1.587779  -0.094365  -0.763688
     9  C   -0.761473  -1.348419   9.649785   0.303172   1.998527  -2.781364
    10  C    0.492455  -1.587779   0.303172   8.844668  -0.109996   2.279428
    11  C   -0.241720  -0.094365   1.998527  -0.109996  14.048272  -5.407913
    12  C   -0.092017  -0.763688  -2.781364   2.279428  -5.407913  18.600349
    13  C   -0.389348  -0.630727   0.977300  -0.190681   0.880599  -4.777433
    14  C    1.634217  -2.700427  -1.346578   2.085836  -4.318317   3.152703
    15  H   -0.003444   0.005776   0.067889  -0.001844  -0.038472   0.012972
    16  H    0.000439   0.001188  -0.002481  -0.013072   0.017859  -0.022376
    17  H   -0.000306  -0.001749  -0.001321   0.019030  -0.013828   0.066384
    18  H    0.001927   0.006298  -0.012683  -0.019670   0.016094  -0.047511
    19  H   -0.005705  -0.059292   0.071010   0.422267   0.073994  -0.124372
    20  H   -0.002957   0.062017  -0.027951   0.024952  -0.010574   0.008403
    21  H    0.006687  -0.045631  -0.009098   0.019798  -0.006775   0.005749
    22  H    0.366316  -0.023640   0.004427  -0.003462   0.001922  -0.005335
    23  H   -0.121632   0.389054   0.105028  -0.018344   0.014335   0.007859
    24  H    0.012622  -0.000750   0.370038   0.008279   0.033866  -0.057897
    25  H    0.012622  -0.000750   0.370038   0.008279   0.033866  -0.057897
              13         14         15         16         17         18
     1  C    0.497752  -1.274170   0.368767  -0.019824  -0.013954   0.041472
     2  C   -0.298568  -0.340227  -0.090907   0.382110  -0.030372   0.004850
     3  C   -0.253262  -0.016430  -0.000816  -0.020928   0.402068  -0.077377
     4  C   -0.887675  -1.118180   0.013202   0.027367  -0.081886   0.485678
     5  C   -2.277946  -1.213582   0.008324  -0.002407  -0.000041   0.000672
     6  C    0.827442  -1.283674   0.001479  -0.000443   0.000455  -0.004734
     7  C   -0.389348   1.634217  -0.003444   0.000439  -0.000306   0.001927
     8  C   -0.630727  -2.700427   0.005776   0.001188  -0.001749   0.006298
     9  C    0.977300  -1.346578   0.067889  -0.002481  -0.001321  -0.012683
    10  C   -0.190681   2.085836  -0.001844  -0.013072   0.019030  -0.019670
    11  C    0.880599  -4.318317  -0.038472   0.017859  -0.013828   0.016094
    12  C   -4.777433   3.152703   0.012972  -0.022376   0.066384  -0.047511
    13  C   14.997645  -1.886136  -0.013515   0.003205  -0.006326  -0.012181
    14  C   -1.886136  14.396780   0.007596  -0.013062   0.005560  -0.043809
    15  H   -0.013515   0.007596   0.436115  -0.008412   0.002005   0.000081
    16  H    0.003205  -0.013062  -0.008412   0.410167  -0.007776   0.002335
    17  H   -0.006326   0.005560   0.002005  -0.007776   0.428000  -0.013378
    18  H   -0.012181  -0.043809   0.000081   0.002335  -0.013378   0.443876
    19  H    0.088618  -0.013194   0.000566  -0.000720   0.002399  -0.004392
    20  H   -0.000723  -0.090344  -0.000169   0.000037  -0.000232   0.001221
    21  H   -0.025804   0.100948   0.000019  -0.000008   0.000010  -0.000075
    22  H    0.028157  -0.022036  -0.000120   0.000007  -0.000005   0.000004
    23  H   -0.053818  -0.049914   0.000530  -0.000129   0.000003  -0.000075
    24  H   -0.005405  -0.064382  -0.001371   0.000556  -0.000097   0.000048
    25  H   -0.005405  -0.064382  -0.001371   0.000556  -0.000097   0.000048
              19         20         21         22         23         24
     1  C   -0.031993   0.005748  -0.000972   0.000051   0.005021   0.048084
     2  C   -0.006083   0.002534  -0.000448   0.000235  -0.001716   0.017822
     3  C    0.050361  -0.005052   0.000318  -0.000205   0.000615   0.000148
     4  C   -0.064114   0.005901   0.000704  -0.000763   0.001260  -0.003361
     5  C   -0.075169   0.444558  -0.059916  -0.000435   0.045688  -0.024749
     6  C    0.047554  -0.080310   0.356436  -0.008361   0.000441  -0.003496
     7  C   -0.005705  -0.002957   0.006687   0.366316  -0.121632   0.012622
     8  C   -0.059292   0.062017  -0.045631  -0.023640   0.389054  -0.000750
     9  C    0.071010  -0.027951  -0.009098   0.004427   0.105028   0.370038
    10  C    0.422267   0.024952   0.019798  -0.003462  -0.018344   0.008279
    11  C    0.073994  -0.010574  -0.006775   0.001922   0.014335   0.033866
    12  C   -0.124372   0.008403   0.005749  -0.005335   0.007859  -0.057897
    13  C    0.088618  -0.000723  -0.025804   0.028157  -0.053818  -0.005405
    14  C   -0.013194  -0.090344   0.100948  -0.022036  -0.049914  -0.064382
    15  H    0.000566  -0.000169   0.000019  -0.000120   0.000530  -0.001371
    16  H   -0.000720   0.000037  -0.000008   0.000007  -0.000129   0.000556
    17  H    0.002399  -0.000232   0.000010  -0.000005   0.000003  -0.000097
    18  H   -0.004392   0.001221  -0.000075   0.000004  -0.000075   0.000048
    19  H    0.448550  -0.009071   0.000607  -0.000339  -0.000001   0.000707
    20  H   -0.009071   0.470101  -0.007891   0.001403   0.000056   0.000342
    21  H    0.000607  -0.007891   0.421506  -0.004158   0.000511  -0.000166
    22  H   -0.000339   0.001403  -0.004158   0.424442  -0.007121   0.000638
    23  H   -0.000001   0.000056   0.000511  -0.007121   0.446386  -0.000382
    24  H    0.000707   0.000342  -0.000166   0.000638  -0.000382   0.488727
    25  H    0.000707   0.000342  -0.000166   0.000638  -0.000382  -0.076630
              25
     1  C    0.048084
     2  C    0.017822
     3  C    0.000148
     4  C   -0.003361
     5  C   -0.024749
     6  C   -0.003496
     7  C    0.012622
     8  C   -0.000750
     9  C    0.370038
    10  C    0.008279
    11  C    0.033866
    12  C   -0.057897
    13  C   -0.005405
    14  C   -0.064382
    15  H   -0.001371
    16  H    0.000556
    17  H   -0.000097
    18  H    0.000048
    19  H    0.000707
    20  H    0.000342
    21  H   -0.000166
    22  H    0.000638
    23  H   -0.000382
    24  H   -0.076630
    25  H    0.488727
 Mulliken charges:
               1
     1  C    0.019988
     2  C   -0.459391
     3  C   -0.416193
     4  C   -0.123186
     5  C    0.096070
     6  C   -0.421705
     7  C   -0.368536
     8  C    0.212302
     9  C   -0.363378
    10  C    0.036208
    11  C   -0.648865
    12  C    0.928920
    13  C   -0.585763
    14  C    0.475203
    15  H    0.235119
    16  H    0.265808
    17  H    0.245455
    18  H    0.231280
    19  H    0.187106
    20  H    0.207659
    21  H    0.247814
    22  H    0.247741
    23  H    0.236725
    24  H    0.256809
    25  H    0.256809
 Sum of Mulliken charges =   1.00000
 Mulliken charges with hydrogens summed into heavy atoms:
               1
     1  C    0.255107
     2  C   -0.193583
     3  C   -0.170738
     4  C    0.108095
     5  C    0.303729
     6  C   -0.173891
     7  C   -0.120795
     8  C    0.449027
     9  C    0.150240
    10  C    0.223313
    11  C   -0.648865
    12  C    0.928920
    13  C   -0.585763
    14  C    0.475203
 Electronic spatial extent (au):  <R**2>=           2858.0656
 Charge=              1.0000 electrons
 Dipole moment (field-independent basis, Debye):
    X=             -0.6445    Y=             -1.3792    Z=             -0.0000  Tot=              1.5224
 Quadrupole moment (field-independent basis, Debye-Ang):
   XX=            -52.2289   YY=            -35.1340   ZZ=            -84.0784
   XY=              9.5727   XZ=              0.0000   YZ=             -0.0000
 Traceless Quadrupole moment (field-independent basis, Debye-Ang):
   XX=              4.9182   YY=             22.0131   ZZ=            -26.9313
   XY=              9.5727   XZ=              0.0000   YZ=             -0.0000
 Octapole moment (field-independent basis, Debye-Ang**2):
  XXX=             -7.2414  YYY=             -3.2527  ZZZ=             -0.0000  XYY=              0.6145
  XXY=             -8.6269  XXZ=             -0.0000  XZZ=             -4.2135  YZZ=             -1.4274
  YYZ=             -0.0000  XYZ=              0.0000
 Hexadecapole moment (field-independent basis, Debye-Ang**3):
 XXXX=           -998.0023 YYYY=          -1832.6445 ZZZZ=            -99.2562 XXXY=           -353.5931
 XXXZ=              0.0000 YYYX=           -276.9030 YYYZ=             -0.0000 ZZZX=             -0.0000
 ZZZY=             -0.0000 XXYY=           -459.1890 XXZZ=           -240.6328 YYZZ=           -495.6608
 XXYZ=             -0.0000 YYXZ=              0.0000 ZZXY=           -182.2876
 N-N= 7.816215575010D+02 E-N=-2.799648811459D+03  KE= 5.377079315657D+02
 Symmetry A'   KE= 5.230193596878D+02
 Symmetry A"   KE= 1.468857187785D+01
 Unable to Open any file for archive entry.
 1\1\GINC-GADI-CPU-CLX-1538\SP\RM062X TD-FC\6-311++G(d,p)\C14H11(1+)\TS
 1578\27-Jul-2022\0\\#n M062X/6-311++G(d,p) TD(NStates=1) EmpiricalDisp
 ersion=GD3 SP\\SP_2\\1,1\C,0,0.,2.444655,1.362431\C,0,0.,3.617508,0.63
 7989\C,0,0.,3.643861,-0.77983\C,0,0.,2.547156,-1.445538\C,0,0.,-2.3791
 56,-1.369538\C,0,0.,-3.723861,-0.64783\C,0,0.,-3.785508,0.705989\C,0,0
 .,-2.540655,1.358431\C,0,0.,-0.048,1.453369\C,0,0.,0.084,-1.429189\C,0
 ,0.,1.308055,0.691065\C,0,0.,1.291471,-0.698804\C,0,0.,-1.216055,0.663
 065\C,0,0.,-1.183471,-0.762804\H,0,0.,2.406071,2.443647\H,0,0.,4.53275
 3,1.213689\H,0,0.,4.577262,-1.320349\H,0,0.,2.57355,-2.526059\H,0,0.,0
 .13,-2.510266\H,0,0.,-2.36155,-2.454059\H,0,0.,-4.641262,-1.224349\H,0
 ,0.,-4.740753,1.209689\H,0,0.,-2.570071,2.443647\H,0,-0.859585,-0.228,
 2.145787\H,0,0.859585,-0.228,2.145787\\Version=ES64L-G16RevC.01\State=
 1-A'\HF=-539.6975922\RMSD=4.917e-09\PG=CS [SG(C14H9),X(H2)]\\@
 The archive entry for this job was punched.


 THE BEST WAY TO CONVINCE A FOOL THAT HE IS WRONG 
 IS TO LET HIM HAVE HIS OWN WAY.

                                         JOSH BILLINGS
 Job cpu time:       0 days  0 hours 51 minutes 49.1 seconds.
 Elapsed time:       0 days  0 hours  1 minutes 49.0 seconds.
 File lengths (MBytes):  RWF=    460 Int=      0 D2E=      0 Chk=     15 Scr=      1
 Normal termination of Gaussian 16 at Wed Jul 27 11:54:09 2022.
