 Entering Gaussian System, Link 0=g16
 Initial command:
 /apps/gaussian/g16c01/g16/l1.exe "/jobfs/52815815.gadi-pbs/Gau-2074662.inp" -scrdir="/jobfs/52815815.gadi-pbs/"
 Entering Link 1 = /apps/gaussian/g16c01/g16/l1.exe PID=   2074663.
  
 Copyright (c) 1988-2019, Gaussian, Inc.  All Rights Reserved.
  
 This is part of the Gaussian(R) 16 program.  It is based on
 the Gaussian(R) 09 system (copyright 2009, Gaussian, Inc.),
 the Gaussian(R) 03 system (copyright 2003, Gaussian, Inc.),
 the Gaussian(R) 98 system (copyright 1998, Gaussian, Inc.),
 the Gaussian(R) 94 system (copyright 1995, Gaussian, Inc.),
 the Gaussian 92(TM) system (copyright 1992, Gaussian, Inc.),
 the Gaussian 90(TM) system (copyright 1990, Gaussian, Inc.),
 the Gaussian 88(TM) system (copyright 1988, Gaussian, Inc.),
 the Gaussian 86(TM) system (copyright 1986, Carnegie Mellon
 University), and the Gaussian 82(TM) system (copyright 1983,
 Carnegie Mellon University). Gaussian is a federally registered
 trademark of Gaussian, Inc.
  
 This software contains proprietary and confidential information,
 including trade secrets, belonging to Gaussian, Inc.
  
 This software is provided under written license and may be
 used, copied, transmitted, or stored only in accord with that
 written license.
  
 The following legend is applicable only to US Government
 contracts under FAR:
  
                    RESTRICTED RIGHTS LEGEND
  
 Use, reproduction and disclosure by the US Government is
 subject to restrictions as set forth in subparagraphs (a)
 and (c) of the Commercial Computer Software - Restricted
 Rights clause in FAR 52.227-19.
  
 Gaussian, Inc.
 340 Quinnipiac St., Bldg. 40, Wallingford CT 06492
  
  
 ---------------------------------------------------------------
 Warning -- This program may not be used in any manner that
 competes with the business of Gaussian, Inc. or will provide
 assistance to any competitor of Gaussian, Inc.  The licensee
 of this program is prohibited from giving any competitor of
 Gaussian, Inc. access to this program.  By using this program,
 the user acknowledges that Gaussian, Inc. is engaged in the
 business of creating and licensing software in the field of
 computational chemistry and represents and warrants to the
 licensee that it is not a competitor of Gaussian, Inc. and that
 it will not use this program in any manner prohibited above.
 ---------------------------------------------------------------
  

 Cite this work as:
 Gaussian 16, Revision C.01,
 M. J. Frisch, G. W. Trucks, H. B. Schlegel, G. E. Scuseria, 
 M. A. Robb, J. R. Cheeseman, G. Scalmani, V. Barone, 
 G. A. Petersson, H. Nakatsuji, X. Li, M. Caricato, A. V. Marenich, 
 J. Bloino, B. G. Janesko, R. Gomperts, B. Mennucci, H. P. Hratchian, 
 J. V. Ortiz, A. F. Izmaylov, J. L. Sonnenberg, D. Williams-Young, 
 F. Ding, F. Lipparini, F. Egidi, J. Goings, B. Peng, A. Petrone, 
 T. Henderson, D. Ranasinghe, V. G. Zakrzewski, J. Gao, N. Rega, 
 G. Zheng, W. Liang, M. Hada, M. Ehara, K. Toyota, R. Fukuda, 
 J. Hasegawa, M. Ishida, T. Nakajima, Y. Honda, O. Kitao, H. Nakai, 
 T. Vreven, K. Throssell, J. A. Montgomery, Jr., J. E. Peralta, 
 F. Ogliaro, M. J. Bearpark, J. J. Heyd, E. N. Brothers, K. N. Kudin, 
 V. N. Staroverov, T. A. Keith, R. Kobayashi, J. Normand, 
 K. Raghavachari, A. P. Rendell, J. C. Burant, S. S. Iyengar, 
 J. Tomasi, M. Cossi, J. M. Millam, M. Klene, C. Adamo, R. Cammi, 
 J. W. Ochterski, R. L. Martin, K. Morokuma, O. Farkas, 
 J. B. Foresman, and D. J. Fox, Gaussian, Inc., Wallingford CT, 2019.
 
 ******************************************
 Gaussian 16:  ES64L-G16RevC.01  3-Jul-2019
                27-Jul-2022 
 ******************************************
 %NProcShared=32
 Will use up to   32 processors via shared memory.
 %mem = 128GB
 ---------------------------------------------------------------
 #n M062X/6-311++G(d,p) TD(NStates=1) EmpiricalDispersion=GD3 SP
 ---------------------------------------------------------------
 1/38=1,172=1/1;
 2/12=2,17=6,18=5,40=1/2;
 3/5=4,6=6,7=1111,11=9,25=1,30=1,74=-55,124=31/1,2,3,8;
 4//1;
 5/5=2,38=5/2;
 8/6=1,10=2,108=1/1;
 9/41=1,42=1,70=2/14;
 6/7=2,8=2,9=2,10=2/1;
 99/5=1,9=1/99;
 ----
 SP_3
 ----
 Symbolic Z-matrix:
 Charge =  1 Multiplicity = 1
 C                     0.        2.50066   1.36343 
 C                     0.        3.66551   0.66099 
 C                     0.        3.66886  -0.73283 
 C                     0.        2.48916  -1.42454 
 C                     0.       -2.43716  -1.39054 
 C                     0.       -3.69886  -0.69483 
 C                     0.       -3.73751   0.68299 
 C                     0.       -2.48466   1.35743 
 C                     0.       -0.032     1.45337 
 C                     0.       -0.019    -1.42919 
 C                     0.        1.28605   0.64307 
 C                     0.        1.27347  -0.6778 
 C                     0.       -1.23806   0.71107 
 C                     0.       -1.20147  -0.7838 
 H                     0.        2.39007   2.44365 
 H                     0.        4.57075   1.24969 
 H                     0.        4.56626  -1.33435 
 H                     0.        2.58155  -2.50406 
 H                     0.        0.07     -2.51027 
 H                     0.       -2.35355  -2.47606 
 H                     0.       -4.65226  -1.21035 
 H                     0.       -4.70275   1.17369 
 H                     0.       -2.58607   2.44365 
 H                    -0.85959  -0.122     2.14579 
 H                     0.85959  -0.122     2.14579 
 
                          Input orientation:                          
 ---------------------------------------------------------------------
 Center     Atomic      Atomic             Coordinates (Angstroms)
 Number     Number       Type             X           Y           Z
 ---------------------------------------------------------------------
      1          6           0        0.000000    2.500655    1.363431
      2          6           0        0.000000    3.665508    0.660989
      3          6           0        0.000000    3.668861   -0.732830
      4          6           0        0.000000    2.489156   -1.424538
      5          6           0        0.000000   -2.437156   -1.390538
      6          6           0        0.000000   -3.698861   -0.694830
      7          6           0        0.000000   -3.737508    0.682989
      8          6           0        0.000000   -2.484655    1.357431
      9          6           0        0.000000   -0.032000    1.453369
     10          6           0        0.000000   -0.019000   -1.429189
     11          6           0        0.000000    1.286055    0.643065
     12          6           0        0.000000    1.273471   -0.677804
     13          6           0        0.000000   -1.238055    0.711065
     14          6           0        0.000000   -1.201471   -0.783804
     15          1           0        0.000000    2.390071    2.443647
     16          1           0        0.000000    4.570753    1.249689
     17          1           0        0.000000    4.566262   -1.334349
     18          1           0        0.000000    2.581550   -2.504059
     19          1           0        0.000000    0.070000   -2.510266
     20          1           0        0.000000   -2.353550   -2.476059
     21          1           0        0.000000   -4.652262   -1.210349
     22          1           0        0.000000   -4.702753    1.173689
     23          1           0        0.000000   -2.586071    2.443647
     24          1           0       -0.859585   -0.122000    2.145787
     25          1           0        0.859585   -0.122000    2.145787
 ---------------------------------------------------------------------
                    Distance matrix (angstroms):
                    1          2          3          4          5
     1  C    0.000000
     2  C    1.360260   0.000000
     3  C    2.399795   1.393823   0.000000
     4  C    2.787993   2.394416   1.367539   0.000000
     5  C    5.653877   6.438266   6.141337   4.926429   0.000000
     6  C    6.532261   7.488136   7.367820   6.230893   1.440802
     7  C    6.275164   7.403049   7.540480   6.573661   2.447535
     8  C    4.985314   6.189470   6.498842   5.698960   2.748379
     9  C    2.534251   3.781459   4.298353   3.826039   3.724592
    10  C    3.761301   4.236088   3.753030   2.508160   2.418465
    11  C    1.412155   2.379521   2.751518   2.392161   4.242386
    12  C    2.381726   2.741206   2.396022   1.426710   3.778458
    13  C    3.795199   4.903819   5.114945   4.295684   2.419624
    14  C    4.279761   5.076900   4.870599   3.745833   1.376606
    15  H    1.085862   2.191942   3.424224   3.869454   6.164665
    16  H    2.073220   1.079832   2.178025   3.388884   7.488764
    17  H    3.397756   2.189231   1.080349   2.079063   7.003643
    18  H    3.868336   3.345518   2.078340   1.083468   5.140753
    19  H    4.573140   4.794219   4.013861   2.651626   2.745837
    20  H    6.189102   6.787498   6.269632   4.955552   1.088736
    21  H    7.601879   8.525679   8.334813   7.144629   2.222423
    22  H    7.205907   8.383952   8.585962   7.646852   3.421723
    23  H    5.200158   6.500778   7.015282   6.381284   3.837076
    24  H    2.868673   4.157972   4.836936   4.506023   4.313285
    25  H    2.868673   4.157972   4.836936   4.506023   4.313285
                    6          7          8          9         10
     6  C    0.000000
     7  C    1.378361   0.000000
     8  C    2.384548   1.422854   0.000000
     9  C    4.249780   3.784742   2.454531   0.000000
    10  C    3.752421   4.276517   3.720847   2.882587   0.000000
    11  C    5.161332   5.023722   3.837782   1.547211   2.448960
    12  C    4.972361   5.192463   4.273838   2.499230   1.495012
    13  C    2.834097   2.499611   1.404208   1.416186   2.463084
    14  C    2.498974   2.929670   2.496287   2.524402   1.347130
    15  H    6.850192   6.375511   4.994279   2.616692   4.560974
    16  H    8.495156   8.327566   7.056231   4.607257   5.314341
    17  H    8.289828   8.545306   7.547258   5.377303   4.586243
    18  H    6.535815   7.077271   6.370050   4.742560   2.813931
    19  H    4.183315   4.969305   4.635228   3.964947   1.084734
    20  H    2.232182   3.448902   3.835731   4.563989   2.558527
    21  H    1.083851   2.102737   3.360359   5.333124   4.638427
    22  H    2.121123   1.082813   2.225695   4.679119   5.358406
    23  H    3.329916   2.103740   1.090940   2.739330   4.646365
    24  H    4.647787   3.993816   2.634868   1.107443   3.678308
    25  H    4.647787   3.993816   2.634868   1.107443   3.678308
                   11         12         13         14         15
    11  C    0.000000
    12  C    1.320929   0.000000
    13  C    2.525026   2.869969   0.000000
    14  C    2.867707   2.477211   1.495317   0.000000
    15  H    2.112095   3.315155   4.020589   4.828624   0.000000
    16  H    3.340245   3.819332   5.833727   6.119940   2.486144
    17  H    3.830134   3.357607   6.154170   5.793949   4.359938
    18  H    3.403336   2.246392   4.992635   4.155782   4.951410
    19  H    3.379687   2.192318   3.476777   2.144134   5.470282
    20  H    4.793293   4.048333   3.376698   2.047196   6.834138
    21  H    6.220832   5.949615   3.917734   3.477053   7.933860
    22  H    6.012269   6.256459   3.495447   4.011328   7.205619
    23  H    4.270299   4.963821   2.195219   3.511916   4.976142
    24  H    2.231519   3.264796   2.010694   3.238309   2.671724
    25  H    2.231519   3.264796   2.010694   3.238309   2.671724
                   16         17         18         19         20
    16  H    0.000000
    17  H    2.584042   0.000000
    18  H    4.248241   2.303758   0.000000
    19  H    5.864643   4.647489   2.511558   0.000000
    20  H    7.863026   7.013366   4.935179   2.423791   0.000000
    21  H    9.545459   9.219358   7.348586   4.897912   2.624138
    22  H    9.273817   9.602338   8.160080   6.029154   4.340440
    23  H    7.255733   8.088827   7.154306   5.621029   4.925198
    24  H    4.854257   5.901698   5.446938   4.738626   5.203860
    25  H    4.854257   5.901698   5.446938   4.738626   5.203860
                   21         22         23         24         25
    21  H    0.000000
    22  H    2.384573   0.000000
    23  H    4.197717   2.468428   0.000000
    24  H    5.703140   4.761004   2.626643   0.000000
    25  H    5.703140   4.761004   2.626643   1.719170   0.000000
 Stoichiometry    C14H11(1+)
 Framework group  CS[SG(C14H9),X(H2)]
 Deg. of freedom    46
 Full point group                 CS      NOp   2
 Largest Abelian subgroup         CS      NOp   2
 Largest concise Abelian subgroup CS      NOp   2
                         Standard orientation:                         
 ---------------------------------------------------------------------
 Center     Atomic      Atomic             Coordinates (Angstroms)
 Number     Number       Type             X           Y           Z
 ---------------------------------------------------------------------
      1          6           0       -2.429341   -1.489437    0.000000
      2          6           0       -2.401111   -2.849404    0.000000
      3          6           0       -1.194510   -3.547156    0.000000
      4          6           0       -0.006778   -2.869325    0.000000
      5          6           0        2.419610    1.418140    0.000000
      6          6           0        2.445499    2.858709    0.000000
      7          6           0        1.270364    3.579080    0.000000
      8          6           0        0.061133    2.829231    0.000000
      9          6           0       -1.244729    0.750904    0.000000
     10          6           0        1.247618   -0.697376    0.000000
     11          6           0       -1.199370   -0.795642    0.000000
     12          6           0       -0.048063   -1.443212    0.000000
     13          6           0        0.000000    1.426354    0.000000
     14          6           0        1.277632    0.649419    0.000000
     15          1           0       -3.310629   -0.855065    0.000000
     16          1           0       -3.362724   -3.340663    0.000000
     17          1           0       -1.120438   -4.624962    0.000000
     18          1           0        0.882976   -3.487581    0.000000
     19          1           0        2.140413   -1.313466    0.000000
     20          1           0        3.318945    0.804511    0.000000
     21          1           0        3.367681    3.428196    0.000000
     22          1           0        1.326180    4.660454    0.000000
     23          1           0       -0.829926    3.458646    0.000000
     24          1           0       -1.800105    1.174106    0.859585
     25          1           0       -1.800105    1.174106   -0.859585
 ---------------------------------------------------------------------
 Rotational constants (GHZ):           2.1355168           0.4445270           0.3687372
 Standard basis: 6-311++G(d,p) (5D, 7F)
 There are   299 symmetry adapted cartesian basis functions of A'  symmetry.
 There are   100 symmetry adapted cartesian basis functions of A"  symmetry.
 There are   285 symmetry adapted basis functions of A'  symmetry.
 There are   100 symmetry adapted basis functions of A"  symmetry.
   385 basis functions,   603 primitive gaussians,   399 cartesian basis functions
    47 alpha electrons       47 beta electrons
       nuclear repulsion energy       781.3736835100 Hartrees.
 NAtoms=   25 NActive=   25 NUniq=   24 SFac= 1.09D+00 NAtFMM=   60 NAOKFM=F Big=F
 Integral buffers will be    131072 words long.
 Regular integral format.
 Two-electron integral symmetry is turned on.
 Nuclear repulsion after empirical dispersion term =      781.3727048942 Hartrees.
 One-electron integrals computed using PRISM.
 NBasis=   385 RedAO= T EigKep=  2.26D-06  NBF=   285   100
 NBsUse=   378 1.00D-06 EigRej=  9.65D-07 NBFU=   278   100
 ExpMin= 3.60D-02 ExpMax= 4.56D+03 ExpMxC= 6.82D+02 IAcc=3 IRadAn=         5 AccDes= 0.00D+00
 Harris functional with IExCor= 1009 and IRadAn=       5 diagonalized for initial guess.
 HarFok:  IExCor= 1009 AccDes= 0.00D+00 IRadAn=         5 IDoV= 1 UseB2=F ITyADJ=14
 ICtDFT=  3500011 ScaDFX=  1.000000  1.000000  1.000000  1.000000
 FoFCou: FMM=F IPFlag=           0 FMFlag=      100000 FMFlg1=           0
         NFxFlg=           0 DoJE=T BraDBF=F KetDBF=T FulRan=T
         wScrn=  0.000000 ICntrl=       500 IOpCl=  0 I1Cent=   200000004 NGrid=           0
         NMat0=    1 NMatS0=      1 NMatT0=    0 NMatD0=    1 NMtDS0=    0 NMtDT0=    0
 Petite list used in FoFCou.
 Initial guess orbital symmetries:
       Occupied  (A') (A') (A') (A') (A') (A') (A') (A') (A') (A')
                 (A') (A') (A') (A') (A') (A') (A') (A') (A') (A')
                 (A') (A') (A') (A') (A') (A') (A') (A') (A') (A')
                 (A') (A') (A") (A') (A') (A') (A') (A') (A") (A')
                 (A") (A') (A') (A") (A") (A") (A")
       Virtual   (A") (A") (A") (A") (A") (A') (A') (A') (A') (A")
                 (A') (A") (A') (A') (A") (A') (A') (A') (A') (A')
                 (A") (A') (A") (A') (A") (A') (A') (A') (A") (A')
                 (A') (A') (A') (A") (A') (A') (A') (A") (A') (A")
                 (A') (A') (A') (A') (A") (A') (A') (A') (A") (A')
                 (A') (A") (A") (A') (A') (A') (A') (A") (A") (A')
                 (A') (A') (A') (A') (A') (A") (A') (A') (A') (A")
                 (A') (A') (A') (A') (A') (A') (A') (A') (A') (A')
                 (A') (A') (A') (A') (A') (A') (A') (A') (A') (A')
                 (A') (A') (A') (A') (A') (A') (A") (A") (A') (A')
                 (A") (A') (A") (A') (A") (A') (A") (A') (A") (A')
                 (A") (A') (A') (A") (A') (A') (A") (A") (A') (A")
                 (A") (A') (A') (A') (A') (A") (A') (A') (A') (A")
                 (A') (A') (A') (A') (A') (A') (A") (A') (A') (A')
                 (A') (A') (A') (A') (A') (A') (A') (A') (A") (A")
                 (A') (A") (A') (A") (A') (A") (A') (A") (A') (A")
                 (A') (A") (A") (A") (A') (A') (A') (A') (A') (A')
                 (A") (A') (A') (A') (A") (A') (A') (A') (A') (A")
                 (A') (A') (A") (A') (A') (A") (A') (A") (A") (A")
                 (A') (A') (A') (A") (A') (A') (A") (A') (A') (A")
                 (A") (A") (A') (A') (A") (A") (A') (A') (A') (A')
                 (A") (A") (A") (A') (A') (A") (A') (A') (A') (A")
                 (A') (A') (A') (A") (A') (A') (A") (A') (A') (A")
                 (A') (A') (A") (A') (A') (A") (A') (A") (A') (A")
                 (A') (A') (A') (A') (A") (A') (A') (A') (A") (A')
                 (A') (A') (A") (A") (A') (A') (A") (A') (A') (A')
                 (A') (A") (A') (A") (A') (A") (A') (A") (A') (A')
                 (A') (A') (A") (A') (A") (A') (A") (A') (A') (A")
                 (A') (A") (A") (A') (A") (A') (A') (A') (A') (A')
                 (A') (A') (A') (A') (A') (A') (A') (A') (A') (A')
                 (A') (A') (A') (A") (A') (A') (A') (A') (A') (A')
                 (A') (A') (A') (A') (A') (A') (A') (A') (A') (A')
                 (A') (A') (A') (A') (A') (A') (A') (A') (A') (A')
                 (A')
 The electronic state of the initial guess is 1-A'.
 Requested convergence on RMS density matrix=1.00D-08 within 128 cycles.
 Requested convergence on MAX density matrix=1.00D-06.
 Requested convergence on             energy=1.00D-06.
 No special actions if energy rises.
 SCF Done:  E(RM062X) =  -539.723481695     A.U. after   15 cycles
            NFock= 15  Conv=0.48D-08     -V/T= 2.0039
 DoSCS=F DFT=T ScalE2(SS,OS)=  1.000000  1.000000
 ExpMin= 3.60D-02 ExpMax= 4.56D+03 ExpMxC= 6.82D+02 IAcc=3 IRadAn=         5 AccDes= 0.00D+00
 HarFok:  IExCor=  205 AccDes= 0.00D+00 IRadAn=         5 IDoV=-2 UseB2=F ITyADJ=14
 ICtDFT= 12500011 ScaDFX=  1.000000  1.000000  1.000000  1.000000
 Range of M.O.s used for correlation:    15   378
 NBasis=   385 NAE=    47 NBE=    47 NFC=    14 NFV=     0
 NROrb=    364 NOA=    33 NOB=    33 NVA=   331 NVB=   331

 **** Warning!!: The largest alpha MO coefficient is  0.13207306D+03

 Orbital symmetries:
       Occupied  (A') (A') (A') (A') (A') (A') (A') (A') (A') (A')
                 (A') (A') (A') (A') (A') (A') (A') (A') (A') (A')
                 (A') (A') (A') (A') (A') (A') (A') (A') (A') (A')
                 (A') (A") (A') (A') (A') (A') (A') (A") (A") (A')
                 (A') (A') (A') (A") (A") (A") (A")
       Virtual   (A") (A") (A") (A") (A') (A') (A') (A') (A") (A')
                 (A') (A") (A') (A') (A") (A') (A") (A') (A') (A')
                 (A") (A") (A') (A') (A') (A") (A') (A") (A') (A')
                 (A") (A') (A') (A") (A') (A') (A') (A') (A") (A')
                 (A") (A') (A') (A") (A") (A') (A") (A') (A') (A")
                 (A') (A') (A') (A') (A') (A") (A') (A') (A') (A')
                 (A') (A") (A') (A') (A') (A") (A') (A') (A') (A')
                 (A') (A') (A') (A') (A') (A') (A') (A') (A') (A')
                 (A') (A') (A') (A') (A') (A') (A') (A') (A') (A')
                 (A') (A') (A") (A') (A") (A') (A") (A') (A') (A")
                 (A') (A') (A') (A") (A') (A") (A") (A') (A") (A')
                 (A') (A") (A') (A') (A") (A') (A") (A') (A") (A")
                 (A') (A') (A") (A') (A') (A") (A') (A') (A') (A')
                 (A') (A') (A') (A') (A') (A') (A') (A') (A') (A')
                 (A') (A') (A") (A') (A') (A') (A') (A') (A') (A')
                 (A') (A") (A') (A") (A') (A") (A") (A') (A") (A")
                 (A") (A') (A') (A") (A') (A") (A") (A') (A') (A')
                 (A') (A") (A') (A') (A") (A') (A') (A') (A") (A')
                 (A') (A") (A') (A') (A') (A") (A") (A') (A") (A")
                 (A') (A') (A') (A") (A') (A") (A') (A') (A') (A")
                 (A") (A") (A') (A') (A") (A") (A') (A') (A') (A')
                 (A") (A') (A") (A') (A") (A') (A") (A') (A") (A')
                 (A') (A') (A') (A') (A") (A') (A") (A') (A') (A")
                 (A') (A') (A") (A') (A') (A') (A") (A") (A') (A")
                 (A') (A') (A') (A") (A') (A') (A') (A') (A') (A')
                 (A") (A') (A') (A") (A') (A") (A') (A') (A") (A')
                 (A') (A') (A') (A') (A') (A") (A') (A') (A') (A')
                 (A") (A") (A') (A") (A") (A') (A") (A') (A") (A")
                 (A') (A") (A') (A") (A') (A") (A') (A') (A') (A')
                 (A') (A') (A') (A') (A') (A') (A') (A') (A') (A')
                 (A') (A') (A') (A") (A') (A') (A') (A') (A') (A')
                 (A') (A') (A') (A') (A') (A') (A') (A') (A') (A')
                 (A') (A') (A') (A') (A') (A') (A') (A') (A') (A')
                 (A')
     4 initial guesses have been made.
 Convergence on wavefunction:    0.001000000000000
 Iteration     1 Dimension     4 NMult     0 NNew      4
 CISAX will form     4 AO SS matrices at one time.
 Iteration     2 Dimension     6 NMult     4 NNew      2
 Iteration     3 Dimension     8 NMult     6 NNew      2
 Iteration     4 Dimension    10 NMult     8 NNew      2
 Iteration     5 Dimension    12 NMult    10 NNew      2
 Iteration     6 Dimension    14 NMult    12 NNew      2
 ***********************************************************************
 Excited states from <AA,BB:AA,BB> singles matrix:
 ***********************************************************************
 
 Ground to excited state transition densities written to RWF  633
 Ground to excited state transition electric dipole moments (Au):
       state          X           Y           Z        Dip. S.      Osc.
         1        -0.4060      0.6145     -0.0000      0.5425      0.0366
 Ground to excited state transition velocity dipole moments (Au):
       state          X           Y           Z        Dip. S.      Osc.
         1         0.0489     -0.0649     -0.0000      0.0066      0.0435
 Ground to excited state transition magnetic dipole moments (Au):
       state          X           Y           Z
         1        -0.0000     -0.0000     -0.6343
 Ground to excited state transition velocity quadrupole moments (Au):
       state          XX          YY          ZZ          XY          XZ          YZ
         1         0.2127      0.0798     -0.0100      0.1696      0.0000      0.0000
 <0|del|b> * <b|rxdel|0> + <0|del|b> * <b|delr+rdel|0>
 Rotatory Strengths (R) in cgs (10**-40 erg-esu-cm/Gauss)
       state          XX          YY          ZZ    R(velocity)    E-M Angle
         1         0.0000      0.0000     -0.0000      0.0000       90.00
 1/2[<0|r|b>*<b|rxdel|0> + (<0|rxdel|b>*<b|r|0>)*]
 Rotatory Strengths (R) in cgs (10**-40 erg-esu-cm/Gauss)
       state          XX          YY          ZZ     R(length)
         1        -0.0000      0.0000     -0.0000     -0.0000
  1/2[<0|del|b>*<b|r|0> + (<0|r|b>*<b|del|0>)*] (Au)
       state          X           Y           Z        Dip. S.   Osc.(frdel)
         1        -0.0198     -0.0399      0.0000      0.0597      0.0398

 Excitation energies and oscillator strengths:
 
 Excited State   1:      Singlet-A'     2.7524 eV  450.46 nm  f=0.0366  <S**2>=0.000
      45 -> 48         0.12406
      47 -> 48         0.69357
 This state for optimization and/or second-order correction.
 Total Energy, E(TD-HF/TD-DFT) =  -539.622334208    
 Copying the excited state density for this state as the 1-particle RhoCI density.
 SavETr:  write IOETrn=   770 NScale= 10 NData=  16 NLR=1 NState=    1 LETran=      28.

 **********************************************************************

            Population analysis using the SCF Density.

 **********************************************************************

 Orbital symmetries:
       Occupied  (A') (A') (A') (A') (A') (A') (A') (A') (A') (A')
                 (A') (A') (A') (A') (A') (A') (A') (A') (A') (A')
                 (A') (A') (A') (A') (A') (A') (A') (A') (A') (A')
                 (A') (A") (A') (A') (A') (A') (A') (A") (A") (A')
                 (A') (A') (A') (A") (A") (A") (A")
       Virtual   (A") (A") (A") (A") (A') (A') (A') (A') (A") (A')
                 (A') (A") (A') (A') (A") (A') (A") (A') (A') (A')
                 (A") (A") (A') (A') (A') (A") (A') (A") (A') (A')
                 (A") (A') (A') (A") (A') (A') (A') (A') (A") (A')
                 (A") (A') (A') (A") (A") (A') (A") (A') (A') (A")
                 (A') (A') (A') (A') (A') (A") (A') (A') (A') (A')
                 (A') (A") (A') (A') (A') (A") (A') (A') (A') (A')
                 (A') (A') (A') (A') (A') (A') (A') (A') (A') (A')
                 (A') (A') (A') (A') (A') (A') (A') (A') (A') (A')
                 (A') (A') (A") (A') (A") (A') (A") (A') (A') (A")
                 (A') (A') (A') (A") (A') (A") (A") (A') (A") (A')
                 (A') (A") (A') (A') (A") (A') (A") (A') (A") (A")
                 (A') (A') (A") (A') (A') (A") (A') (A') (A') (A')
                 (A') (A') (A') (A') (A') (A') (A') (A') (A') (A')
                 (A') (A') (A") (A') (A') (A') (A') (A') (A') (A')
                 (A') (A") (A') (A") (A') (A") (A") (A') (A") (A")
                 (A") (A') (A') (A") (A') (A") (A") (A') (A') (A')
                 (A') (A") (A') (A') (A") (A') (A') (A') (A") (A')
                 (A') (A") (A') (A') (A') (A") (A") (A') (A") (A")
                 (A') (A') (A') (A") (A') (A") (A') (A') (A') (A")
                 (A") (A") (A') (A') (A") (A") (A') (A') (A') (A')
                 (A") (A') (A") (A') (A") (A') (A") (A') (A") (A')
                 (A') (A') (A') (A') (A") (A') (A") (A') (A') (A")
                 (A') (A') (A") (A') (A') (A') (A") (A") (A') (A")
                 (A') (A') (A') (A") (A') (A') (A') (A') (A') (A')
                 (A") (A') (A') (A") (A') (A") (A') (A') (A") (A')
                 (A') (A') (A') (A') (A') (A") (A') (A') (A') (A')
                 (A") (A") (A') (A") (A") (A') (A") (A') (A") (A")
                 (A') (A") (A') (A") (A') (A") (A') (A') (A') (A')
                 (A') (A') (A') (A') (A') (A') (A') (A') (A') (A')
                 (A') (A') (A') (A") (A') (A') (A') (A') (A') (A')
                 (A') (A') (A') (A') (A') (A') (A') (A') (A') (A')
                 (A') (A') (A') (A') (A') (A') (A') (A') (A') (A')
                 (A')
 The electronic state is 1-A'.
 Alpha  occ. eigenvalues --  -10.77439 -10.74282 -10.72908 -10.72721 -10.72340
 Alpha  occ. eigenvalues --  -10.72059 -10.71887 -10.71039 -10.70789 -10.70713
 Alpha  occ. eigenvalues --  -10.70045 -10.69657 -10.69133 -10.68582  -1.16614
 Alpha  occ. eigenvalues --   -1.12618  -1.07176  -1.06270  -1.01171  -1.00340
 Alpha  occ. eigenvalues --   -0.95804  -0.91380  -0.86272  -0.85703  -0.83559
 Alpha  occ. eigenvalues --   -0.78478  -0.76054  -0.74310  -0.70611  -0.69075
 Alpha  occ. eigenvalues --   -0.68556  -0.68252  -0.67415  -0.65055  -0.63731
 Alpha  occ. eigenvalues --   -0.62866  -0.61551  -0.60231  -0.59740  -0.59638
 Alpha  occ. eigenvalues --   -0.56624  -0.54870  -0.53871  -0.52648  -0.46504
 Alpha  occ. eigenvalues --   -0.46268  -0.44398
 Alpha virt. eigenvalues --   -0.26196  -0.14986  -0.13690  -0.12561  -0.11203
 Alpha virt. eigenvalues --   -0.10130  -0.09271  -0.08036  -0.07842  -0.07458
 Alpha virt. eigenvalues --   -0.07212  -0.07082  -0.05648  -0.05599  -0.05407
 Alpha virt. eigenvalues --   -0.03860  -0.03663  -0.03367  -0.03114  -0.02092
 Alpha virt. eigenvalues --   -0.01369  -0.00937   0.00089   0.00495   0.00589
 Alpha virt. eigenvalues --    0.00984   0.01506   0.01699   0.01873   0.02255
 Alpha virt. eigenvalues --    0.02485   0.02901   0.03011   0.03017   0.04017
 Alpha virt. eigenvalues --    0.04376   0.04754   0.04928   0.05060   0.05339
 Alpha virt. eigenvalues --    0.06061   0.06194   0.06536   0.07061   0.07248
 Alpha virt. eigenvalues --    0.07831   0.07939   0.07954   0.08778   0.08867
 Alpha virt. eigenvalues --    0.08990   0.09154   0.09860   0.09957   0.10921
 Alpha virt. eigenvalues --    0.11112   0.11816   0.12372   0.13065   0.13221
 Alpha virt. eigenvalues --    0.13396   0.13547   0.13861   0.15272   0.16065
 Alpha virt. eigenvalues --    0.16289   0.16807   0.17501   0.17685   0.17932
 Alpha virt. eigenvalues --    0.18371   0.19096   0.19496   0.20299   0.21273
 Alpha virt. eigenvalues --    0.21324   0.22747   0.22998   0.23019   0.23450
 Alpha virt. eigenvalues --    0.23898   0.24973   0.26593   0.27707   0.28578
 Alpha virt. eigenvalues --    0.29844   0.30134   0.31662   0.33911   0.36991
 Alpha virt. eigenvalues --    0.38007   0.38831   0.41158   0.41470   0.41633
 Alpha virt. eigenvalues --    0.42121   0.43150   0.43302   0.43645   0.44330
 Alpha virt. eigenvalues --    0.44620   0.45913   0.46824   0.47710   0.48064
 Alpha virt. eigenvalues --    0.48460   0.49017   0.49209   0.50424   0.51484
 Alpha virt. eigenvalues --    0.51862   0.52245   0.53314   0.54045   0.54119
 Alpha virt. eigenvalues --    0.54837   0.55494   0.56162   0.57316   0.58228
 Alpha virt. eigenvalues --    0.59169   0.61177   0.61478   0.62710   0.63476
 Alpha virt. eigenvalues --    0.63848   0.64655   0.64970   0.66507   0.70058
 Alpha virt. eigenvalues --    0.70227   0.70845   0.71840   0.72329   0.74947
 Alpha virt. eigenvalues --    0.76080   0.76229   0.76950   0.77288   0.77569
 Alpha virt. eigenvalues --    0.78173   0.78504   0.79984   0.80325   0.80976
 Alpha virt. eigenvalues --    0.81915   0.82152   0.83319   0.84680   0.86912
 Alpha virt. eigenvalues --    0.87396   0.88356   0.89587   0.89596   0.91296
 Alpha virt. eigenvalues --    0.91397   0.94033   0.94594   0.96090   0.97507
 Alpha virt. eigenvalues --    1.00490   1.00523   1.01037   1.02988   1.03092
 Alpha virt. eigenvalues --    1.03863   1.05692   1.05821   1.09405   1.18484
 Alpha virt. eigenvalues --    1.22247   1.22411   1.23188   1.27732   1.30185
 Alpha virt. eigenvalues --    1.33139   1.33618   1.35842   1.35896   1.37419
 Alpha virt. eigenvalues --    1.40860   1.41671   1.41766   1.43016   1.44287
 Alpha virt. eigenvalues --    1.44451   1.45015   1.45166   1.47336   1.47849
 Alpha virt. eigenvalues --    1.48842   1.51315   1.52714   1.53426   1.55466
 Alpha virt. eigenvalues --    1.55969   1.57583   1.59512   1.61583   1.62595
 Alpha virt. eigenvalues --    1.62952   1.63925   1.65999   1.67328   1.67453
 Alpha virt. eigenvalues --    1.68865   1.69931   1.74131   1.75905   1.77048
 Alpha virt. eigenvalues --    1.78194   1.79746   1.80352   1.82133   1.82358
 Alpha virt. eigenvalues --    1.83342   1.83631   1.84677   1.84862   1.84991
 Alpha virt. eigenvalues --    1.85905   1.86571   1.87780   1.90379   1.90930
 Alpha virt. eigenvalues --    1.94468   1.96481   1.98653   1.99385   1.99570
 Alpha virt. eigenvalues --    2.03646   2.05383   2.06529   2.11564   2.12384
 Alpha virt. eigenvalues --    2.14400   2.14989   2.19058   2.20575   2.23609
 Alpha virt. eigenvalues --    2.27586   2.29674   2.33215   2.34265   2.34754
 Alpha virt. eigenvalues --    2.37687   2.39197   2.40825   2.44356   2.45516
 Alpha virt. eigenvalues --    2.45750   2.47822   2.54218   2.54910   2.55755
 Alpha virt. eigenvalues --    2.55923   2.55925   2.58426   2.58584   2.59410
 Alpha virt. eigenvalues --    2.60083   2.61137   2.62818   2.63325   2.65030
 Alpha virt. eigenvalues --    2.65032   2.65866   2.66435   2.68443   2.70306
 Alpha virt. eigenvalues --    2.70840   2.73500   2.74125   2.74663   2.76350
 Alpha virt. eigenvalues --    2.79198   2.79933   2.80225   2.83285   2.86237
 Alpha virt. eigenvalues --    2.86243   2.92241   2.96206   2.97150   3.02097
 Alpha virt. eigenvalues --    3.02153   3.09449   3.11003   3.15270   3.16235
 Alpha virt. eigenvalues --    3.22372   3.26108   3.28469   3.31250   3.35080
 Alpha virt. eigenvalues --    3.35282   3.41066   3.44016   3.45649   3.49151
 Alpha virt. eigenvalues --    3.54510   3.57247   3.63162   3.65959   3.74971
 Alpha virt. eigenvalues --    3.92582   3.93161   3.94680   3.95616   4.02201
 Alpha virt. eigenvalues --    4.03488   4.08327   4.11200   4.33558   4.58167
 Alpha virt. eigenvalues --    4.63299   4.73367  23.43987  23.56373  23.70656
 Alpha virt. eigenvalues --   23.80121  23.81387  23.91643  23.94400  23.94854
 Alpha virt. eigenvalues --   23.97577  24.05700  24.08296  24.13213  24.16235
 Alpha virt. eigenvalues --   24.21567
          Condensed to atoms (all electrons):
               1          2          3          4          5          6
     1  C    7.784333   0.656108  -0.768252   1.325740   0.039728  -0.092862
     2  C    0.656108   6.973000   0.431158  -0.697606  -0.157861  -0.024898
     3  C   -0.768252   0.431158   6.298000   0.457946  -0.012419   0.024086
     4  C    1.325740  -0.697606   0.457946   8.004474   0.242185  -0.058792
     5  C    0.039728  -0.157861  -0.012419   0.242185   8.356374   0.110813
     6  C   -0.092862  -0.024898   0.024086  -0.058792   0.110813   6.674419
     7  C   -0.022245   0.018737  -0.020802  -0.072157  -0.247163   0.503375
     8  C    0.334837  -0.046319  -0.112612   0.094303   1.848120  -0.652323
     9  C   -1.251814  -0.172194   0.017703  -0.779666  -1.271471   0.194141
    10  C   -0.936585  -0.077713   0.027063  -1.355725  -1.010633  -0.074069
    11  C   -0.179535  -0.430202   0.127407  -0.897968  -0.786808  -0.219071
    12  C   -0.752326   0.151843  -0.234946   0.058956   0.051468   0.090853
    13  C    0.066861  -0.097178  -0.225896  -0.908959  -1.917596   0.360507
    14  C   -0.591804  -0.411077   0.012651   0.187471   0.266513  -0.730421
    15  H    0.345196  -0.071223   0.014961   0.017303   0.003035   0.001226
    16  H   -0.030636   0.395351  -0.015372   0.014502  -0.001545  -0.000424
    17  H   -0.015537  -0.030083   0.398938  -0.066837   0.000240   0.000544
    18  H    0.043391   0.006614  -0.095042   0.432706   0.014802  -0.004007
    19  H   -0.045904  -0.000822   0.045035  -0.053561  -0.055530   0.049115
    20  H    0.010023   0.001609  -0.002898   0.018910   0.404257  -0.096531
    21  H   -0.001009  -0.000383   0.000273  -0.000216  -0.026972   0.369500
    22  H    0.000461   0.000299  -0.000254  -0.000952   0.005069  -0.017422
    23  H    0.005779  -0.003391   0.001040   0.005480   0.015748  -0.007251
    24  H    0.036533   0.019413  -0.000757  -0.008809  -0.010482  -0.003403
    25  H    0.036533   0.019413  -0.000757  -0.008809  -0.010482  -0.003403
               7          8          9         10         11         12
     1  C   -0.022245   0.334837  -1.251814  -0.936585  -0.179535  -0.752326
     2  C    0.018737  -0.046319  -0.172194  -0.077713  -0.430202   0.151843
     3  C   -0.020802  -0.112612   0.017703   0.027063   0.127407  -0.234946
     4  C   -0.072157   0.094303  -0.779666  -1.355725  -0.897968   0.058956
     5  C   -0.247163   1.848120  -1.271471  -1.010633  -0.786808   0.051468
     6  C    0.503375  -0.652323   0.194141  -0.074069  -0.219071   0.090853
     7  C    6.306042   0.713218  -0.279285  -0.059837  -0.040914  -0.233500
     8  C    0.713218   8.923593  -2.048086  -1.053643  -0.317251  -0.867486
     9  C   -0.279285  -2.048086   8.063363   1.186754   1.011537   0.414047
    10  C   -0.059837  -1.053643   1.186754   7.311133   0.735344   0.626546
    11  C   -0.040914  -0.317251   1.011537   0.735344   7.744754   0.578892
    12  C   -0.233500  -0.867486   0.414047   0.626546   0.578892   7.799810
    13  C   -0.716099  -0.425971   1.007051   0.116971   0.331096  -2.474251
    14  C    0.129529  -0.834330  -0.401311   0.295722  -1.818316   0.329813
    15  H   -0.002408   0.001693   0.029595  -0.001638  -0.028965   0.026351
    16  H    0.000251   0.000313  -0.009060  -0.008700   0.003342  -0.000962
    17  H   -0.000409  -0.001775   0.002233   0.009929   0.021830   0.029836
    18  H    0.000977   0.008260  -0.022790   0.001628   0.001379  -0.045566
    19  H   -0.010847  -0.053829   0.074211   0.414811   0.031471  -0.016114
    20  H    0.003369   0.044871  -0.031820   0.035316   0.011586  -0.013969
    21  H   -0.025849  -0.008534  -0.000725   0.005373  -0.006753   0.002903
    22  H    0.374098  -0.025307   0.004212  -0.005471   0.002771  -0.008347
    23  H   -0.081238   0.354949   0.060431  -0.005044  -0.013526   0.002531
    24  H    0.007342   0.013713   0.361808   0.003452   0.019284  -0.026469
    25  H    0.007342   0.013713   0.361808   0.003452   0.019284  -0.026469
              13         14         15         16         17         18
     1  C    0.066861  -0.591804   0.345196  -0.030636  -0.015537   0.043391
     2  C   -0.097178  -0.411077  -0.071223   0.395351  -0.030083   0.006614
     3  C   -0.225896   0.012651   0.014961  -0.015372   0.398938  -0.095042
     4  C   -0.908959   0.187471   0.017303   0.014502  -0.066837   0.432706
     5  C   -1.917596   0.266513   0.003035  -0.001545   0.000240   0.014802
     6  C    0.360507  -0.730421   0.001226  -0.000424   0.000544  -0.004007
     7  C   -0.716099   0.129529  -0.002408   0.000251  -0.000409   0.000977
     8  C   -0.425971  -0.834330   0.001693   0.000313  -0.001775   0.008260
     9  C    1.007051  -0.401311   0.029595  -0.009060   0.002233  -0.022790
    10  C    0.116971   0.295722  -0.001638  -0.008700   0.009929   0.001628
    11  C    0.331096  -1.818316  -0.028965   0.003342   0.021830   0.001379
    12  C   -2.474251   0.329813   0.026351  -0.000962   0.029836  -0.045566
    13  C   12.475017  -0.956596  -0.016854  -0.001428  -0.005343  -0.011183
    14  C   -0.956596  10.525619   0.000791  -0.007511   0.001345  -0.010018
    15  H   -0.016854   0.000791   0.458422  -0.010589   0.001686  -0.000406
    16  H   -0.001428  -0.007511  -0.010589   0.424864  -0.008303   0.002137
    17  H   -0.005343   0.001345   0.001686  -0.008303   0.436264  -0.013344
    18  H   -0.011183  -0.010018  -0.000406   0.002137  -0.013344   0.454448
    19  H    0.053840  -0.064998   0.000366  -0.000696   0.002147  -0.004657
    20  H    0.011219  -0.062028  -0.000129   0.000042  -0.000208   0.001185
    21  H   -0.010166   0.041291   0.000017  -0.000008   0.000011  -0.000115
    22  H    0.032565  -0.026957  -0.000160   0.000007  -0.000007   0.000013
    23  H   -0.007510   0.004664   0.000491  -0.000120   0.000013  -0.000052
    24  H   -0.015846  -0.060598  -0.001638   0.000570  -0.000087   0.000045
    25  H   -0.015846  -0.060598  -0.001638   0.000570  -0.000087   0.000045
              19         20         21         22         23         24
     1  C   -0.045904   0.010023  -0.001009   0.000461   0.005779   0.036533
     2  C   -0.000822   0.001609  -0.000383   0.000299  -0.003391   0.019413
     3  C    0.045035  -0.002898   0.000273  -0.000254   0.001040  -0.000757
     4  C   -0.053561   0.018910  -0.000216  -0.000952   0.005480  -0.008809
     5  C   -0.055530   0.404257  -0.026972   0.005069   0.015748  -0.010482
     6  C    0.049115  -0.096531   0.369500  -0.017422  -0.007251  -0.003403
     7  C   -0.010847   0.003369  -0.025849   0.374098  -0.081238   0.007342
     8  C   -0.053829   0.044871  -0.008534  -0.025307   0.354949   0.013713
     9  C    0.074211  -0.031820  -0.000725   0.004212   0.060431   0.361808
    10  C    0.414811   0.035316   0.005373  -0.005471  -0.005044   0.003452
    11  C    0.031471   0.011586  -0.006753   0.002771  -0.013526   0.019284
    12  C   -0.016114  -0.013969   0.002903  -0.008347   0.002531  -0.026469
    13  C    0.053840   0.011219  -0.010166   0.032565  -0.007510  -0.015846
    14  C   -0.064998  -0.062028   0.041291  -0.026957   0.004664  -0.060598
    15  H    0.000366  -0.000129   0.000017  -0.000160   0.000491  -0.001638
    16  H   -0.000696   0.000042  -0.000008   0.000007  -0.000120   0.000570
    17  H    0.002147  -0.000208   0.000011  -0.000007   0.000013  -0.000087
    18  H   -0.004657   0.001185  -0.000115   0.000013  -0.000052   0.000045
    19  H    0.443283  -0.006902   0.000812  -0.000346   0.000241   0.000535
    20  H   -0.006902   0.462544  -0.006111   0.001210   0.000174   0.000380
    21  H    0.000812  -0.006111   0.411650  -0.005276   0.000911  -0.000180
    22  H   -0.000346   0.001210  -0.005276   0.414693  -0.006935   0.000656
    23  H    0.000241   0.000174   0.000911  -0.006935   0.426748   0.000215
    24  H    0.000535   0.000380  -0.000180   0.000656   0.000215   0.495389
    25  H    0.000535   0.000380  -0.000180   0.000656   0.000215  -0.080711
              25
     1  C    0.036533
     2  C    0.019413
     3  C   -0.000757
     4  C   -0.008809
     5  C   -0.010482
     6  C   -0.003403
     7  C    0.007342
     8  C    0.013713
     9  C    0.361808
    10  C    0.003452
    11  C    0.019284
    12  C   -0.026469
    13  C   -0.015846
    14  C   -0.060598
    15  H   -0.001638
    16  H    0.000570
    17  H   -0.000087
    18  H    0.000045
    19  H    0.000535
    20  H    0.000380
    21  H   -0.000180
    22  H    0.000656
    23  H    0.000215
    24  H   -0.080711
    25  H    0.495389
 Mulliken charges:
               1
     1  C    0.002986
     2  C   -0.452595
     3  C   -0.366255
     4  C    0.050080
     5  C    0.150609
     6  C   -0.393702
     7  C   -0.251526
     8  C    0.095883
     9  C   -0.520673
    10  C   -0.184435
    11  C    0.099333
    12  C    0.536556
    13  C   -0.648406
    14  C    0.241154
    15  H    0.234515
    16  H    0.253406
    17  H    0.237005
    18  H    0.239552
    19  H    0.197804
    20  H    0.213518
    21  H    0.259736
    22  H    0.260724
    23  H    0.245438
    24  H    0.249647
    25  H    0.249647
 Sum of Mulliken charges =   1.00000
 Mulliken charges with hydrogens summed into heavy atoms:
               1
     1  C    0.237501
     2  C   -0.199189
     3  C   -0.129250
     4  C    0.289632
     5  C    0.364127
     6  C   -0.133967
     7  C    0.009198
     8  C    0.341321
     9  C   -0.021379
    10  C    0.013368
    11  C    0.099333
    12  C    0.536556
    13  C   -0.648406
    14  C    0.241154
 Electronic spatial extent (au):  <R**2>=           2856.7596
 Charge=              1.0000 electrons
 Dipole moment (field-independent basis, Debye):
    X=              0.8964    Y=              1.1699    Z=              0.0000  Tot=              1.4739
 Quadrupole moment (field-independent basis, Debye-Ang):
   XX=            -51.7017   YY=            -35.8116   ZZ=            -84.0943
   XY=              9.9817   XZ=             -0.0000   YZ=             -0.0000
 Traceless Quadrupole moment (field-independent basis, Debye-Ang):
   XX=              5.5008   YY=             21.3910   ZZ=            -26.8918
   XY=              9.9817   XZ=             -0.0000   YZ=             -0.0000
 Octapole moment (field-independent basis, Debye-Ang**2):
  XXX=              3.2193  YYY=             23.8402  ZZZ=              0.0000  XYY=             11.4728
  XXY=              1.1412  XXZ=              0.0000  XZZ=             -2.2575  YZZ=              2.1636
  YYZ=              0.0000  XYZ=              0.0000
 Hexadecapole moment (field-independent basis, Debye-Ang**3):
 XXXX=          -1060.5976 YYYY=          -1773.2165 ZZZZ=            -99.1816 XXXY=           -373.4708
 XXXZ=             -0.0000 YYYX=           -293.0222 YYYZ=              0.0000 ZZZX=             -0.0000
 ZZZY=              0.0000 XXYY=           -459.0045 XXZZ=           -253.8761 YYZZ=           -483.0758
 XXYZ=             -0.0000 YYXZ=             -0.0000 ZZXY=           -190.8399
 N-N= 7.813727048942D+02 E-N=-2.799117063056D+03  KE= 5.376044918042D+02
 Symmetry A'   KE= 5.229210153130D+02
 Symmetry A"   KE= 1.468347649123D+01
 Unable to Open any file for archive entry.
 1\1\GINC-GADI-CPU-CLX-1538\SP\RM062X TD-FC\6-311++G(d,p)\C14H11(1+)\TS
 1578\27-Jul-2022\0\\#n M062X/6-311++G(d,p) TD(NStates=1) EmpiricalDisp
 ersion=GD3 SP\\SP_3\\1,1\C,0,0.,2.500655,1.363431\C,0,0.,3.665508,0.66
 0989\C,0,0.,3.668861,-0.73283\C,0,0.,2.489156,-1.424538\C,0,0.,-2.4371
 56,-1.390538\C,0,0.,-3.698861,-0.69483\C,0,0.,-3.737508,0.682989\C,0,0
 .,-2.484655,1.357431\C,0,0.,-0.032,1.453369\C,0,0.,-0.019,-1.429189\C,
 0,0.,1.286055,0.643065\C,0,0.,1.273471,-0.677804\C,0,0.,-1.238055,0.71
 1065\C,0,0.,-1.201471,-0.783804\H,0,0.,2.390071,2.443647\H,0,0.,4.5707
 53,1.249689\H,0,0.,4.566262,-1.334349\H,0,0.,2.58155,-2.504059\H,0,0.,
 0.07,-2.510266\H,0,0.,-2.35355,-2.476059\H,0,0.,-4.652262,-1.210349\H,
 0,0.,-4.702753,1.173689\H,0,0.,-2.586071,2.443647\H,0,-0.859585,-0.122
 ,2.145787\H,0,0.859585,-0.122,2.145787\\Version=ES64L-G16RevC.01\State
 =1-A'\HF=-539.7234817\RMSD=4.823e-09\PG=CS [SG(C14H9),X(H2)]\\@
 The archive entry for this job was punched.


 What some people mistake for the high cost
 of living is really the cost of living high.
                              -- Doug Larson
 Job cpu time:       0 days  0 hours 45 minutes 11.3 seconds.
 Elapsed time:       0 days  0 hours  1 minutes 25.8 seconds.
 File lengths (MBytes):  RWF=    459 Int=      0 D2E=      0 Chk=     15 Scr=      1
 Normal termination of Gaussian 16 at Wed Jul 27 11:58:26 2022.
