 Entering Gaussian System, Link 0=g16
 Initial command:
 /apps/gaussian/g16c01/g16/l1.exe "/jobfs/52815815.gadi-pbs/Gau-2068127.inp" -scrdir="/jobfs/52815815.gadi-pbs/"
 Entering Link 1 = /apps/gaussian/g16c01/g16/l1.exe PID=   2068128.
  
 Copyright (c) 1988-2019, Gaussian, Inc.  All Rights Reserved.
  
 This is part of the Gaussian(R) 16 program.  It is based on
 the Gaussian(R) 09 system (copyright 2009, Gaussian, Inc.),
 the Gaussian(R) 03 system (copyright 2003, Gaussian, Inc.),
 the Gaussian(R) 98 system (copyright 1998, Gaussian, Inc.),
 the Gaussian(R) 94 system (copyright 1995, Gaussian, Inc.),
 the Gaussian 92(TM) system (copyright 1992, Gaussian, Inc.),
 the Gaussian 90(TM) system (copyright 1990, Gaussian, Inc.),
 the Gaussian 88(TM) system (copyright 1988, Gaussian, Inc.),
 the Gaussian 86(TM) system (copyright 1986, Carnegie Mellon
 University), and the Gaussian 82(TM) system (copyright 1983,
 Carnegie Mellon University). Gaussian is a federally registered
 trademark of Gaussian, Inc.
  
 This software contains proprietary and confidential information,
 including trade secrets, belonging to Gaussian, Inc.
  
 This software is provided under written license and may be
 used, copied, transmitted, or stored only in accord with that
 written license.
  
 The following legend is applicable only to US Government
 contracts under FAR:
  
                    RESTRICTED RIGHTS LEGEND
  
 Use, reproduction and disclosure by the US Government is
 subject to restrictions as set forth in subparagraphs (a)
 and (c) of the Commercial Computer Software - Restricted
 Rights clause in FAR 52.227-19.
  
 Gaussian, Inc.
 340 Quinnipiac St., Bldg. 40, Wallingford CT 06492
  
  
 ---------------------------------------------------------------
 Warning -- This program may not be used in any manner that
 competes with the business of Gaussian, Inc. or will provide
 assistance to any competitor of Gaussian, Inc.  The licensee
 of this program is prohibited from giving any competitor of
 Gaussian, Inc. access to this program.  By using this program,
 the user acknowledges that Gaussian, Inc. is engaged in the
 business of creating and licensing software in the field of
 computational chemistry and represents and warrants to the
 licensee that it is not a competitor of Gaussian, Inc. and that
 it will not use this program in any manner prohibited above.
 ---------------------------------------------------------------
  

 Cite this work as:
 Gaussian 16, Revision C.01,
 M. J. Frisch, G. W. Trucks, H. B. Schlegel, G. E. Scuseria, 
 M. A. Robb, J. R. Cheeseman, G. Scalmani, V. Barone, 
 G. A. Petersson, H. Nakatsuji, X. Li, M. Caricato, A. V. Marenich, 
 J. Bloino, B. G. Janesko, R. Gomperts, B. Mennucci, H. P. Hratchian, 
 J. V. Ortiz, A. F. Izmaylov, J. L. Sonnenberg, D. Williams-Young, 
 F. Ding, F. Lipparini, F. Egidi, J. Goings, B. Peng, A. Petrone, 
 T. Henderson, D. Ranasinghe, V. G. Zakrzewski, J. Gao, N. Rega, 
 G. Zheng, W. Liang, M. Hada, M. Ehara, K. Toyota, R. Fukuda, 
 J. Hasegawa, M. Ishida, T. Nakajima, Y. Honda, O. Kitao, H. Nakai, 
 T. Vreven, K. Throssell, J. A. Montgomery, Jr., J. E. Peralta, 
 F. Ogliaro, M. J. Bearpark, J. J. Heyd, E. N. Brothers, K. N. Kudin, 
 V. N. Staroverov, T. A. Keith, R. Kobayashi, J. Normand, 
 K. Raghavachari, A. P. Rendell, J. C. Burant, S. S. Iyengar, 
 J. Tomasi, M. Cossi, J. M. Millam, M. Klene, C. Adamo, R. Cammi, 
 J. W. Ochterski, R. L. Martin, K. Morokuma, O. Farkas, 
 J. B. Foresman, and D. J. Fox, Gaussian, Inc., Wallingford CT, 2019.
 
 ******************************************
 Gaussian 16:  ES64L-G16RevC.01  3-Jul-2019
                27-Jul-2022 
 ******************************************
 %NProcShared=32
 Will use up to   32 processors via shared memory.
 %mem = 128GB
 ---------------------------------------------------------------
 #n M062X/6-311++G(d,p) TD(NStates=1) EmpiricalDispersion=GD3 SP
 ---------------------------------------------------------------
 1/38=1,172=1/1;
 2/12=2,17=6,18=5,40=1/2;
 3/5=4,6=6,7=1111,11=9,25=1,30=1,74=-55,124=31/1,2,3,8;
 4//1;
 5/5=2,38=5/2;
 8/6=1,10=2,108=1/1;
 9/41=1,42=1,70=2/14;
 6/7=2,8=2,9=2,10=2/1;
 99/5=1,9=1/99;
 ----
 SP_2
 ----
 Symbolic Z-matrix:
 Charge =  1 Multiplicity = 1
 C                     0.        2.47666   1.36243 
 C                     0.        3.65351   0.65399 
 C                     0.        3.66186  -0.74783 
 C                     0.        2.50716  -1.42954 
 C                     0.       -2.41916  -1.38554 
 C                     0.       -3.70586  -0.67983 
 C                     0.       -3.74951   0.68999 
 C                     0.       -2.50866   1.35843 
 C                     0.       -0.032     1.45337 
 C                     0.        0.026    -1.42919 
 C                     0.        1.29006   0.66907 
 C                     0.        1.27347  -0.6968 
 C                     0.       -1.23406   0.68507 
 C                     0.       -1.20147  -0.7648 
 H                     0.        2.41607   2.44365 
 H                     0.        4.56875   1.22769 
 H                     0.        4.57926  -1.31635 
 H                     0.        2.55555  -2.51006 
 H                     0.        0.08     -2.51027 
 H                     0.       -2.37955  -2.47006 
 H                     0.       -4.63926  -1.22835 
 H                     0.       -4.70475   1.19569 
 H                     0.       -2.56007   2.44365 
 H                    -0.85959  -0.14      2.14579 
 H                     0.85959  -0.14      2.14579 
 
                          Input orientation:                          
 ---------------------------------------------------------------------
 Center     Atomic      Atomic             Coordinates (Angstroms)
 Number     Number       Type             X           Y           Z
 ---------------------------------------------------------------------
      1          6           0        0.000000    2.476655    1.362431
      2          6           0        0.000000    3.653508    0.653989
      3          6           0        0.000000    3.661861   -0.747830
      4          6           0        0.000000    2.507156   -1.429538
      5          6           0        0.000000   -2.419156   -1.385538
      6          6           0        0.000000   -3.705861   -0.679830
      7          6           0        0.000000   -3.749508    0.689989
      8          6           0        0.000000   -2.508655    1.358431
      9          6           0        0.000000   -0.032000    1.453369
     10          6           0        0.000000    0.026000   -1.429189
     11          6           0        0.000000    1.290055    0.669065
     12          6           0        0.000000    1.273471   -0.696804
     13          6           0        0.000000   -1.234055    0.685065
     14          6           0        0.000000   -1.201471   -0.764804
     15          1           0        0.000000    2.416071    2.443647
     16          1           0        0.000000    4.568753    1.227689
     17          1           0        0.000000    4.579262   -1.316349
     18          1           0        0.000000    2.555550   -2.510059
     19          1           0        0.000000    0.080000   -2.510266
     20          1           0        0.000000   -2.379550   -2.470059
     21          1           0        0.000000   -4.639262   -1.228349
     22          1           0        0.000000   -4.704753    1.195689
     23          1           0        0.000000   -2.560071    2.443647
     24          1           0       -0.859585   -0.140000    2.145787
     25          1           0        0.859585   -0.140000    2.145787
 ---------------------------------------------------------------------
                    Distance matrix (angstroms):
                    1          2          3          4          5
     1  C    0.000000
     2  C    1.373635   0.000000
     3  C    2.420313   1.401844   0.000000
     4  C    2.792136   2.378068   1.340921   0.000000
     5  C    5.614294   6.406006   6.114363   4.926508   0.000000
     6  C    6.511093   7.479264   7.368036   6.258086   1.467526
     7  C    6.262370   7.403104   7.549551   6.605925   2.465289
     8  C    4.985312   6.202297   6.520092   5.738565   2.745428
     9  C    2.510303   3.771204   4.299987   3.841675   3.709165
    10  C    3.714681   4.183114   3.699153   2.481156   2.445546
    11  C    1.374327   2.363501   2.762798   2.425999   4.240241
    12  C    2.384974   2.736644   2.388935   1.434879   3.756308
    13  C    3.772028   4.887662   5.101292   4.297465   2.385762
    14  C    4.248969   5.058043   4.863362   3.767729   1.366773
    15  H    1.082912   2.175805   3.426006   3.874256   6.167826
    16  H    2.096433   1.080188   2.173736   3.363189   7.460551
    17  H    3.405410   2.176982   1.079277   2.075195   6.998760
    18  H    3.873294   3.349136   2.080715   1.081604   5.100220
    19  H    4.554310   4.773098   3.991981   2.656889   2.740583
    20  H    6.186332   6.793929   6.282095   4.996257   1.085244
    21  H    7.572874   8.503719   8.315019   7.149249   2.225664
    22  H    7.183343   8.375796   8.589383   7.674858   3.447707
    23  H    5.151469   6.466177   6.992708   6.377958   3.831777
    24  H    2.863462   4.165939   4.854488   4.530924   4.289953
    25  H    2.863462   4.165939   4.854488   4.530924   4.289953
                    6          7          8          9         10
     6  C    0.000000
     7  C    1.370514   0.000000
     8  C    2.363855   1.409443   0.000000
     9  C    4.248269   3.795078   2.478474   0.000000
    10  C    3.806353   4.329593   3.767665   2.883141   0.000000
    11  C    5.174813   5.039606   3.860754   1.537193   2.449593
    12  C    4.979361   5.210903   4.304471   2.515452   1.446572
    13  C    2.823608   2.515458   1.441536   1.426614   2.461262
    14  C    2.505831   2.934095   2.493363   2.507579   1.395741
    15  H    6.872711   6.410123   5.042878   2.640777   4.550967
    16  H    8.491635   8.335622   7.078616   4.606285   5.262661
    17  H    8.309538   8.567018   7.575818   5.379133   4.554660
    18  H    6.523420   7.070648   6.372706   4.733305   2.750800
    19  H    4.205144   4.990668   4.654885   3.965217   1.082425
    20  H    2.228008   3.444225   3.830666   4.572120   2.621084
    21  H    1.082641   2.114635   3.351256   5.330898   4.669583
    22  H    2.124937   1.080845   2.202120   4.679853   5.410176
    23  H    3.327002   2.118980   1.086433   2.715105   4.656890
    24  H    4.630158   3.985823   2.639951   1.109051   3.680611
    25  H    4.630158   3.985823   2.639951   1.109051   3.680611
                   11         12         13         14         15
    11  C    0.000000
    12  C    1.365970   0.000000
    13  C    2.524161   2.863084   0.000000
    14  C    2.874662   2.475876   1.450235   0.000000
    15  H    2.101679   3.341851   4.051670   4.835366   0.000000
    16  H    3.325947   3.816092   5.828123   6.104549   2.472366
    17  H    3.841972   3.363345   6.148196   5.806985   4.337853
    18  H    3.421740   2.220725   4.956806   4.142598   4.955669
    19  H    3.401820   2.170949   3.454979   2.165365   5.477087
    20  H    4.829089   4.060664   3.356630   2.072623   6.866039
    21  H    6.225510   5.936577   3.905968   3.468902   7.953696
    22  H    6.017895   6.270621   3.508060   4.014538   7.229352
    23  H    4.239412   4.955651   2.202482   3.484243   4.976142
    24  H    2.228150   3.288938   2.017313   3.215143   2.713136
    25  H    2.228150   3.288938   2.017313   3.215143   2.713136
                   16         17         18         19         20
    16  H    0.000000
    17  H    2.544060   0.000000
    18  H    4.245438   2.349543   0.000000
    19  H    5.841336   4.654975   2.475550   0.000000
    20  H    7.870975   7.053801   4.935262   2.459879   0.000000
    21  H    9.529935   9.218944   7.308085   4.890270   2.578399
    22  H    9.273561   9.617862   8.151354   6.052104   4.341000
    23  H    7.231783   8.068931   7.121010   5.613486   4.917021
    24  H    4.873822   5.915801   5.448099   4.739843   5.201971
    25  H    4.873822   5.915801   5.448099   4.739843   5.201971
                   21         22         23         24         25
    21  H    0.000000
    22  H    2.424923   0.000000
    23  H    4.219786   2.481342   0.000000
    24  H    5.689204   4.741154   2.585411   0.000000
    25  H    5.689204   4.741154   2.585411   1.719170   0.000000
 Stoichiometry    C14H11(1+)
 Framework group  CS[SG(C14H9),X(H2)]
 Deg. of freedom    46
 Full point group                 CS      NOp   2
 Largest Abelian subgroup         CS      NOp   2
 Largest concise Abelian subgroup CS      NOp   2
                         Standard orientation:                         
 ---------------------------------------------------------------------
 Center     Atomic      Atomic             Coordinates (Angstroms)
 Number     Number       Type             X           Y           Z
 ---------------------------------------------------------------------
      1          6           0       -2.394700   -1.504175    0.000000
      2          6           0       -2.347174   -2.876988    0.000000
      3          6           0       -1.125937   -3.565281    0.000000
      4          6           0        0.030872   -2.887150    0.000000
      5          6           0        2.385574    1.440189    0.000000
      6          6           0        2.393803    2.907692    0.000000
      7          6           0        1.217682    3.611290    0.000000
      8          6           0        0.030618    2.851415    0.000000
      9          6           0       -1.255503    0.732753    0.000000
     10          6           0        1.235892   -0.718265    0.000000
     11          6           0       -1.212206   -0.803830    0.000000
     12          6           0       -0.010278   -1.452862    0.000000
     13          6           0        0.000000    1.410204    0.000000
     14          6           0        1.251465    0.677389    0.000000
     15          1           0       -3.310332   -0.925975    0.000000
     16          1           0       -3.293249   -3.398282    0.000000
     17          1           0       -1.074675   -4.643340    0.000000
     18          1           0        0.951819   -3.454358    0.000000
     19          1           0        2.154601   -1.290643    0.000000
     20          1           0        3.314286    0.878719    0.000000
     21          1           0        3.326687    3.457089    0.000000
     22          1           0        1.239712    4.691910    0.000000
     23          1           0       -0.892965    3.423545    0.000000
     24          1           0       -1.808263    1.163524    0.859585
     25          1           0       -1.808263    1.163524   -0.859585
 ---------------------------------------------------------------------
 Rotational constants (GHZ):           2.1366278           0.4444707           0.3687315
 Standard basis: 6-311++G(d,p) (5D, 7F)
 There are   299 symmetry adapted cartesian basis functions of A'  symmetry.
 There are   100 symmetry adapted cartesian basis functions of A"  symmetry.
 There are   285 symmetry adapted basis functions of A'  symmetry.
 There are   100 symmetry adapted basis functions of A"  symmetry.
   385 basis functions,   603 primitive gaussians,   399 cartesian basis functions
    47 alpha electrons       47 beta electrons
       nuclear repulsion energy       781.3330375901 Hartrees.
 NAtoms=   25 NActive=   25 NUniq=   24 SFac= 1.09D+00 NAtFMM=   60 NAOKFM=F Big=F
 Integral buffers will be    131072 words long.
 Regular integral format.
 Two-electron integral symmetry is turned on.
 Nuclear repulsion after empirical dispersion term =      781.3320595510 Hartrees.
 One-electron integrals computed using PRISM.
 NBasis=   385 RedAO= T EigKep=  1.06D-06  NBF=   285   100
 NBsUse=   379 1.00D-06 EigRej=  8.05D-07 NBFU=   279   100
 ExpMin= 3.60D-02 ExpMax= 4.56D+03 ExpMxC= 6.82D+02 IAcc=3 IRadAn=         5 AccDes= 0.00D+00
 Harris functional with IExCor= 1009 and IRadAn=       5 diagonalized for initial guess.
 HarFok:  IExCor= 1009 AccDes= 0.00D+00 IRadAn=         5 IDoV= 1 UseB2=F ITyADJ=14
 ICtDFT=  3500011 ScaDFX=  1.000000  1.000000  1.000000  1.000000
 FoFCou: FMM=F IPFlag=           0 FMFlag=      100000 FMFlg1=           0
         NFxFlg=           0 DoJE=T BraDBF=F KetDBF=T FulRan=T
         wScrn=  0.000000 ICntrl=       500 IOpCl=  0 I1Cent=   200000004 NGrid=           0
         NMat0=    1 NMatS0=      1 NMatT0=    0 NMatD0=    1 NMtDS0=    0 NMtDT0=    0
 Petite list used in FoFCou.
 Initial guess orbital symmetries:
       Occupied  (A') (A') (A') (A') (A') (A') (A') (A') (A') (A')
                 (A') (A') (A') (A') (A') (A') (A') (A') (A') (A')
                 (A') (A') (A') (A') (A') (A') (A') (A') (A') (A')
                 (A') (A') (A") (A') (A') (A') (A') (A') (A") (A')
                 (A") (A') (A') (A") (A") (A") (A")
       Virtual   (A") (A") (A") (A") (A") (A') (A') (A') (A') (A")
                 (A") (A') (A') (A') (A") (A') (A') (A') (A') (A')
                 (A") (A") (A') (A') (A") (A') (A') (A') (A") (A')
                 (A') (A') (A') (A") (A') (A') (A') (A") (A') (A")
                 (A') (A') (A') (A") (A') (A') (A') (A') (A') (A")
                 (A') (A") (A') (A") (A') (A') (A') (A") (A") (A')
                 (A') (A') (A') (A') (A') (A") (A') (A') (A') (A")
                 (A') (A') (A') (A') (A') (A') (A') (A') (A') (A')
                 (A') (A') (A') (A') (A') (A') (A') (A') (A') (A')
                 (A') (A') (A') (A') (A') (A') (A') (A") (A") (A')
                 (A') (A") (A') (A") (A') (A") (A') (A") (A") (A')
                 (A") (A') (A') (A') (A") (A') (A') (A") (A") (A')
                 (A") (A") (A') (A') (A') (A") (A') (A') (A') (A")
                 (A') (A') (A') (A') (A') (A') (A") (A') (A') (A')
                 (A') (A') (A') (A') (A') (A') (A') (A') (A') (A")
                 (A") (A') (A") (A') (A") (A') (A") (A') (A") (A')
                 (A") (A') (A") (A") (A") (A') (A') (A') (A') (A')
                 (A") (A') (A') (A') (A') (A") (A') (A') (A') (A')
                 (A") (A') (A") (A') (A') (A') (A") (A') (A") (A")
                 (A") (A') (A') (A') (A") (A') (A') (A") (A') (A')
                 (A") (A") (A") (A') (A') (A") (A') (A") (A') (A')
                 (A") (A') (A") (A') (A") (A') (A") (A') (A') (A')
                 (A") (A') (A') (A') (A") (A') (A') (A') (A") (A")
                 (A') (A') (A') (A") (A') (A') (A") (A') (A") (A')
                 (A") (A') (A') (A') (A') (A") (A') (A') (A') (A")
                 (A') (A') (A') (A") (A") (A') (A') (A") (A') (A')
                 (A') (A') (A") (A") (A') (A') (A") (A') (A") (A')
                 (A') (A') (A') (A") (A') (A') (A") (A') (A") (A')
                 (A") (A') (A") (A") (A') (A") (A') (A') (A') (A')
                 (A') (A') (A') (A') (A') (A') (A') (A') (A') (A')
                 (A') (A') (A') (A') (A") (A') (A') (A') (A') (A')
                 (A') (A') (A') (A') (A') (A') (A') (A') (A') (A')
                 (A') (A') (A') (A') (A') (A') (A') (A') (A') (A')
                 (A') (A')
 The electronic state of the initial guess is 1-A'.
 Requested convergence on RMS density matrix=1.00D-08 within 128 cycles.
 Requested convergence on MAX density matrix=1.00D-06.
 Requested convergence on             energy=1.00D-06.
 No special actions if energy rises.
 SCF Done:  E(RM062X) =  -539.735054721     A.U. after   16 cycles
            NFock= 16  Conv=0.37D-08     -V/T= 2.0040
 DoSCS=F DFT=T ScalE2(SS,OS)=  1.000000  1.000000
 ExpMin= 3.60D-02 ExpMax= 4.56D+03 ExpMxC= 6.82D+02 IAcc=3 IRadAn=         5 AccDes= 0.00D+00
 HarFok:  IExCor=  205 AccDes= 0.00D+00 IRadAn=         5 IDoV=-2 UseB2=F ITyADJ=14
 ICtDFT= 12500011 ScaDFX=  1.000000  1.000000  1.000000  1.000000
 Range of M.O.s used for correlation:    15   379
 NBasis=   385 NAE=    47 NBE=    47 NFC=    14 NFV=     0
 NROrb=    365 NOA=    33 NOB=    33 NVA=   332 NVB=   332

 **** Warning!!: The largest alpha MO coefficient is  0.15779461D+03

 Orbital symmetries:
       Occupied  (A') (A') (A') (A') (A') (A') (A') (A') (A') (A')
                 (A') (A') (A') (A') (A') (A') (A') (A') (A') (A')
                 (A') (A') (A') (A') (A') (A') (A') (A') (A') (A')
                 (A') (A") (A') (A') (A') (A') (A') (A") (A") (A')
                 (A') (A') (A') (A") (A") (A") (A")
       Virtual   (A") (A") (A") (A") (A') (A') (A') (A') (A") (A')
                 (A') (A") (A') (A') (A") (A') (A") (A') (A') (A')
                 (A") (A") (A') (A') (A') (A") (A') (A") (A') (A')
                 (A") (A') (A") (A') (A') (A') (A') (A') (A") (A')
                 (A") (A') (A') (A") (A") (A') (A") (A') (A") (A')
                 (A') (A') (A') (A') (A') (A") (A') (A') (A') (A')
                 (A') (A") (A') (A') (A') (A') (A") (A') (A') (A')
                 (A') (A') (A') (A') (A') (A') (A') (A') (A') (A')
                 (A') (A') (A') (A') (A') (A') (A') (A') (A') (A')
                 (A') (A') (A') (A') (A") (A") (A') (A") (A') (A")
                 (A') (A') (A') (A') (A") (A") (A') (A") (A") (A')
                 (A') (A") (A') (A') (A') (A") (A') (A") (A') (A")
                 (A") (A') (A") (A') (A') (A") (A') (A') (A') (A')
                 (A') (A') (A') (A') (A') (A') (A') (A') (A') (A')
                 (A') (A') (A') (A") (A') (A') (A') (A') (A') (A')
                 (A') (A") (A') (A') (A") (A') (A") (A") (A') (A")
                 (A") (A') (A") (A') (A') (A") (A") (A") (A') (A')
                 (A') (A") (A') (A') (A') (A") (A') (A') (A') (A")
                 (A') (A') (A') (A") (A') (A') (A") (A") (A') (A")
                 (A") (A') (A') (A") (A') (A") (A') (A') (A') (A')
                 (A") (A") (A") (A') (A') (A") (A') (A") (A') (A')
                 (A') (A") (A") (A') (A") (A') (A') (A") (A') (A")
                 (A') (A') (A') (A') (A") (A') (A') (A") (A') (A")
                 (A') (A') (A') (A") (A') (A') (A') (A") (A") (A')
                 (A") (A') (A') (A") (A') (A') (A') (A') (A') (A')
                 (A") (A') (A') (A') (A') (A") (A") (A') (A") (A')
                 (A') (A') (A') (A') (A') (A") (A') (A') (A') (A')
                 (A') (A") (A') (A") (A") (A") (A') (A") (A') (A")
                 (A') (A") (A") (A') (A") (A") (A') (A') (A') (A')
                 (A') (A') (A') (A') (A') (A') (A') (A') (A') (A')
                 (A') (A') (A') (A') (A") (A') (A') (A') (A') (A')
                 (A') (A') (A') (A') (A') (A') (A') (A') (A') (A')
                 (A') (A') (A') (A') (A') (A') (A') (A') (A') (A')
                 (A') (A')
     4 initial guesses have been made.
 Convergence on wavefunction:    0.001000000000000
 Iteration     1 Dimension     4 NMult     0 NNew      4
 CISAX will form     4 AO SS matrices at one time.
 Iteration     2 Dimension     6 NMult     4 NNew      2
 Iteration     3 Dimension     8 NMult     6 NNew      2
 Iteration     4 Dimension    10 NMult     8 NNew      2
 Iteration     5 Dimension    12 NMult    10 NNew      2
 Iteration     6 Dimension    14 NMult    12 NNew      2
 ***********************************************************************
 Excited states from <AA,BB:AA,BB> singles matrix:
 ***********************************************************************
 
 Ground to excited state transition densities written to RWF  633
 Ground to excited state transition electric dipole moments (Au):
       state          X           Y           Z        Dip. S.      Osc.
         1        -0.4066      0.4997      0.0000      0.4150      0.0265
 Ground to excited state transition velocity dipole moments (Au):
       state          X           Y           Z        Dip. S.      Osc.
         1         0.0474     -0.0482     -0.0000      0.0046      0.0319
 Ground to excited state transition magnetic dipole moments (Au):
       state          X           Y           Z
         1        -0.0000      0.0000     -0.4569
 Ground to excited state transition velocity quadrupole moments (Au):
       state          XX          YY          ZZ          XY          XZ          YZ
         1         0.1890      0.0559     -0.0080      0.1578      0.0000      0.0000
 <0|del|b> * <b|rxdel|0> + <0|del|b> * <b|delr+rdel|0>
 Rotatory Strengths (R) in cgs (10**-40 erg-esu-cm/Gauss)
       state          XX          YY          ZZ    R(velocity)    E-M Angle
         1         0.0000      0.0000     -0.0000      0.0000       90.00
 1/2[<0|r|b>*<b|rxdel|0> + (<0|rxdel|b>*<b|r|0>)*]
 Rotatory Strengths (R) in cgs (10**-40 erg-esu-cm/Gauss)
       state          XX          YY          ZZ     R(length)
         1        -0.0000     -0.0000      0.0000      0.0000
  1/2[<0|del|b>*<b|r|0> + (<0|r|b>*<b|del|0>)*] (Au)
       state          X           Y           Z        Dip. S.   Osc.(frdel)
         1        -0.0193     -0.0241     -0.0000      0.0434      0.0289

 Excitation energies and oscillator strengths:
 
 Excited State   1:      Singlet-A'     2.6035 eV  476.22 nm  f=0.0265  <S**2>=0.000
      47 -> 48         0.70299
 This state for optimization and/or second-order correction.
 Total Energy, E(TD-HF/TD-DFT) =  -539.639377663    
 Copying the excited state density for this state as the 1-particle RhoCI density.
 SavETr:  write IOETrn=   770 NScale= 10 NData=  16 NLR=1 NState=    1 LETran=      28.

 **********************************************************************

            Population analysis using the SCF Density.

 **********************************************************************

 Orbital symmetries:
       Occupied  (A') (A') (A') (A') (A') (A') (A') (A') (A') (A')
                 (A') (A') (A') (A') (A') (A') (A') (A') (A') (A')
                 (A') (A') (A') (A') (A') (A') (A') (A') (A') (A')
                 (A') (A") (A') (A') (A') (A') (A') (A") (A") (A')
                 (A') (A') (A') (A") (A") (A") (A")
       Virtual   (A") (A") (A") (A") (A') (A') (A') (A') (A") (A')
                 (A') (A") (A') (A') (A") (A') (A") (A') (A') (A')
                 (A") (A") (A') (A') (A') (A") (A') (A") (A') (A')
                 (A") (A') (A") (A') (A') (A') (A') (A') (A") (A')
                 (A") (A') (A') (A") (A") (A') (A") (A') (A") (A')
                 (A') (A') (A') (A') (A') (A") (A') (A') (A') (A')
                 (A') (A") (A') (A') (A') (A') (A") (A') (A') (A')
                 (A') (A') (A') (A') (A') (A') (A') (A') (A') (A')
                 (A') (A') (A') (A') (A') (A') (A') (A') (A') (A')
                 (A') (A') (A') (A') (A") (A") (A') (A") (A') (A")
                 (A') (A') (A') (A') (A") (A") (A') (A") (A") (A')
                 (A') (A") (A') (A') (A') (A") (A') (A") (A') (A")
                 (A") (A') (A") (A') (A') (A") (A') (A') (A') (A')
                 (A') (A') (A') (A') (A') (A') (A') (A') (A') (A')
                 (A') (A') (A') (A") (A') (A') (A') (A') (A') (A')
                 (A') (A") (A') (A') (A") (A') (A") (A") (A') (A")
                 (A") (A') (A") (A') (A') (A") (A") (A") (A') (A')
                 (A') (A") (A') (A') (A') (A") (A') (A') (A') (A")
                 (A') (A') (A') (A") (A') (A') (A") (A") (A') (A")
                 (A") (A') (A') (A") (A') (A") (A') (A') (A') (A')
                 (A") (A") (A") (A') (A') (A") (A') (A") (A') (A')
                 (A') (A") (A") (A') (A") (A') (A') (A") (A') (A")
                 (A') (A') (A') (A') (A") (A') (A') (A") (A') (A")
                 (A') (A') (A') (A") (A') (A') (A') (A") (A") (A')
                 (A") (A') (A') (A") (A') (A') (A') (A') (A') (A')
                 (A") (A') (A') (A') (A') (A") (A") (A') (A") (A')
                 (A') (A') (A') (A') (A') (A") (A') (A') (A') (A')
                 (A') (A") (A') (A") (A") (A") (A') (A") (A') (A")
                 (A') (A") (A") (A') (A") (A") (A') (A') (A') (A')
                 (A') (A') (A') (A') (A') (A') (A') (A') (A') (A')
                 (A') (A') (A') (A') (A") (A') (A') (A') (A') (A')
                 (A') (A') (A') (A') (A') (A') (A') (A') (A') (A')
                 (A') (A') (A') (A') (A') (A') (A') (A') (A') (A')
                 (A') (A')
 The electronic state is 1-A'.
 Alpha  occ. eigenvalues --  -10.77676 -10.73548 -10.73021 -10.72562 -10.72291
 Alpha  occ. eigenvalues --  -10.71847 -10.71082 -10.71064 -10.70913 -10.70810
 Alpha  occ. eigenvalues --  -10.70311 -10.70062 -10.69623 -10.69115  -1.16622
 Alpha  occ. eigenvalues --   -1.12635  -1.06882  -1.05973  -1.01428  -1.00784
 Alpha  occ. eigenvalues --   -0.95417  -0.91046  -0.86498  -0.85816  -0.83738
 Alpha  occ. eigenvalues --   -0.78305  -0.76176  -0.74266  -0.69834  -0.69125
 Alpha  occ. eigenvalues --   -0.68541  -0.68139  -0.68094  -0.64947  -0.64546
 Alpha  occ. eigenvalues --   -0.62732  -0.61404  -0.60550  -0.59290  -0.58990
 Alpha  occ. eigenvalues --   -0.57028  -0.54979  -0.54570  -0.52445  -0.47306
 Alpha  occ. eigenvalues --   -0.46190  -0.43732
 Alpha virt. eigenvalues --   -0.26100  -0.14975  -0.13881  -0.12658  -0.11185
 Alpha virt. eigenvalues --   -0.10103  -0.09234  -0.08002  -0.07905  -0.07477
 Alpha virt. eigenvalues --   -0.07210  -0.07130  -0.05658  -0.05588  -0.05357
 Alpha virt. eigenvalues --   -0.03869  -0.03661  -0.03363  -0.03120  -0.02148
 Alpha virt. eigenvalues --   -0.01355  -0.00976   0.00154   0.00524   0.00567
 Alpha virt. eigenvalues --    0.01026   0.01507   0.01911   0.02030   0.02202
 Alpha virt. eigenvalues --    0.02471   0.02665   0.02801   0.03257   0.03463
 Alpha virt. eigenvalues --    0.04198   0.04503   0.04677   0.05026   0.05378
 Alpha virt. eigenvalues --    0.06016   0.06254   0.06532   0.07066   0.07254
 Alpha virt. eigenvalues --    0.07899   0.08161   0.08229   0.08591   0.08835
 Alpha virt. eigenvalues --    0.09144   0.09551   0.09816   0.10490   0.10982
 Alpha virt. eigenvalues --    0.11080   0.11876   0.12293   0.12846   0.13028
 Alpha virt. eigenvalues --    0.13281   0.13506   0.13913   0.14697   0.16031
 Alpha virt. eigenvalues --    0.16197   0.16201   0.17157   0.17502   0.17544
 Alpha virt. eigenvalues --    0.18090   0.18582   0.19262   0.19678   0.20353
 Alpha virt. eigenvalues --    0.21408   0.21484   0.22748   0.23213   0.23522
 Alpha virt. eigenvalues --    0.24069   0.24666   0.25704   0.26769   0.27745
 Alpha virt. eigenvalues --    0.28767   0.29688   0.29888   0.31629   0.34629
 Alpha virt. eigenvalues --    0.36750   0.38228   0.39221   0.41224   0.41357
 Alpha virt. eigenvalues --    0.41587   0.42144   0.43056   0.43331   0.44308
 Alpha virt. eigenvalues --    0.44471   0.45237   0.46363   0.47132   0.47732
 Alpha virt. eigenvalues --    0.48456   0.48581   0.49239   0.50427   0.50641
 Alpha virt. eigenvalues --    0.51164   0.52128   0.52406   0.52956   0.54029
 Alpha virt. eigenvalues --    0.54213   0.55029   0.55365   0.55841   0.57433
 Alpha virt. eigenvalues --    0.58235   0.59215   0.61533   0.61695   0.62541
 Alpha virt. eigenvalues --    0.63572   0.63588   0.64792   0.65639   0.67430
 Alpha virt. eigenvalues --    0.69923   0.70559   0.71114   0.72205   0.72625
 Alpha virt. eigenvalues --    0.75131   0.76369   0.76533   0.76904   0.77171
 Alpha virt. eigenvalues --    0.77763   0.78164   0.78370   0.79984   0.80308
 Alpha virt. eigenvalues --    0.81475   0.81522   0.82651   0.83390   0.85047
 Alpha virt. eigenvalues --    0.86921   0.87765   0.88023   0.89581   0.89960
 Alpha virt. eigenvalues --    0.91240   0.91830   0.93677   0.94478   0.96063
 Alpha virt. eigenvalues --    0.97441   1.00379   1.01073   1.01452   1.02345
 Alpha virt. eigenvalues --    1.02628   1.04002   1.05187   1.06308   1.09255
 Alpha virt. eigenvalues --    1.19392   1.21818   1.22414   1.23953   1.27538
 Alpha virt. eigenvalues --    1.30703   1.33329   1.34321   1.35519   1.35877
 Alpha virt. eigenvalues --    1.38051   1.40697   1.41331   1.41879   1.43274
 Alpha virt. eigenvalues --    1.43937   1.44097   1.45968   1.46199   1.47190
 Alpha virt. eigenvalues --    1.47397   1.48842   1.51892   1.53579   1.53825
 Alpha virt. eigenvalues --    1.55861   1.55977   1.57820   1.59315   1.61463
 Alpha virt. eigenvalues --    1.63087   1.63589   1.63838   1.66017   1.67999
 Alpha virt. eigenvalues --    1.68094   1.69441   1.69474   1.74354   1.76381
 Alpha virt. eigenvalues --    1.76733   1.77616   1.79511   1.79939   1.82269
 Alpha virt. eigenvalues --    1.82320   1.83231   1.83515   1.83993   1.84414
 Alpha virt. eigenvalues --    1.84865   1.85912   1.86924   1.88031   1.91181
 Alpha virt. eigenvalues --    1.91236   1.94008   1.97132   1.97688   1.98974
 Alpha virt. eigenvalues --    1.99372   2.03024   2.05510   2.06538   2.11530
 Alpha virt. eigenvalues --    2.12398   2.14486   2.15082   2.18794   2.20899
 Alpha virt. eigenvalues --    2.22922   2.27998   2.30316   2.33757   2.34391
 Alpha virt. eigenvalues --    2.35404   2.38303   2.39382   2.41413   2.44076
 Alpha virt. eigenvalues --    2.45569   2.46601   2.48489   2.53435   2.54211
 Alpha virt. eigenvalues --    2.55022   2.56290   2.57568   2.58258   2.59146
 Alpha virt. eigenvalues --    2.59341   2.60012   2.61453   2.62968   2.63438
 Alpha virt. eigenvalues --    2.64957   2.65110   2.65678   2.65979   2.67846
 Alpha virt. eigenvalues --    2.70785   2.71058   2.72318   2.73280   2.74686
 Alpha virt. eigenvalues --    2.76370   2.78740   2.79707   2.81249   2.83265
 Alpha virt. eigenvalues --    2.85877   2.86279   2.92027   2.96742   2.98174
 Alpha virt. eigenvalues --    3.01195   3.03722   3.08288   3.11381   3.16029
 Alpha virt. eigenvalues --    3.19618   3.22275   3.26153   3.28067   3.29598
 Alpha virt. eigenvalues --    3.33203   3.36491   3.42599   3.44622   3.48025
 Alpha virt. eigenvalues --    3.49153   3.53467   3.57231   3.63814   3.65235
 Alpha virt. eigenvalues --    3.71114   3.93007   3.93778   3.95107   3.95532
 Alpha virt. eigenvalues --    4.03416   4.04731   4.08482   4.12068   4.34668
 Alpha virt. eigenvalues --    4.60515   4.64916   4.72926  23.44678  23.59109
 Alpha virt. eigenvalues --   23.76275  23.80967  23.82909  23.90368  23.92268
 Alpha virt. eigenvalues --   23.92716  23.94487  24.04181  24.06836  24.09340
 Alpha virt. eigenvalues --   24.12390  24.19401
          Condensed to atoms (all electrons):
               1          2          3          4          5          6
     1  C    8.221171   0.308772  -0.558379   1.910449  -0.173032  -0.090291
     2  C    0.308772   7.426567   0.332350  -1.205913  -0.017426  -0.017560
     3  C   -0.558379   0.332350   6.469119   0.891740  -0.130446   0.017322
     4  C    1.910449  -1.205913   0.891740  10.695886  -0.688972  -0.117724
     5  C   -0.173032  -0.017426  -0.130446  -0.688972  13.097733   0.826904
     6  C   -0.090291  -0.017560   0.017322  -0.117724   0.826904   6.600672
     7  C    0.012571  -0.002864  -0.010955   0.027696  -1.403124   0.344498
     8  C    0.356769  -0.022001  -0.112348  -0.028304   3.078618  -0.428016
     9  C   -0.623678  -0.849514   0.278476   0.189664  -0.383117   0.274377
    10  C   -1.205681   0.119978  -0.188310  -2.449104  -2.709244  -0.390556
    11  C    0.615603  -1.022029   0.922151   1.519087  -1.910150  -0.206105
    12  C   -2.633650   1.653649  -1.508329  -3.342130   0.282517  -0.133884
    13  C    0.588012  -0.376338  -0.154481  -0.592531  -2.541897   0.661933
    14  C   -1.200704  -0.165158  -0.165700  -1.022561  -1.757749  -1.222826
    15  H    0.370042  -0.099373   0.002430   0.019506   0.006975   0.001366
    16  H   -0.021655   0.385944  -0.018450   0.021079  -0.002038  -0.000409
    17  H   -0.022925  -0.023281   0.394081  -0.083569   0.000013   0.000462
    18  H    0.048305   0.003051  -0.079928   0.472674  -0.000517  -0.004900
    19  H   -0.036661  -0.006957   0.051861  -0.041779  -0.091274   0.046331
    20  H    0.006298   0.002671  -0.005029   0.004389   0.461042  -0.082539
    21  H   -0.000999  -0.000435   0.000324   0.000549  -0.065299   0.364030
    22  H    0.000486   0.000305  -0.000232  -0.000918   0.000826  -0.013478
    23  H    0.003712  -0.001904   0.000649   0.002317   0.048002  -0.004311
    24  H    0.045033   0.015654   0.000084  -0.003665  -0.023060  -0.003251
    25  H    0.045033   0.015654   0.000084  -0.003665  -0.023060  -0.003251
               7          8          9         10         11         12
     1  C    0.012571   0.356769  -0.623678  -1.205681   0.615603  -2.633650
     2  C   -0.002864  -0.022001  -0.849514   0.119978  -1.022029   1.653649
     3  C   -0.010955  -0.112348   0.278476  -0.188310   0.922151  -1.508329
     4  C    0.027696  -0.028304   0.189664  -2.449104   1.519087  -3.342130
     5  C   -1.403124   3.078618  -0.383117  -2.709244  -1.910150   0.282517
     6  C    0.344498  -0.428016   0.274377  -0.390556  -0.206105  -0.133884
     7  C    7.157484  -0.243937  -0.855205   0.390544  -0.205187  -0.197680
     8  C   -0.243937   9.758011  -1.239777  -1.566140  -0.080159  -0.893407
     9  C   -0.855205  -1.239777   9.678480   0.336624   1.889542  -2.520586
    10  C    0.390544  -1.566140   0.336624   8.787033  -0.263911   2.495562
    11  C   -0.205187  -0.080159   1.889542  -0.263911  13.325655  -4.587567
    12  C   -0.197680  -0.893407  -2.520586   2.495562  -4.587567  18.154872
    13  C   -0.231233  -0.649320   1.009910   0.038824   0.611528  -4.840951
    14  C    1.303999  -2.457992  -1.731502   2.122965  -4.059913   3.310608
    15  H   -0.002831   0.006680   0.078274  -0.003778  -0.036538  -0.011562
    16  H    0.000388   0.000802  -0.002226  -0.010781   0.014621  -0.021056
    17  H   -0.000348  -0.001669  -0.002991   0.018764  -0.019400   0.086709
    18  H    0.001882   0.006581  -0.016516  -0.012098   0.021486  -0.062657
    19  H   -0.005487  -0.059271   0.074983   0.421267   0.070059  -0.079792
    20  H   -0.001894   0.061269  -0.027036   0.017365  -0.008290  -0.005610
    21  H   -0.006238  -0.036821  -0.008479   0.019128  -0.006772   0.005800
    22  H    0.375408  -0.028563   0.004055  -0.004229   0.002926  -0.007152
    23  H   -0.121375   0.388950   0.103945  -0.016808   0.008536   0.009060
    24  H    0.014222   0.010744   0.363391   0.006621   0.017425  -0.056100
    25  H    0.014222   0.010744   0.363391   0.006621   0.017425  -0.056100
              13         14         15         16         17         18
     1  C    0.588012  -1.200704   0.370042  -0.021655  -0.022925   0.048305
     2  C   -0.376338  -0.165158  -0.099373   0.385944  -0.023281   0.003051
     3  C   -0.154481  -0.165700   0.002430  -0.018450   0.394081  -0.079928
     4  C   -0.592531  -1.022561   0.019506   0.021079  -0.083569   0.472674
     5  C   -2.541897  -1.757749   0.006975  -0.002038   0.000013  -0.000517
     6  C    0.661933  -1.222826   0.001366  -0.000409   0.000462  -0.004900
     7  C   -0.231233   1.303999  -0.002831   0.000388  -0.000348   0.001882
     8  C   -0.649320  -2.457992   0.006680   0.000802  -0.001669   0.006581
     9  C    1.009910  -1.731502   0.078274  -0.002226  -0.002991  -0.016516
    10  C    0.038824   2.122965  -0.003778  -0.010781   0.018764  -0.012098
    11  C    0.611528  -4.059913  -0.036538   0.014621  -0.019400   0.021486
    12  C   -4.840951   3.310608  -0.011562  -0.021056   0.086709  -0.062657
    13  C   15.141380  -2.061767  -0.003613   0.002248  -0.006203  -0.008888
    14  C   -2.061767  14.824080   0.003872  -0.010424   0.004930  -0.031810
    15  H   -0.003613   0.003872   0.443964  -0.009640   0.001909   0.000023
    16  H    0.002248  -0.010424  -0.009640   0.418001  -0.007877   0.002235
    17  H   -0.006203   0.004930   0.001909  -0.007877   0.430246  -0.013337
    18  H   -0.008888  -0.031810   0.000023   0.002235  -0.013337   0.449629
    19  H    0.077125  -0.046716   0.000442  -0.000671   0.002029  -0.004396
    20  H   -0.005074  -0.080895  -0.000151   0.000031  -0.000204   0.001146
    21  H   -0.023809   0.100074   0.000016  -0.000007   0.000010  -0.000096
    22  H    0.031393  -0.024239  -0.000127   0.000008  -0.000006   0.000007
    23  H   -0.055496  -0.036853   0.000513  -0.000129   0.000009  -0.000081
    24  H    0.011070  -0.064790  -0.001337   0.000589  -0.000108   0.000090
    25  H    0.011070  -0.064790  -0.001337   0.000589  -0.000108   0.000090
              19         20         21         22         23         24
     1  C   -0.036661   0.006298  -0.000999   0.000486   0.003712   0.045033
     2  C   -0.006957   0.002671  -0.000435   0.000305  -0.001904   0.015654
     3  C    0.051861  -0.005029   0.000324  -0.000232   0.000649   0.000084
     4  C   -0.041779   0.004389   0.000549  -0.000918   0.002317  -0.003665
     5  C   -0.091274   0.461042  -0.065299   0.000826   0.048002  -0.023060
     6  C    0.046331  -0.082539   0.364030  -0.013478  -0.004311  -0.003251
     7  C   -0.005487  -0.001894  -0.006238   0.375408  -0.121375   0.014222
     8  C   -0.059271   0.061269  -0.036821  -0.028563   0.388950   0.010744
     9  C    0.074983  -0.027036  -0.008479   0.004055   0.103945   0.363391
    10  C    0.421267   0.017365   0.019128  -0.004229  -0.016808   0.006621
    11  C    0.070059  -0.008290  -0.006772   0.002926   0.008536   0.017425
    12  C   -0.079792  -0.005610   0.005800  -0.007152   0.009060  -0.056100
    13  C    0.077125  -0.005074  -0.023809   0.031393  -0.055496   0.011070
    14  C   -0.046716  -0.080895   0.100074  -0.024239  -0.036853  -0.064790
    15  H    0.000442  -0.000151   0.000016  -0.000127   0.000513  -0.001337
    16  H   -0.000671   0.000031  -0.000007   0.000008  -0.000129   0.000589
    17  H    0.002029  -0.000204   0.000010  -0.000006   0.000009  -0.000108
    18  H   -0.004396   0.001146  -0.000096   0.000007  -0.000081   0.000090
    19  H    0.444038  -0.007828   0.000893  -0.000369   0.000074   0.000662
    20  H   -0.007828   0.463039  -0.008242   0.001435   0.000292   0.000285
    21  H    0.000893  -0.008242   0.417966  -0.004911   0.000746  -0.000158
    22  H   -0.000369   0.001435  -0.004911   0.419896  -0.007674   0.000652
    23  H    0.000074   0.000292   0.000746  -0.007674   0.437562  -0.000512
    24  H    0.000662   0.000285  -0.000158   0.000652  -0.000512   0.493252
    25  H    0.000662   0.000285  -0.000158   0.000652  -0.000512  -0.079030
              25
     1  C    0.045033
     2  C    0.015654
     3  C    0.000084
     4  C   -0.003665
     5  C   -0.023060
     6  C   -0.003251
     7  C    0.014222
     8  C    0.010744
     9  C    0.363391
    10  C    0.006621
    11  C    0.017425
    12  C   -0.056100
    13  C    0.011070
    14  C   -0.064790
    15  H   -0.001337
    16  H    0.000589
    17  H   -0.000108
    18  H    0.000090
    19  H    0.000662
    20  H    0.000285
    21  H   -0.000158
    22  H    0.000652
    23  H   -0.000512
    24  H   -0.079030
    25  H    0.493252
 Mulliken charges:
               1
     1  C    0.035398
     2  C   -0.453843
     3  C   -0.428085
     4  C   -0.174201
     5  C    0.117776
     6  C   -0.418795
     7  C   -0.354557
     8  C    0.168556
     9  C   -0.384483
    10  C    0.039343
    11  C   -0.630022
    12  C    0.959435
    13  C   -0.632894
    14  C    0.535859
    15  H    0.234276
    16  H    0.258830
    17  H    0.242864
    18  H    0.228027
    19  H    0.190774
    20  H    0.213246
    21  H    0.252889
    22  H    0.253848
    23  H    0.241287
    24  H    0.252237
    25  H    0.252237
 Sum of Mulliken charges =   1.00000
 Mulliken charges with hydrogens summed into heavy atoms:
               1
     1  C    0.269674
     2  C   -0.195012
     3  C   -0.185221
     4  C    0.053826
     5  C    0.331022
     6  C   -0.165906
     7  C   -0.100709
     8  C    0.409843
     9  C    0.119991
    10  C    0.230116
    11  C   -0.630022
    12  C    0.959435
    13  C   -0.632894
    14  C    0.535859
 Electronic spatial extent (au):  <R**2>=           2856.8138
 Charge=              1.0000 electrons
 Dipole moment (field-independent basis, Debye):
    X=              0.1461    Y=             -0.1074    Z=              0.0000  Tot=              0.1813
 Quadrupole moment (field-independent basis, Debye-Ang):
   XX=            -51.7083   YY=            -35.8377   ZZ=            -84.1210
   XY=              9.8263   XZ=             -0.0000   YZ=              0.0000
 Traceless Quadrupole moment (field-independent basis, Debye-Ang):
   XX=              5.5140   YY=             21.3846   ZZ=            -26.8986
   XY=              9.8263   XZ=             -0.0000   YZ=              0.0000
 Octapole moment (field-independent basis, Debye-Ang**2):
  XXX=             -1.5646  YYY=              9.3157  ZZZ=              0.0000  XYY=              4.7167
  XXY=             -4.0395  XXZ=              0.0000  XZZ=             -3.1479  YZZ=              0.5979
  YYZ=              0.0000  XYZ=             -0.0000
 Hexadecapole moment (field-independent basis, Debye-Ang**3):
 XXXX=          -1023.3504 YYYY=          -1811.3304 ZZZZ=            -99.2865 XXXY=           -361.7061
 XXXZ=             -0.0000 YYYX=           -284.8741 YYYZ=              0.0000 ZZZX=             -0.0000
 ZZZY=              0.0000 XXYY=           -458.1922 XXZZ=           -246.8152 YYZZ=           -489.8671
 XXYZ=              0.0000 YYXZ=             -0.0000 ZZXY=           -186.5100
 N-N= 7.813320595510D+02 E-N=-2.799012005104D+03  KE= 5.375696309416D+02
 Symmetry A'   KE= 5.229064462861D+02
 Symmetry A"   KE= 1.466318465547D+01
 Unable to Open any file for archive entry.
 1\1\GINC-GADI-CPU-CLX-1538\SP\RM062X TD-FC\6-311++G(d,p)\C14H11(1+)\TS
 1578\27-Jul-2022\0\\#n M062X/6-311++G(d,p) TD(NStates=1) EmpiricalDisp
 ersion=GD3 SP\\SP_2\\1,1\C,0,0.,2.476655,1.362431\C,0,0.,3.653508,0.65
 3989\C,0,0.,3.661861,-0.74783\C,0,0.,2.507156,-1.429538\C,0,0.,-2.4191
 56,-1.385538\C,0,0.,-3.705861,-0.67983\C,0,0.,-3.749508,0.689989\C,0,0
 .,-2.508655,1.358431\C,0,0.,-0.032,1.453369\C,0,0.,0.026,-1.429189\C,0
 ,0.,1.290055,0.669065\C,0,0.,1.273471,-0.696804\C,0,0.,-1.234055,0.685
 065\C,0,0.,-1.201471,-0.764804\H,0,0.,2.416071,2.443647\H,0,0.,4.56875
 3,1.227689\H,0,0.,4.579262,-1.316349\H,0,0.,2.55555,-2.510059\H,0,0.,0
 .08,-2.510266\H,0,0.,-2.37955,-2.470059\H,0,0.,-4.639262,-1.228349\H,0
 ,0.,-4.704753,1.195689\H,0,0.,-2.560071,2.443647\H,0,-0.859585,-0.14,2
 .145787\H,0,0.859585,-0.14,2.145787\\Version=ES64L-G16RevC.01\State=1-
 A'\HF=-539.7350547\RMSD=3.665e-09\PG=CS [SG(C14H9),X(H2)]\\@
 The archive entry for this job was punched.


 THE DIFFICULTY IN SCIENCE IS OFTEN NOT SO MUCH HOW
 TO MAKE A DISCOVERY BUT RATHER TO KNOW ONE HAS MADE IT.

                                                   -- J. D. BERNAL
 Job cpu time:       0 days  0 hours 46 minutes  1.6 seconds.
 Elapsed time:       0 days  0 hours  1 minutes 26.8 seconds.
 File lengths (MBytes):  RWF=    460 Int=      0 D2E=      0 Chk=     15 Scr=      1
 Normal termination of Gaussian 16 at Wed Jul 27 11:50:32 2022.
