 Entering Gaussian System, Link 0=g16
 Initial command:
 /apps/gaussian/g16c01/g16/l1.exe "/jobfs/52815815.gadi-pbs/Gau-2064514.inp" -scrdir="/jobfs/52815815.gadi-pbs/"
 Entering Link 1 = /apps/gaussian/g16c01/g16/l1.exe PID=   2064515.
  
 Copyright (c) 1988-2019, Gaussian, Inc.  All Rights Reserved.
  
 This is part of the Gaussian(R) 16 program.  It is based on
 the Gaussian(R) 09 system (copyright 2009, Gaussian, Inc.),
 the Gaussian(R) 03 system (copyright 2003, Gaussian, Inc.),
 the Gaussian(R) 98 system (copyright 1998, Gaussian, Inc.),
 the Gaussian(R) 94 system (copyright 1995, Gaussian, Inc.),
 the Gaussian 92(TM) system (copyright 1992, Gaussian, Inc.),
 the Gaussian 90(TM) system (copyright 1990, Gaussian, Inc.),
 the Gaussian 88(TM) system (copyright 1988, Gaussian, Inc.),
 the Gaussian 86(TM) system (copyright 1986, Carnegie Mellon
 University), and the Gaussian 82(TM) system (copyright 1983,
 Carnegie Mellon University). Gaussian is a federally registered
 trademark of Gaussian, Inc.
  
 This software contains proprietary and confidential information,
 including trade secrets, belonging to Gaussian, Inc.
  
 This software is provided under written license and may be
 used, copied, transmitted, or stored only in accord with that
 written license.
  
 The following legend is applicable only to US Government
 contracts under FAR:
  
                    RESTRICTED RIGHTS LEGEND
  
 Use, reproduction and disclosure by the US Government is
 subject to restrictions as set forth in subparagraphs (a)
 and (c) of the Commercial Computer Software - Restricted
 Rights clause in FAR 52.227-19.
  
 Gaussian, Inc.
 340 Quinnipiac St., Bldg. 40, Wallingford CT 06492
  
  
 ---------------------------------------------------------------
 Warning -- This program may not be used in any manner that
 competes with the business of Gaussian, Inc. or will provide
 assistance to any competitor of Gaussian, Inc.  The licensee
 of this program is prohibited from giving any competitor of
 Gaussian, Inc. access to this program.  By using this program,
 the user acknowledges that Gaussian, Inc. is engaged in the
 business of creating and licensing software in the field of
 computational chemistry and represents and warrants to the
 licensee that it is not a competitor of Gaussian, Inc. and that
 it will not use this program in any manner prohibited above.
 ---------------------------------------------------------------
  

 Cite this work as:
 Gaussian 16, Revision C.01,
 M. J. Frisch, G. W. Trucks, H. B. Schlegel, G. E. Scuseria, 
 M. A. Robb, J. R. Cheeseman, G. Scalmani, V. Barone, 
 G. A. Petersson, H. Nakatsuji, X. Li, M. Caricato, A. V. Marenich, 
 J. Bloino, B. G. Janesko, R. Gomperts, B. Mennucci, H. P. Hratchian, 
 J. V. Ortiz, A. F. Izmaylov, J. L. Sonnenberg, D. Williams-Young, 
 F. Ding, F. Lipparini, F. Egidi, J. Goings, B. Peng, A. Petrone, 
 T. Henderson, D. Ranasinghe, V. G. Zakrzewski, J. Gao, N. Rega, 
 G. Zheng, W. Liang, M. Hada, M. Ehara, K. Toyota, R. Fukuda, 
 J. Hasegawa, M. Ishida, T. Nakajima, Y. Honda, O. Kitao, H. Nakai, 
 T. Vreven, K. Throssell, J. A. Montgomery, Jr., J. E. Peralta, 
 F. Ogliaro, M. J. Bearpark, J. J. Heyd, E. N. Brothers, K. N. Kudin, 
 V. N. Staroverov, T. A. Keith, R. Kobayashi, J. Normand, 
 K. Raghavachari, A. P. Rendell, J. C. Burant, S. S. Iyengar, 
 J. Tomasi, M. Cossi, J. M. Millam, M. Klene, C. Adamo, R. Cammi, 
 J. W. Ochterski, R. L. Martin, K. Morokuma, O. Farkas, 
 J. B. Foresman, and D. J. Fox, Gaussian, Inc., Wallingford CT, 2019.
 
 ******************************************
 Gaussian 16:  ES64L-G16RevC.01  3-Jul-2019
                27-Jul-2022 
 ******************************************
 %NProcShared=32
 Will use up to   32 processors via shared memory.
 %mem = 128GB
 ---------------------------------------------------------------
 #n M062X/6-311++G(d,p) TD(NStates=1) EmpiricalDispersion=GD3 SP
 ---------------------------------------------------------------
 1/38=1,172=1/1;
 2/12=2,17=6,18=5,40=1/2;
 3/5=4,6=6,7=1111,11=9,25=1,30=1,74=-55,124=31/1,2,3,8;
 4//1;
 5/5=2,38=5/2;
 8/6=1,10=2,108=1/1;
 9/41=1,42=1,70=2/14;
 6/7=2,8=2,9=2,10=2/1;
 99/5=1,9=1/99;
 ----
 SP_2
 ----
 Symbolic Z-matrix:
 Charge =  1 Multiplicity = 1
 C                     0.        2.50866   1.36243 
 C                     0.        3.68951   0.66999 
 C                     0.        3.67986  -0.71583 
 C                     0.        2.46716  -1.41354 
 C                     0.       -2.45916  -1.40154 
 C                     0.       -3.68786  -0.71183 
 C                     0.       -3.71351   0.67399 
 C                     0.       -2.47666   1.35843 
 C                     0.       -0.016     1.45337 
 C                     0.       -0.032    -1.42919 
 C                     0.        1.27206   0.64707 
 C                     0.        1.25547  -0.6948 
 C                     0.       -1.25206   0.70707 
 C                     0.       -1.21947  -0.7668 
 H                     0.        2.42607   2.44365 
 H                     0.        4.60475   1.24169 
 H                     0.        4.58126  -1.31235 
 H                     0.        2.53755  -2.49406 
 H                     0.        0.03     -2.51027 
 H                     0.       -2.39755  -2.48606 
 H                     0.       -4.63726  -1.23235 
 H                     0.       -4.66875   1.18169 
 H                     0.       -2.55007   2.44365 
 H                    -0.85959  -0.052     2.14579 
 H                     0.85959  -0.052     2.14579 
 
                          Input orientation:                          
 ---------------------------------------------------------------------
 Center     Atomic      Atomic             Coordinates (Angstroms)
 Number     Number       Type             X           Y           Z
 ---------------------------------------------------------------------
      1          6           0        0.000000    2.508655    1.362431
      2          6           0        0.000000    3.689508    0.669989
      3          6           0        0.000000    3.679861   -0.715830
      4          6           0        0.000000    2.467156   -1.413538
      5          6           0        0.000000   -2.459156   -1.401538
      6          6           0        0.000000   -3.687861   -0.711830
      7          6           0        0.000000   -3.713508    0.673989
      8          6           0        0.000000   -2.476655    1.358431
      9          6           0        0.000000   -0.016000    1.453369
     10          6           0        0.000000   -0.032000   -1.429189
     11          6           0        0.000000    1.272055    0.647065
     12          6           0        0.000000    1.255471   -0.694804
     13          6           0        0.000000   -1.252055    0.707065
     14          6           0        0.000000   -1.219471   -0.766804
     15          1           0        0.000000    2.426071    2.443647
     16          1           0        0.000000    4.604753    1.241689
     17          1           0        0.000000    4.581262   -1.312349
     18          1           0        0.000000    2.537550   -2.494059
     19          1           0        0.000000    0.030000   -2.510266
     20          1           0        0.000000   -2.397550   -2.486059
     21          1           0        0.000000   -4.637262   -1.232349
     22          1           0        0.000000   -4.668753    1.181689
     23          1           0        0.000000   -2.550071    2.443647
     24          1           0       -0.859585   -0.052000    2.145787
     25          1           0        0.859585   -0.052000    2.145787
 ---------------------------------------------------------------------
                    Distance matrix (angstroms):
                    1          2          3          4          5
     1  C    0.000000
     2  C    1.368901   0.000000
     3  C    2.385559   1.385853   0.000000
     4  C    2.776279   2.415622   1.399089   0.000000
     5  C    5.684951   6.488243   6.177194   4.926327   0.000000
     6  C    6.534475   7.505664   7.367723   6.194887   1.409047
     7  C    6.260133   7.403017   7.522865   6.523678   2.425121
     8  C    4.985312   6.204476   6.496557   5.667899   2.760024
     9  C    2.526292   3.787410   4.285419   3.792785   3.757593
    10  C    3.774662   4.272724   3.779787   2.499205   2.427313
    11  C    1.428611   2.417562   2.766769   2.382090   4.256608
    12  C    2.408876   2.790555   2.424481   1.408815   3.781260
    13  C    3.817387   4.941702   5.133072   4.281295   2.429671
    14  C    4.293316   5.114924   4.899597   3.742924   1.392733
    15  H    1.084365   2.177645   3.399159   3.857404   6.216984
    16  H    2.099573   1.079127   2.165019   3.408746   7.542245
    17  H    3.383807   2.173681   1.080906   2.116526   7.040983
    18  H    3.856598   3.367225   2.113521   1.082812   5.114751
    19  H    4.597990   4.848301   4.067123   2.672553   2.724917
    20  H    6.235521   6.856596   6.329979   4.981532   1.086269
    21  H    7.602435   8.541311   8.333146   7.106728   2.184667
    22  H    7.179683   8.373910   8.561538   7.593181   3.399321
    23  H    5.172981   6.486772   6.985295   6.328542   3.846260
    24  H    2.812381   4.112876   4.780641   4.444528   4.372276
    25  H    2.812381   4.112876   4.780641   4.444528   4.372276
                    6          7          8          9         10
     6  C    0.000000
     7  C    1.386056   0.000000
     8  C    2.398541   1.413600   0.000000
     9  C    4.262705   3.778756   2.462486   0.000000
    10  C    3.725577   4.239913   3.707717   2.882602   0.000000
    11  C    5.142700   4.985636   3.815609   1.519609   2.451814
    12  C    4.943361   5.154061   4.259641   2.496254   1.482195
    13  C    2.818938   2.461675   1.387055   1.443884   2.460105
    14  C    2.469002   2.880296   2.469238   2.525373   1.359721
    15  H    6.880203   6.389532   5.021396   2.635216   4.587044
    16  H    8.519606   8.337611   7.082370   4.625599   5.350988
    17  H    8.290900   8.529288   7.546341   5.365074   4.614741
    18  H    6.475499   7.008014   6.323285   4.701362   2.781463
    19  H    4.129995   4.914604   4.609787   3.963902   1.082853
    20  H    2.193807   3.423105   3.845304   4.603355   2.590907
    21  H    1.082729   2.118359   3.373479   5.345011   4.609467
    22  H    2.132502   1.081782   2.199212   4.660678   5.321293
    23  H    3.354341   2.117847   1.087696   2.720692   4.619474
    24  H    4.703652   4.038777   2.690310   1.104366   3.676920
    25  H    4.703652   4.038777   2.690310   1.104366   3.676920
                   11         12         13         14         15
    11  C    0.000000
    12  C    1.341971   0.000000
    13  C    2.524823   2.872790   0.000000
    14  C    2.864739   2.475989   1.474229   0.000000
    15  H    2.135289   3.349654   4.067472   4.857671   0.000000
    16  H    3.385329   3.868811   5.881158   6.160814   2.488244
    17  H    3.845797   3.382639   6.172975   5.826330   4.330399
    18  H    3.386464   2.209309   4.960675   4.135047   4.938964
    19  H    3.392851   2.190361   3.463363   2.144956   5.502946
    20  H    4.825191   4.068557   3.392374   2.084156   6.897052
    21  H    6.200986   5.917200   3.901404   3.449352   7.962639
    22  H    5.964815   6.214311   3.449506   3.961587   7.206182
    23  H    4.223311   4.932750   2.168078   3.475269   4.976142
    24  H    2.176735   3.243042   2.061296   3.253469   2.639781
    25  H    2.176735   3.243042   2.061296   3.253469   2.639781
                   16         17         18         19         20
    16  H    0.000000
    17  H    2.554146   0.000000
    18  H    4.269560   2.360762   0.000000
    19  H    5.916547   4.706271   2.507602   0.000000
    20  H    7.932739   7.076822   4.935106   2.427671   0.000000
    21  H    9.567429   9.218871   7.284905   4.839050   2.566729
    22  H    9.273700   9.580345   8.089618   5.975685   4.314017
    23  H    7.255082   8.059989   7.089769   5.585519   4.932065
    24  H    4.820957   5.845058   5.382641   4.735445   5.262555
    25  H    4.820957   5.845058   5.382641   4.735445   5.262555
                   21         22         23         24         25
    21  H    0.000000
    22  H    2.414243   0.000000
    23  H    4.227211   2.466040   0.000000
    24  H    5.759802   4.794036   2.658565   0.000000
    25  H    5.759802   4.794036   2.658565   1.719170   0.000000
 Stoichiometry    C14H11(1+)
 Framework group  CS[SG(C14H9),X(H2)]
 Deg. of freedom    46
 Full point group                 CS      NOp   2
 Largest Abelian subgroup         CS      NOp   2
 Largest concise Abelian subgroup CS      NOp   2
                         Standard orientation:                         
 ---------------------------------------------------------------------
 Center     Atomic      Atomic             Coordinates (Angstroms)
 Number     Number       Type             X           Y           Z
 ---------------------------------------------------------------------
      1          6           0        0.077343    2.854456    0.000000
      2          6           0       -1.075023    3.593334    0.000000
      3          6           0       -2.306021    2.956757    0.000000
      4          6           0       -2.378452    1.559544    0.000000
      5          6           0       -0.135417   -2.826513    0.000000
      6          6           0        1.036196   -3.609287    0.000000
      7          6           0        2.283187   -3.004172    0.000000
      8          6           0        2.332849   -1.591444    0.000000
      9          6           0        1.302445    0.645094    0.000000
     10          6           0       -1.259922   -0.675387    0.000000
     11          6           0        0.000000    1.427940    0.000000
     12          6           0       -1.188676    0.805095    0.000000
     13          6           0        1.197276   -0.794955    0.000000
     14          6           0       -0.131350   -1.433785    0.000000
     15          1           0        1.078601    3.270786    0.000000
     16          1           0       -0.980128    4.668280    0.000000
     17          1           0       -3.246246    3.489988    0.000000
     18          1           0       -3.373566    1.132662    0.000000
     19          1           0       -2.251728   -1.110004    0.000000
     20          1           0       -1.130115   -3.263041    0.000000
     21          1           0        1.002403   -4.691489    0.000000
     22          1           0        3.168635   -3.625650    0.000000
     23          1           0        3.333519   -1.165129    0.000000
     24          1           0        1.936005    0.926769    0.859585
     25          1           0        1.936005    0.926769   -0.859585
 ---------------------------------------------------------------------
 Rotational constants (GHZ):           2.1357077           0.4446014           0.3687940
 Standard basis: 6-311++G(d,p) (5D, 7F)
 There are   299 symmetry adapted cartesian basis functions of A'  symmetry.
 There are   100 symmetry adapted cartesian basis functions of A"  symmetry.
 There are   285 symmetry adapted basis functions of A'  symmetry.
 There are   100 symmetry adapted basis functions of A"  symmetry.
   385 basis functions,   603 primitive gaussians,   399 cartesian basis functions
    47 alpha electrons       47 beta electrons
       nuclear repulsion energy       781.2871906599 Hartrees.
 NAtoms=   25 NActive=   25 NUniq=   24 SFac= 1.09D+00 NAtFMM=   60 NAOKFM=F Big=F
 Integral buffers will be    131072 words long.
 Regular integral format.
 Two-electron integral symmetry is turned on.
 Nuclear repulsion after empirical dispersion term =      781.2862112455 Hartrees.
 One-electron integrals computed using PRISM.
 NBasis=   385 RedAO= T EigKep=  1.00D-06  NBF=   285   100
 NBsUse=   379 1.00D-06 EigRej=  8.15D-07 NBFU=   279   100
 ExpMin= 3.60D-02 ExpMax= 4.56D+03 ExpMxC= 6.82D+02 IAcc=3 IRadAn=         5 AccDes= 0.00D+00
 Harris functional with IExCor= 1009 and IRadAn=       5 diagonalized for initial guess.
 HarFok:  IExCor= 1009 AccDes= 0.00D+00 IRadAn=         5 IDoV= 1 UseB2=F ITyADJ=14
 ICtDFT=  3500011 ScaDFX=  1.000000  1.000000  1.000000  1.000000
 FoFCou: FMM=F IPFlag=           0 FMFlag=      100000 FMFlg1=           0
         NFxFlg=           0 DoJE=T BraDBF=F KetDBF=T FulRan=T
         wScrn=  0.000000 ICntrl=       500 IOpCl=  0 I1Cent=   200000004 NGrid=           0
         NMat0=    1 NMatS0=      1 NMatT0=    0 NMatD0=    1 NMtDS0=    0 NMtDT0=    0
 Petite list used in FoFCou.
 Initial guess orbital symmetries:
       Occupied  (A') (A') (A') (A') (A') (A') (A') (A') (A') (A')
                 (A') (A') (A') (A') (A') (A') (A') (A') (A') (A')
                 (A') (A') (A') (A') (A') (A') (A') (A') (A') (A')
                 (A') (A') (A") (A') (A') (A') (A') (A') (A") (A')
                 (A") (A') (A') (A") (A") (A") (A")
       Virtual   (A") (A") (A") (A") (A") (A') (A') (A') (A') (A")
                 (A") (A') (A') (A') (A") (A') (A') (A') (A') (A')
                 (A") (A") (A') (A') (A') (A") (A') (A') (A") (A')
                 (A') (A') (A') (A") (A') (A') (A") (A') (A') (A')
                 (A") (A') (A') (A") (A') (A') (A') (A') (A") (A')
                 (A') (A") (A") (A') (A') (A') (A') (A") (A") (A')
                 (A') (A') (A') (A') (A') (A') (A") (A') (A') (A")
                 (A') (A') (A') (A') (A') (A') (A') (A') (A') (A')
                 (A') (A') (A') (A') (A') (A') (A') (A') (A') (A')
                 (A') (A') (A') (A') (A') (A') (A') (A") (A") (A')
                 (A') (A") (A') (A") (A') (A") (A") (A') (A') (A")
                 (A') (A") (A') (A') (A") (A') (A') (A") (A") (A')
                 (A") (A") (A') (A') (A') (A") (A') (A') (A') (A")
                 (A') (A') (A') (A') (A') (A') (A") (A') (A') (A')
                 (A') (A') (A') (A') (A') (A') (A') (A') (A') (A")
                 (A") (A') (A") (A") (A') (A') (A') (A") (A") (A')
                 (A") (A') (A") (A") (A") (A') (A') (A') (A') (A')
                 (A') (A") (A') (A') (A") (A') (A') (A') (A') (A')
                 (A") (A') (A') (A') (A") (A') (A") (A') (A") (A")
                 (A") (A') (A') (A') (A") (A') (A') (A") (A') (A')
                 (A") (A") (A") (A') (A') (A") (A") (A') (A') (A')
                 (A") (A') (A") (A") (A') (A') (A") (A') (A') (A')
                 (A") (A') (A') (A') (A") (A') (A') (A') (A") (A")
                 (A') (A') (A') (A") (A') (A') (A") (A') (A") (A')
                 (A") (A') (A') (A') (A') (A") (A') (A') (A') (A")
                 (A') (A') (A') (A") (A") (A') (A") (A') (A') (A')
                 (A') (A") (A') (A") (A') (A') (A") (A') (A") (A')
                 (A') (A') (A') (A') (A") (A') (A") (A") (A') (A')
                 (A") (A') (A") (A") (A') (A") (A') (A') (A') (A')
                 (A') (A') (A') (A') (A') (A') (A') (A') (A') (A')
                 (A') (A') (A') (A') (A") (A') (A') (A') (A') (A')
                 (A') (A') (A') (A') (A') (A') (A') (A') (A') (A')
                 (A') (A') (A') (A') (A') (A') (A') (A') (A') (A')
                 (A') (A')
 The electronic state of the initial guess is 1-A'.
 Requested convergence on RMS density matrix=1.00D-08 within 128 cycles.
 Requested convergence on MAX density matrix=1.00D-06.
 Requested convergence on             energy=1.00D-06.
 No special actions if energy rises.
 SCF Done:  E(RM062X) =  -539.743758720     A.U. after   15 cycles
            NFock= 15  Conv=0.68D-08     -V/T= 2.0041
 DoSCS=F DFT=T ScalE2(SS,OS)=  1.000000  1.000000
 ExpMin= 3.60D-02 ExpMax= 4.56D+03 ExpMxC= 6.82D+02 IAcc=3 IRadAn=         5 AccDes= 0.00D+00
 HarFok:  IExCor=  205 AccDes= 0.00D+00 IRadAn=         5 IDoV=-2 UseB2=F ITyADJ=14
 ICtDFT= 12500011 ScaDFX=  1.000000  1.000000  1.000000  1.000000
 Range of M.O.s used for correlation:    15   379
 NBasis=   385 NAE=    47 NBE=    47 NFC=    14 NFV=     0
 NROrb=    365 NOA=    33 NOB=    33 NVA=   332 NVB=   332

 **** Warning!!: The largest alpha MO coefficient is  0.15133259D+03

 Orbital symmetries:
       Occupied  (A') (A') (A') (A') (A') (A') (A') (A') (A') (A')
                 (A') (A') (A') (A') (A') (A') (A') (A') (A') (A')
                 (A') (A') (A') (A') (A') (A') (A') (A') (A') (A')
                 (A') (A") (A') (A') (A') (A') (A') (A") (A") (A')
                 (A') (A') (A') (A") (A") (A") (A")
       Virtual   (A") (A") (A") (A") (A') (A') (A') (A') (A") (A')
                 (A') (A") (A') (A') (A") (A') (A") (A') (A') (A')
                 (A") (A") (A') (A') (A') (A") (A') (A") (A') (A')
                 (A") (A') (A") (A') (A') (A') (A') (A') (A") (A')
                 (A") (A') (A') (A") (A") (A') (A") (A') (A") (A')
                 (A') (A') (A') (A') (A') (A") (A') (A') (A') (A')
                 (A') (A") (A') (A') (A') (A") (A') (A') (A') (A')
                 (A') (A') (A') (A') (A') (A') (A') (A') (A') (A')
                 (A') (A') (A') (A') (A') (A') (A') (A') (A') (A')
                 (A') (A') (A') (A") (A') (A") (A') (A") (A') (A')
                 (A") (A') (A') (A') (A") (A") (A') (A") (A') (A")
                 (A') (A') (A") (A') (A") (A') (A') (A") (A') (A")
                 (A") (A') (A") (A') (A') (A') (A") (A') (A') (A')
                 (A') (A') (A') (A') (A') (A') (A') (A') (A') (A')
                 (A') (A') (A') (A") (A') (A') (A') (A') (A') (A')
                 (A') (A') (A") (A') (A") (A") (A') (A") (A') (A")
                 (A") (A') (A") (A') (A") (A") (A') (A") (A') (A')
                 (A') (A') (A') (A") (A") (A') (A') (A') (A") (A')
                 (A') (A') (A') (A") (A') (A") (A') (A") (A') (A")
                 (A") (A') (A') (A') (A") (A') (A") (A') (A') (A')
                 (A") (A") (A") (A') (A') (A") (A") (A') (A') (A')
                 (A') (A") (A') (A") (A") (A') (A") (A') (A') (A")
                 (A') (A') (A') (A') (A') (A") (A') (A") (A') (A")
                 (A') (A') (A') (A") (A') (A') (A') (A") (A") (A')
                 (A") (A') (A') (A') (A") (A') (A') (A') (A') (A')
                 (A') (A") (A') (A') (A") (A') (A") (A') (A") (A')
                 (A') (A') (A') (A') (A') (A') (A") (A') (A') (A')
                 (A') (A") (A') (A") (A") (A") (A') (A") (A') (A")
                 (A') (A") (A") (A') (A") (A") (A') (A') (A') (A')
                 (A') (A') (A') (A') (A') (A') (A') (A') (A') (A')
                 (A') (A') (A') (A') (A") (A') (A') (A') (A') (A')
                 (A') (A') (A') (A') (A') (A') (A') (A') (A') (A')
                 (A') (A') (A') (A') (A') (A') (A') (A') (A') (A')
                 (A') (A')
     4 initial guesses have been made.
 Convergence on wavefunction:    0.001000000000000
 Iteration     1 Dimension     4 NMult     0 NNew      4
 CISAX will form     4 AO SS matrices at one time.
 Iteration     2 Dimension     6 NMult     4 NNew      2
 Iteration     3 Dimension     8 NMult     6 NNew      2
 Iteration     4 Dimension    10 NMult     8 NNew      2
 Iteration     5 Dimension    12 NMult    10 NNew      2
 Iteration     6 Dimension    14 NMult    12 NNew      2
 Iteration     7 Dimension    16 NMult    14 NNew      2
 ***********************************************************************
 Excited states from <AA,BB:AA,BB> singles matrix:
 ***********************************************************************
 
 Ground to excited state transition densities written to RWF  633
 Ground to excited state transition electric dipole moments (Au):
       state          X           Y           Z        Dip. S.      Osc.
         1        -0.6401     -0.0744      0.0000      0.4153      0.0284
 Ground to excited state transition velocity dipole moments (Au):
       state          X           Y           Z        Dip. S.      Osc.
         1         0.0727      0.0098      0.0000      0.0054      0.0350
 Ground to excited state transition magnetic dipole moments (Au):
       state          X           Y           Z
         1         0.0000     -0.0000      0.2995
 Ground to excited state transition velocity quadrupole moments (Au):
       state          XX          YY          ZZ          XY          XZ          YZ
         1        -0.0520     -0.2601      0.0099      0.0768      0.0000      0.0000
 <0|del|b> * <b|rxdel|0> + <0|del|b> * <b|delr+rdel|0>
 Rotatory Strengths (R) in cgs (10**-40 erg-esu-cm/Gauss)
       state          XX          YY          ZZ    R(velocity)    E-M Angle
         1         0.0000      0.0000      0.0000      0.0000       90.00
 1/2[<0|r|b>*<b|rxdel|0> + (<0|rxdel|b>*<b|r|0>)*]
 Rotatory Strengths (R) in cgs (10**-40 erg-esu-cm/Gauss)
       state          XX          YY          ZZ     R(length)
         1         0.0000     -0.0000     -0.0000     -0.0000
  1/2[<0|del|b>*<b|r|0> + (<0|r|b>*<b|del|0>)*] (Au)
       state          X           Y           Z        Dip. S.   Osc.(frdel)
         1        -0.0466     -0.0007      0.0000      0.0473      0.0315

 Excitation energies and oscillator strengths:
 
 Excited State   1:      Singlet-A'     2.7888 eV  444.58 nm  f=0.0284  <S**2>=0.000
      47 -> 48         0.69994
 This state for optimization and/or second-order correction.
 Total Energy, E(TD-HF/TD-DFT) =  -539.641272737    
 Copying the excited state density for this state as the 1-particle RhoCI density.
 SavETr:  write IOETrn=   770 NScale= 10 NData=  16 NLR=1 NState=    1 LETran=      28.

 **********************************************************************

            Population analysis using the SCF Density.

 **********************************************************************

 Orbital symmetries:
       Occupied  (A') (A') (A') (A') (A') (A') (A') (A') (A') (A')
                 (A') (A') (A') (A') (A') (A') (A') (A') (A') (A')
                 (A') (A') (A') (A') (A') (A') (A') (A') (A') (A')
                 (A') (A") (A') (A') (A') (A') (A') (A") (A") (A')
                 (A') (A') (A') (A") (A") (A") (A")
       Virtual   (A") (A") (A") (A") (A') (A') (A') (A') (A") (A')
                 (A') (A") (A') (A') (A") (A') (A") (A') (A') (A')
                 (A") (A") (A') (A') (A') (A") (A') (A") (A') (A')
                 (A") (A') (A") (A') (A') (A') (A') (A') (A") (A')
                 (A") (A') (A') (A") (A") (A') (A") (A') (A") (A')
                 (A') (A') (A') (A') (A') (A") (A') (A') (A') (A')
                 (A') (A") (A') (A') (A') (A") (A') (A') (A') (A')
                 (A') (A') (A') (A') (A') (A') (A') (A') (A') (A')
                 (A') (A') (A') (A') (A') (A') (A') (A') (A') (A')
                 (A') (A') (A') (A") (A') (A") (A') (A") (A') (A')
                 (A") (A') (A') (A') (A") (A") (A') (A") (A') (A")
                 (A') (A') (A") (A') (A") (A') (A') (A") (A') (A")
                 (A") (A') (A") (A') (A') (A') (A") (A') (A') (A')
                 (A') (A') (A') (A') (A') (A') (A') (A') (A') (A')
                 (A') (A') (A') (A") (A') (A') (A') (A') (A') (A')
                 (A') (A') (A") (A') (A") (A") (A') (A") (A') (A")
                 (A") (A') (A") (A') (A") (A") (A') (A") (A') (A')
                 (A') (A') (A') (A") (A") (A') (A') (A') (A") (A')
                 (A') (A') (A') (A") (A') (A") (A') (A") (A') (A")
                 (A") (A') (A') (A') (A") (A') (A") (A') (A') (A')
                 (A") (A") (A") (A') (A') (A") (A") (A') (A') (A')
                 (A') (A") (A') (A") (A") (A') (A") (A') (A') (A")
                 (A') (A') (A') (A') (A') (A") (A') (A") (A') (A")
                 (A') (A') (A') (A") (A') (A') (A') (A") (A") (A')
                 (A") (A') (A') (A') (A") (A') (A') (A') (A') (A')
                 (A') (A") (A') (A') (A") (A') (A") (A') (A") (A')
                 (A') (A') (A') (A') (A') (A') (A") (A') (A') (A')
                 (A') (A") (A') (A") (A") (A") (A') (A") (A') (A")
                 (A') (A") (A") (A') (A") (A") (A') (A') (A') (A')
                 (A') (A') (A') (A') (A') (A') (A') (A') (A') (A')
                 (A') (A') (A') (A') (A") (A') (A') (A') (A') (A')
                 (A') (A') (A') (A') (A') (A') (A') (A') (A') (A')
                 (A') (A') (A') (A') (A') (A') (A') (A') (A') (A')
                 (A') (A')
 The electronic state is 1-A'.
 Alpha  occ. eigenvalues --  -10.77447 -10.74147 -10.72820 -10.72597 -10.72423
 Alpha  occ. eigenvalues --  -10.72171 -10.71845 -10.70973 -10.70629 -10.70489
 Alpha  occ. eigenvalues --  -10.70259 -10.69648 -10.69302 -10.68820  -1.16535
 Alpha  occ. eigenvalues --   -1.12491  -1.07119  -1.06058  -1.01165  -1.00112
 Alpha  occ. eigenvalues --   -0.95860  -0.91268  -0.86302  -0.85800  -0.83660
 Alpha  occ. eigenvalues --   -0.78450  -0.76050  -0.74387  -0.70424  -0.69087
 Alpha  occ. eigenvalues --   -0.68420  -0.68172  -0.67616  -0.65127  -0.63852
 Alpha  occ. eigenvalues --   -0.62784  -0.61768  -0.60185  -0.59628  -0.59626
 Alpha  occ. eigenvalues --   -0.56616  -0.55232  -0.54036  -0.52578  -0.46729
 Alpha  occ. eigenvalues --   -0.46133  -0.44317
 Alpha virt. eigenvalues --   -0.26170  -0.14768  -0.13892  -0.12659  -0.11202
 Alpha virt. eigenvalues --   -0.10112  -0.09277  -0.07995  -0.07878  -0.07470
 Alpha virt. eigenvalues --   -0.07217  -0.07105  -0.05643  -0.05586  -0.05381
 Alpha virt. eigenvalues --   -0.03864  -0.03664  -0.03304  -0.03123  -0.02142
 Alpha virt. eigenvalues --   -0.01361  -0.00933   0.00151   0.00461   0.00585
 Alpha virt. eigenvalues --    0.01030   0.01500   0.01767   0.02022   0.02265
 Alpha virt. eigenvalues --    0.02470   0.02699   0.02947   0.03095   0.03579
 Alpha virt. eigenvalues --    0.04219   0.04671   0.04808   0.05060   0.05349
 Alpha virt. eigenvalues --    0.06054   0.06252   0.06575   0.07052   0.07260
 Alpha virt. eigenvalues --    0.07856   0.07959   0.08226   0.08805   0.08828
 Alpha virt. eigenvalues --    0.09207   0.09409   0.09803   0.10333   0.10969
 Alpha virt. eigenvalues --    0.11139   0.11842   0.12182   0.12721   0.13095
 Alpha virt. eigenvalues --    0.13389   0.13548   0.13966   0.14935   0.15645
 Alpha virt. eigenvalues --    0.16380   0.16452   0.17297   0.17768   0.18073
 Alpha virt. eigenvalues --    0.18132   0.18697   0.19367   0.19750   0.20004
 Alpha virt. eigenvalues --    0.21456   0.21568   0.22711   0.23153   0.23450
 Alpha virt. eigenvalues --    0.23962   0.24721   0.25943   0.26938   0.27838
 Alpha virt. eigenvalues --    0.28576   0.29670   0.30189   0.31628   0.34683
 Alpha virt. eigenvalues --    0.37287   0.38066   0.39082   0.41173   0.41306
 Alpha virt. eigenvalues --    0.42049   0.42084   0.43071   0.43611   0.43997
 Alpha virt. eigenvalues --    0.44380   0.45206   0.46300   0.47158   0.47863
 Alpha virt. eigenvalues --    0.48419   0.48771   0.48913   0.50488   0.50509
 Alpha virt. eigenvalues --    0.51592   0.51744   0.52218   0.53230   0.54070
 Alpha virt. eigenvalues --    0.54274   0.54545   0.55683   0.56129   0.57426
 Alpha virt. eigenvalues --    0.58226   0.58965   0.61463   0.61830   0.62857
 Alpha virt. eigenvalues --    0.63534   0.63689   0.64705   0.65367   0.66846
 Alpha virt. eigenvalues --    0.70322   0.70754   0.70981   0.72079   0.72615
 Alpha virt. eigenvalues --    0.75553   0.76030   0.76183   0.77066   0.77156
 Alpha virt. eigenvalues --    0.77448   0.78242   0.78344   0.79934   0.80362
 Alpha virt. eigenvalues --    0.81061   0.82086   0.82482   0.83242   0.84953
 Alpha virt. eigenvalues --    0.87259   0.88172   0.88619   0.89296   0.90152
 Alpha virt. eigenvalues --    0.91164   0.91223   0.93622   0.94680   0.96280
 Alpha virt. eigenvalues --    0.97014   1.00675   1.00948   1.01063   1.03057
 Alpha virt. eigenvalues --    1.03445   1.03919   1.05225   1.05411   1.09132
 Alpha virt. eigenvalues --    1.18968   1.22908   1.23603   1.24459   1.28722
 Alpha virt. eigenvalues --    1.28993   1.32405   1.34528   1.35989   1.36090
 Alpha virt. eigenvalues --    1.38189   1.40707   1.41223   1.42392   1.43677
 Alpha virt. eigenvalues --    1.44004   1.44798   1.45493   1.45556   1.47008
 Alpha virt. eigenvalues --    1.47969   1.48294   1.51685   1.53457   1.53578
 Alpha virt. eigenvalues --    1.55833   1.55847   1.57468   1.58940   1.61584
 Alpha virt. eigenvalues --    1.62706   1.62982   1.64104   1.65961   1.67772
 Alpha virt. eigenvalues --    1.67800   1.69284   1.69379   1.74310   1.76370
 Alpha virt. eigenvalues --    1.76847   1.78764   1.79726   1.79973   1.81513
 Alpha virt. eigenvalues --    1.82679   1.83334   1.83443   1.84317   1.84511
 Alpha virt. eigenvalues --    1.85321   1.85684   1.86458   1.88047   1.90916
 Alpha virt. eigenvalues --    1.91171   1.94765   1.96948   1.97030   1.99039
 Alpha virt. eigenvalues --    1.99511   2.02837   2.04820   2.07129   2.11667
 Alpha virt. eigenvalues --    2.12382   2.14517   2.15173   2.19143   2.21071
 Alpha virt. eigenvalues --    2.23426   2.28127   2.29848   2.34197   2.34641
 Alpha virt. eigenvalues --    2.35631   2.37988   2.39730   2.41237   2.44751
 Alpha virt. eigenvalues --    2.46078   2.46147   2.48306   2.54239   2.54393
 Alpha virt. eigenvalues --    2.55207   2.56353   2.57769   2.58323   2.58959
 Alpha virt. eigenvalues --    2.59790   2.60061   2.61296   2.63226   2.63780
 Alpha virt. eigenvalues --    2.64961   2.65119   2.65728   2.65947   2.67918
 Alpha virt. eigenvalues --    2.70709   2.70824   2.71857   2.73502   2.74777
 Alpha virt. eigenvalues --    2.76287   2.78906   2.79816   2.81677   2.83228
 Alpha virt. eigenvalues --    2.85788   2.86250   2.92268   2.96807   2.97943
 Alpha virt. eigenvalues --    3.01551   3.03395   3.10707   3.10995   3.14330
 Alpha virt. eigenvalues --    3.17620   3.22904   3.26537   3.28970   3.30816
 Alpha virt. eigenvalues --    3.33620   3.36558   3.41776   3.44973   3.46363
 Alpha virt. eigenvalues --    3.47867   3.52827   3.56801   3.64566   3.66088
 Alpha virt. eigenvalues --    3.72530   3.93400   3.93605   3.95526   3.95786
 Alpha virt. eigenvalues --    4.03066   4.05076   4.07921   4.11815   4.34506
 Alpha virt. eigenvalues --    4.59475   4.66264   4.72845  23.44649  23.58014
 Alpha virt. eigenvalues --   23.74128  23.80985  23.83568  23.91441  23.93766
 Alpha virt. eigenvalues --   23.94365  23.99990  24.01902  24.06210  24.08922
 Alpha virt. eigenvalues --   24.12219  24.15646
          Condensed to atoms (all electrons):
               1          2          3          4          5          6
     1  C    9.176899  -0.352251  -0.290442   2.564092  -0.316469  -0.105344
     2  C   -0.352251   7.615307   0.082666  -1.531085   0.074190  -0.016228
     3  C   -0.290442   0.082666   6.518425   1.098689  -0.177318   0.017801
     4  C    2.564092  -1.531085   1.098689  10.558837  -0.894960  -0.116408
     5  C   -0.316469   0.074190  -0.177318  -0.894960  14.926872   0.734163
     6  C   -0.105344  -0.016228   0.017801  -0.116408   0.734163   6.702750
     7  C    0.046601  -0.009996  -0.009682   0.022908  -1.448914   0.444924
     8  C    0.363122  -0.018840  -0.109874  -0.016757   3.215473  -0.584850
     9  C   -0.442729  -0.915783   0.324650  -0.013695   0.040636   0.283800
    10  C   -1.367458   0.274471  -0.292449  -2.239663  -3.051423  -0.244187
    11  C    0.533475  -1.060787   1.047004   1.345616  -1.747350  -0.276249
    12  C   -3.920135   2.488923  -1.755289  -3.731170  -0.045869   0.007709
    13  C    0.889240  -0.543349  -0.034405  -0.295881  -3.046005   0.515797
    14  C   -1.250482   0.063735  -0.321986  -0.926836  -2.700495  -1.249779
    15  H    0.379128  -0.111722   0.009003   0.027229   0.003688   0.001282
    16  H   -0.021653   0.386396  -0.016546   0.014601  -0.001468  -0.000375
    17  H   -0.037049  -0.008773   0.383653  -0.083525  -0.000175   0.000467
    18  H    0.058154  -0.000580  -0.079920   0.468974  -0.002131  -0.005272
    19  H   -0.037611  -0.008875   0.053760  -0.024732  -0.116058   0.046487
    20  H    0.005852   0.003031  -0.005276   0.002121   0.492873  -0.084302
    21  H   -0.001065  -0.000417   0.000342   0.000331  -0.071428   0.371884
    22  H    0.001042   0.000345  -0.000256  -0.000924   0.001720  -0.019308
    23  H    0.001884  -0.001812   0.000686   0.002664   0.050289  -0.007525
    24  H    0.041691   0.012983  -0.000147  -0.004237  -0.020561  -0.002903
    25  H    0.041691   0.012983  -0.000147  -0.004237  -0.020561  -0.002903
               7          8          9         10         11         12
     1  C    0.046601   0.363122  -0.442729  -1.367458   0.533475  -3.920135
     2  C   -0.009996  -0.018840  -0.915783   0.274471  -1.060787   2.488923
     3  C   -0.009682  -0.109874   0.324650  -0.292449   1.047004  -1.755289
     4  C    0.022908  -0.016757  -0.013695  -2.239663   1.345616  -3.731170
     5  C   -1.448914   3.215473   0.040636  -3.051423  -1.747350  -0.045869
     6  C    0.444924  -0.584850   0.283800  -0.244187  -0.276249   0.007709
     7  C    7.244327  -0.101801  -1.012631   0.292577  -0.221402  -0.267404
     8  C   -0.101801   9.541527  -1.009945  -1.545774  -0.008770  -1.045178
     9  C   -1.012631  -1.009945   9.869396   0.340258   1.542947  -2.160208
    10  C    0.292577  -1.545774   0.340258   8.590053  -0.274308   2.597205
    11  C   -0.221402  -0.008770   1.542947  -0.274308  12.294571  -3.229560
    12  C   -0.267404  -1.045178  -2.160208   2.597205  -3.229560  17.671210
    13  C   -0.009317  -0.754378   0.800321   0.308562   0.075726  -4.756335
    14  C    1.101147  -2.430806  -2.140852   2.170727  -3.506753   3.347879
    15  H   -0.001783   0.007210   0.087834  -0.005693  -0.042356  -0.038076
    16  H    0.000310   0.000467  -0.002746  -0.008211   0.010459  -0.016242
    17  H   -0.000365  -0.001635  -0.004001   0.016515  -0.018885   0.102060
    18  H    0.001968   0.006432  -0.018816  -0.007182   0.028433  -0.088611
    19  H   -0.006073  -0.058130   0.076615   0.420767   0.069301  -0.041371
    20  H   -0.001652   0.062899  -0.024280   0.007089  -0.006655  -0.021737
    21  H   -0.015314  -0.031247  -0.007505   0.017238  -0.006862   0.005683
    22  H    0.385202  -0.034744   0.000918  -0.004518   0.003453  -0.008647
    23  H   -0.125223   0.392397   0.104498  -0.014612   0.004649   0.008540
    24  H    0.015250   0.019959   0.357408   0.005310  -0.001066  -0.051247
    25  H    0.015250   0.019959   0.357408   0.005310  -0.001066  -0.051247
              13         14         15         16         17         18
     1  C    0.889240  -1.250482   0.379128  -0.021653  -0.037049   0.058154
     2  C   -0.543349   0.063735  -0.111722   0.386396  -0.008773  -0.000580
     3  C   -0.034405  -0.321986   0.009003  -0.016546   0.383653  -0.079920
     4  C   -0.295881  -0.926836   0.027229   0.014601  -0.083525   0.468974
     5  C   -3.046005  -2.700495   0.003688  -0.001468  -0.000175  -0.002131
     6  C    0.515797  -1.249779   0.001282  -0.000375   0.000467  -0.005272
     7  C   -0.009317   1.101147  -0.001783   0.000310  -0.000365   0.001968
     8  C   -0.754378  -2.430806   0.007210   0.000467  -0.001635   0.006432
     9  C    0.800321  -2.140852   0.087834  -0.002746  -0.004001  -0.018816
    10  C    0.308562   2.170727  -0.005693  -0.008211   0.016515  -0.007182
    11  C    0.075726  -3.506753  -0.042356   0.010459  -0.018885   0.028433
    12  C   -4.756335   3.347879  -0.038076  -0.016242   0.102060  -0.088611
    13  C   15.542684  -2.095275   0.010290   0.000667  -0.005761  -0.006610
    14  C   -2.095275  15.616104  -0.002542  -0.007494   0.003752  -0.021810
    15  H    0.010290  -0.002542   0.453104  -0.010499   0.001681  -0.000139
    16  H    0.000667  -0.007494  -0.010499   0.424983  -0.007356   0.002154
    17  H   -0.005761   0.003752   0.001681  -0.007356   0.431256  -0.012973
    18  H   -0.006610  -0.021810  -0.000139   0.002154  -0.012973   0.455975
    19  H    0.075230  -0.076448   0.000370  -0.000629   0.001704  -0.004982
    20  H   -0.011018  -0.082337  -0.000140   0.000026  -0.000178   0.001072
    21  H   -0.018884   0.097621   0.000013  -0.000007   0.000011  -0.000122
    22  H    0.032085  -0.020182  -0.000136   0.000008  -0.000007   0.000013
    23  H   -0.060605  -0.024641   0.000458  -0.000129   0.000014  -0.000097
    24  H    0.025518  -0.062377  -0.001238   0.000613  -0.000114   0.000145
    25  H    0.025518  -0.062377  -0.001238   0.000613  -0.000114   0.000145
              19         20         21         22         23         24
     1  C   -0.037611   0.005852  -0.001065   0.001042   0.001884   0.041691
     2  C   -0.008875   0.003031  -0.000417   0.000345  -0.001812   0.012983
     3  C    0.053760  -0.005276   0.000342  -0.000256   0.000686  -0.000147
     4  C   -0.024732   0.002121   0.000331  -0.000924   0.002664  -0.004237
     5  C   -0.116058   0.492873  -0.071428   0.001720   0.050289  -0.020561
     6  C    0.046487  -0.084302   0.371884  -0.019308  -0.007525  -0.002903
     7  C   -0.006073  -0.001652  -0.015314   0.385202  -0.125223   0.015250
     8  C   -0.058130   0.062899  -0.031247  -0.034744   0.392397   0.019959
     9  C    0.076615  -0.024280  -0.007505   0.000918   0.104498   0.357408
    10  C    0.420767   0.007089   0.017238  -0.004518  -0.014612   0.005310
    11  C    0.069301  -0.006655  -0.006862   0.003453   0.004649  -0.001066
    12  C   -0.041371  -0.021737   0.005683  -0.008647   0.008540  -0.051247
    13  C    0.075230  -0.011018  -0.018884   0.032085  -0.060605   0.025518
    14  C   -0.076448  -0.082337   0.097621  -0.020182  -0.024641  -0.062377
    15  H    0.000370  -0.000140   0.000013  -0.000136   0.000458  -0.001238
    16  H   -0.000629   0.000026  -0.000007   0.000008  -0.000129   0.000613
    17  H    0.001704  -0.000178   0.000011  -0.000007   0.000014  -0.000114
    18  H   -0.004982   0.001072  -0.000122   0.000013  -0.000097   0.000145
    19  H    0.443937  -0.007072   0.001235  -0.000411   0.000191   0.000613
    20  H   -0.007072   0.456662  -0.008463   0.001497   0.000451   0.000227
    21  H    0.001235  -0.008463   0.413739  -0.005403   0.000971  -0.000149
    22  H   -0.000411   0.001497  -0.005403   0.414381  -0.007989   0.000660
    23  H    0.000191   0.000451   0.000971  -0.007989   0.430300  -0.000590
    24  H    0.000613   0.000227  -0.000149   0.000660  -0.000590   0.495265
    25  H    0.000613   0.000227  -0.000149   0.000660  -0.000590  -0.080196
              25
     1  C    0.041691
     2  C    0.012983
     3  C   -0.000147
     4  C   -0.004237
     5  C   -0.020561
     6  C   -0.002903
     7  C    0.015250
     8  C    0.019959
     9  C    0.357408
    10  C    0.005310
    11  C   -0.001066
    12  C   -0.051247
    13  C    0.025518
    14  C   -0.062377
    15  H   -0.001238
    16  H    0.000613
    17  H   -0.000114
    18  H    0.000145
    19  H    0.000613
    20  H    0.000227
    21  H   -0.000149
    22  H    0.000660
    23  H   -0.000590
    24  H   -0.080196
    25  H    0.495265
 Mulliken charges:
               1
     1  C    0.039817
     2  C   -0.434531
     3  C   -0.442941
     4  C   -0.221953
     5  C    0.121283
     6  C   -0.411428
     7  C   -0.338908
     8  C    0.123282
     9  C   -0.433497
    10  C    0.009398
    11  C   -0.553563
    12  C    0.999115
    13  C   -0.663814
    14  C    0.582507
    15  H    0.234272
    16  H    0.252057
    17  H    0.239797
    18  H    0.225779
    19  H    0.191569
    20  H    0.219082
    21  H    0.257950
    22  H    0.260539
    23  H    0.245823
    24  H    0.249182
    25  H    0.249182
 Sum of Mulliken charges =   1.00000
 Mulliken charges with hydrogens summed into heavy atoms:
               1
     1  C    0.274090
     2  C   -0.182474
     3  C   -0.203144
     4  C    0.003826
     5  C    0.340365
     6  C   -0.153479
     7  C   -0.078369
     8  C    0.369105
     9  C    0.064868
    10  C    0.200967
    11  C   -0.553563
    12  C    0.999115
    13  C   -0.663814
    14  C    0.582507
 Electronic spatial extent (au):  <R**2>=           2856.1216
 Charge=              1.0000 electrons
 Dipole moment (field-independent basis, Debye):
    X=              0.5102    Y=             -1.4066    Z=             -0.0000  Tot=              1.4963
 Quadrupole moment (field-independent basis, Debye-Ang):
   XX=            -50.2599   YY=            -37.0556   ZZ=            -84.1092
   XY=            -10.8712   XZ=             -0.0000   YZ=             -0.0000
 Traceless Quadrupole moment (field-independent basis, Debye-Ang):
   XX=              6.8817   YY=             20.0859   ZZ=            -26.9676
   XY=            -10.8712   XZ=             -0.0000   YZ=             -0.0000
 Octapole moment (field-independent basis, Debye-Ang**2):
  XXX=              2.3474  YYY=            -13.2676  ZZZ=             -0.0000  XYY=              9.4455
  XXY=            -10.0158  XXZ=             -0.0000  XZZ=              3.3193  YZZ=              0.2623
  YYZ=             -0.0000  XYZ=             -0.0000
 Hexadecapole moment (field-independent basis, Debye-Ang**3):
 XXXX=           -960.3968 YYYY=          -1888.7069 ZZZZ=            -99.2293 XXXY=            333.5048
 XXXZ=             -0.0000 YYYX=            262.2654 YYYZ=             -0.0000 ZZZX=             -0.0000
 ZZZY=             -0.0000 XXYY=           -449.1052 XXZZ=           -237.7367 YYZZ=           -498.8222
 XXYZ=             -0.0000 YYXZ=             -0.0000 ZZXY=            180.1552
 N-N= 7.812862112455D+02 E-N=-2.798944562681D+03  KE= 5.375600735085D+02
 Symmetry A'   KE= 5.228917043994D+02
 Symmetry A"   KE= 1.466836910918D+01
 Unable to Open any file for archive entry.
 1\1\GINC-GADI-CPU-CLX-1538\SP\RM062X TD-FC\6-311++G(d,p)\C14H11(1+)\TS
 1578\27-Jul-2022\0\\#n M062X/6-311++G(d,p) TD(NStates=1) EmpiricalDisp
 ersion=GD3 SP\\SP_2\\1,1\C,0,0.,2.508655,1.362431\C,0,0.,3.689508,0.66
 9989\C,0,0.,3.679861,-0.71583\C,0,0.,2.467156,-1.413538\C,0,0.,-2.4591
 56,-1.401538\C,0,0.,-3.687861,-0.71183\C,0,0.,-3.713508,0.673989\C,0,0
 .,-2.476655,1.358431\C,0,0.,-0.016,1.453369\C,0,0.,-0.032,-1.429189\C,
 0,0.,1.272055,0.647065\C,0,0.,1.255471,-0.694804\C,0,0.,-1.252055,0.70
 7065\C,0,0.,-1.219471,-0.766804\H,0,0.,2.426071,2.443647\H,0,0.,4.6047
 53,1.241689\H,0,0.,4.581262,-1.312349\H,0,0.,2.53755,-2.494059\H,0,0.,
 0.03,-2.510266\H,0,0.,-2.39755,-2.486059\H,0,0.,-4.637262,-1.232349\H,
 0,0.,-4.668753,1.181689\H,0,0.,-2.550071,2.443647\H,0,-0.859585,-0.052
 ,2.145787\H,0,0.859585,-0.052,2.145787\\Version=ES64L-G16RevC.01\State
 =1-A'\HF=-539.7437587\RMSD=6.785e-09\PG=CS [SG(C14H9),X(H2)]\\@
 The archive entry for this job was punched.


 IT IS A CAPITAL MISTAKE TO THEORIZE BEFORE ONE HAS
 DATA.  INSENSIBLY ONE BEGINS TO TWIST FACTS TO SUIT
 THEORIES RATHER THAN THEORIES TO SUIT FACTS.

                                         -- SHERLOCK HOLMES
 Job cpu time:       0 days  0 hours 50 minutes 13.8 seconds.
 Elapsed time:       0 days  0 hours  1 minutes 37.0 seconds.
 File lengths (MBytes):  RWF=    460 Int=      0 D2E=      0 Chk=     15 Scr=      1
 Normal termination of Gaussian 16 at Wed Jul 27 11:47:34 2022.
