 Entering Gaussian System, Link 0=g16
 Initial command:
 /apps/gaussian/g16c01/g16/l1.exe "/jobfs/51181315.gadi-pbs/Gau-460405.inp" -scrdir="/jobfs/51181315.gadi-pbs/"
 Entering Link 1 = /apps/gaussian/g16c01/g16/l1.exe PID=    460457.
  
 Copyright (c) 1988-2019, Gaussian, Inc.  All Rights Reserved.
  
 This is part of the Gaussian(R) 16 program.  It is based on
 the Gaussian(R) 09 system (copyright 2009, Gaussian, Inc.),
 the Gaussian(R) 03 system (copyright 2003, Gaussian, Inc.),
 the Gaussian(R) 98 system (copyright 1998, Gaussian, Inc.),
 the Gaussian(R) 94 system (copyright 1995, Gaussian, Inc.),
 the Gaussian 92(TM) system (copyright 1992, Gaussian, Inc.),
 the Gaussian 90(TM) system (copyright 1990, Gaussian, Inc.),
 the Gaussian 88(TM) system (copyright 1988, Gaussian, Inc.),
 the Gaussian 86(TM) system (copyright 1986, Carnegie Mellon
 University), and the Gaussian 82(TM) system (copyright 1983,
 Carnegie Mellon University). Gaussian is a federally registered
 trademark of Gaussian, Inc.
  
 This software contains proprietary and confidential information,
 including trade secrets, belonging to Gaussian, Inc.
  
 This software is provided under written license and may be
 used, copied, transmitted, or stored only in accord with that
 written license.
  
 The following legend is applicable only to US Government
 contracts under FAR:
  
                    RESTRICTED RIGHTS LEGEND
  
 Use, reproduction and disclosure by the US Government is
 subject to restrictions as set forth in subparagraphs (a)
 and (c) of the Commercial Computer Software - Restricted
 Rights clause in FAR 52.227-19.
  
 Gaussian, Inc.
 340 Quinnipiac St., Bldg. 40, Wallingford CT 06492
  
  
 ---------------------------------------------------------------
 Warning -- This program may not be used in any manner that
 competes with the business of Gaussian, Inc. or will provide
 assistance to any competitor of Gaussian, Inc.  The licensee
 of this program is prohibited from giving any competitor of
 Gaussian, Inc. access to this program.  By using this program,
 the user acknowledges that Gaussian, Inc. is engaged in the
 business of creating and licensing software in the field of
 computational chemistry and represents and warrants to the
 licensee that it is not a competitor of Gaussian, Inc. and that
 it will not use this program in any manner prohibited above.
 ---------------------------------------------------------------
  

 Cite this work as:
 Gaussian 16, Revision C.01,
 M. J. Frisch, G. W. Trucks, H. B. Schlegel, G. E. Scuseria, 
 M. A. Robb, J. R. Cheeseman, G. Scalmani, V. Barone, 
 G. A. Petersson, H. Nakatsuji, X. Li, M. Caricato, A. V. Marenich, 
 J. Bloino, B. G. Janesko, R. Gomperts, B. Mennucci, H. P. Hratchian, 
 J. V. Ortiz, A. F. Izmaylov, J. L. Sonnenberg, D. Williams-Young, 
 F. Ding, F. Lipparini, F. Egidi, J. Goings, B. Peng, A. Petrone, 
 T. Henderson, D. Ranasinghe, V. G. Zakrzewski, J. Gao, N. Rega, 
 G. Zheng, W. Liang, M. Hada, M. Ehara, K. Toyota, R. Fukuda, 
 J. Hasegawa, M. Ishida, T. Nakajima, Y. Honda, O. Kitao, H. Nakai, 
 T. Vreven, K. Throssell, J. A. Montgomery, Jr., J. E. Peralta, 
 F. Ogliaro, M. J. Bearpark, J. J. Heyd, E. N. Brothers, K. N. Kudin, 
 V. N. Staroverov, T. A. Keith, R. Kobayashi, J. Normand, 
 K. Raghavachari, A. P. Rendell, J. C. Burant, S. S. Iyengar, 
 J. Tomasi, M. Cossi, J. M. Millam, M. Klene, C. Adamo, R. Cammi, 
 J. W. Ochterski, R. L. Martin, K. Morokuma, O. Farkas, 
 J. B. Foresman, and D. J. Fox, Gaussian, Inc., Wallingford CT, 2019.
 
 ******************************************
 Gaussian 16:  ES64L-G16RevC.01  3-Jul-2019
                14-Jul-2022 
 ******************************************
 %NProcShared=8
 Will use up to    8 processors via shared memory.
 %mem = 32GB
 %Chk=check_ts2
 ---------------------------------------------------------
 #n wB97XD/6-311++G(d,p) TD Opt=(TS,CalcAll) Geom=AllCheck
 ---------------------------------------------------------
 1/5=1,10=4,18=20,26=3,29=7,38=1/1,3;
 2/9=110,12=2,40=1/2;
 3/5=4,6=6,7=1111,11=9,14=-4,25=1,30=1,71=2,74=-58,140=1/1,2,3,8;
 4//1;
 5/5=2,38=5/2;
 8/6=1,10=2/1;
 9/15=3,42=1,70=2/14;
 10/5=2004,20=4/2;
 11/6=1,8=1,12=-1,16=1,42=3/1,2,10;
 10/6=3,21=1/2,14;
 6/7=2,8=2,9=2,10=2,18=1/1;
 7/10=1,12=6,13=8,25=1,44=2/1,2,3,16;
 1/5=1,10=4,18=20,26=3/3(3);
 2/9=110/2;
 7/8=1,9=1,25=1,44=-1/16;
 99//99;
 2/9=110/2;
 3/5=4,6=6,7=1111,11=9,14=-2,25=1,30=1,71=2,74=-58,140=1/1,2,3,8;
 4/5=5,16=3,69=1/1;
 5/5=2,38=5/2;
 8/6=1,10=2/1;
 9/15=3,42=1,49=4,70=2/14;
 10/5=2004,20=4/2;
 11/6=1,8=1,12=-1,16=1,42=3/1,2,10;
 10/6=3,21=1/2,14;
 7/10=1,12=6,13=8,25=1,44=2/1,2,3,16;
 1/5=1,10=4,18=20,26=3/3(-10);
 2/9=110/2;
 6/7=2,8=2,9=2,10=2,18=1/1;
 7/8=1,9=1,25=1,44=-1/16;
 99//99;
 Structure from the checkpoint file:  "check_ts2.chk"
 -----
 Title
 -----
 Charge =  1 Multiplicity = 1
 Redundant internal coordinates found in file.  (old form).
 C,0,2.4984910981,1.3643128044,0.
 C,0,3.7099637058,0.6737576552,0.
 C,0,3.6924998722,-0.7155970055,0.
 C,0,2.4689064181,-1.4110757273,0.
 C,0,-2.4689064181,-1.4110757273,0.
 C,0,-3.6924998722,-0.7155970055,0.
 C,0,-3.7099637058,0.6737576552,0.
 C,0,-2.4984910981,1.3643128044,0.
 C,0,0.,1.4581909926,0.
 C,0,0.,-1.4330151119,0.
 C,0,1.2646224239,0.6788469673,0.
 C,0,1.2405627967,-0.731945672,0.
 C,0,-1.2646224239,0.6788469673,0.
 C,0,-1.2405627967,-0.731945672,0.
 H,0,2.4950186689,2.4496496806,0.
 H,0,4.6471433277,1.214442359,0.
 H,0,4.6198553083,-1.2750782382,0.
 H,0,2.4735871642,-2.4957161695,0.
 H,0,0.,-2.5160591879,0.
 H,0,-2.4735871642,-2.4957161695,0.
 H,0,-4.6198553083,-1.2750782382,0.
 H,0,-4.6471433277,1.214442359,0.
 H,0,-2.4950186689,2.4496496806,0.
 H,0,0.,2.1481944991,-0.8637696164
 H,0,0.,2.1481944991,0.8637696164
 Recover connectivity data from disk.

 GradGradGradGradGradGradGradGradGradGradGradGradGradGradGradGradGradGrad
 Berny optimization.
 Initialization pass.
                           ----------------------------
                           !    Initial Parameters    !
                           ! (Angstroms and Degrees)  !
 --------------------------                            --------------------------
 ! Name  Definition              Value          Derivative Info.                !
 --------------------------------------------------------------------------------
 ! R1    R(1,2)                  1.3945         calculate D2E/DX2 analytically  !
 ! R2    R(1,11)                 1.4115         calculate D2E/DX2 analytically  !
 ! R3    R(1,15)                 1.0853         calculate D2E/DX2 analytically  !
 ! R4    R(2,3)                  1.3895         calculate D2E/DX2 analytically  !
 ! R5    R(2,16)                 1.082          calculate D2E/DX2 analytically  !
 ! R6    R(3,4)                  1.4074         calculate D2E/DX2 analytically  !
 ! R7    R(3,17)                 1.0831         calculate D2E/DX2 analytically  !
 ! R8    R(4,12)                 1.4036         calculate D2E/DX2 analytically  !
 ! R9    R(4,18)                 1.0847         calculate D2E/DX2 analytically  !
 ! R10   R(5,6)                  1.4074         calculate D2E/DX2 analytically  !
 ! R11   R(5,14)                 1.4036         calculate D2E/DX2 analytically  !
 ! R12   R(5,20)                 1.0847         calculate D2E/DX2 analytically  !
 ! R13   R(6,7)                  1.3895         calculate D2E/DX2 analytically  !
 ! R14   R(6,21)                 1.0831         calculate D2E/DX2 analytically  !
 ! R15   R(7,8)                  1.3945         calculate D2E/DX2 analytically  !
 ! R16   R(7,22)                 1.082          calculate D2E/DX2 analytically  !
 ! R17   R(8,13)                 1.4115         calculate D2E/DX2 analytically  !
 ! R18   R(8,23)                 1.0853         calculate D2E/DX2 analytically  !
 ! R19   R(9,11)                 1.4855         calculate D2E/DX2 analytically  !
 ! R20   R(9,13)                 1.4855         calculate D2E/DX2 analytically  !
 ! R21   R(9,24)                 1.1055         calculate D2E/DX2 analytically  !
 ! R22   R(9,25)                 1.1055         calculate D2E/DX2 analytically  !
 ! R23   R(10,12)                1.425          calculate D2E/DX2 analytically  !
 ! R24   R(10,14)                1.425          calculate D2E/DX2 analytically  !
 ! R25   R(10,19)                1.083          calculate D2E/DX2 analytically  !
 ! R26   R(11,12)                1.411          calculate D2E/DX2 analytically  !
 ! R27   R(13,14)                1.411          calculate D2E/DX2 analytically  !
 ! A1    A(2,1,11)             121.2623         calculate D2E/DX2 analytically  !
 ! A2    A(2,1,15)             119.867          calculate D2E/DX2 analytically  !
 ! A3    A(11,1,15)            118.8707         calculate D2E/DX2 analytically  !
 ! A4    A(1,2,3)              118.9635         calculate D2E/DX2 analytically  !
 ! A5    A(1,2,16)             120.3345         calculate D2E/DX2 analytically  !
 ! A6    A(3,2,16)             120.702          calculate D2E/DX2 analytically  !
 ! A7    A(2,3,4)              120.3336         calculate D2E/DX2 analytically  !
 ! A8    A(2,3,17)             120.3828         calculate D2E/DX2 analytically  !
 ! A9    A(4,3,17)             119.2836         calculate D2E/DX2 analytically  !
 ! A10   A(3,4,12)             121.4491         calculate D2E/DX2 analytically  !
 ! A11   A(3,4,18)             119.3662         calculate D2E/DX2 analytically  !
 ! A12   A(12,4,18)            119.1847         calculate D2E/DX2 analytically  !
 ! A13   A(6,5,14)             121.4491         calculate D2E/DX2 analytically  !
 ! A14   A(6,5,20)             119.3662         calculate D2E/DX2 analytically  !
 ! A15   A(14,5,20)            119.1847         calculate D2E/DX2 analytically  !
 ! A16   A(5,6,7)              120.3336         calculate D2E/DX2 analytically  !
 ! A17   A(5,6,21)             119.2836         calculate D2E/DX2 analytically  !
 ! A18   A(7,6,21)             120.3828         calculate D2E/DX2 analytically  !
 ! A19   A(6,7,8)              118.9635         calculate D2E/DX2 analytically  !
 ! A20   A(6,7,22)             120.702          calculate D2E/DX2 analytically  !
 ! A21   A(8,7,22)             120.3345         calculate D2E/DX2 analytically  !
 ! A22   A(7,8,13)             121.2623         calculate D2E/DX2 analytically  !
 ! A23   A(7,8,23)             119.867          calculate D2E/DX2 analytically  !
 ! A24   A(13,8,23)            118.8707         calculate D2E/DX2 analytically  !
 ! A25   A(11,9,13)            116.7118         calculate D2E/DX2 analytically  !
 ! A26   A(11,9,24)            109.114          calculate D2E/DX2 analytically  !
 ! A27   A(11,9,25)            109.114          calculate D2E/DX2 analytically  !
 ! A28   A(13,9,24)            109.114          calculate D2E/DX2 analytically  !
 ! A29   A(13,9,25)            109.114          calculate D2E/DX2 analytically  !
 ! A30   A(24,9,25)            102.7623         calculate D2E/DX2 analytically  !
 ! A31   A(12,10,14)           121.0565         calculate D2E/DX2 analytically  !
 ! A32   A(12,10,19)           119.4718         calculate D2E/DX2 analytically  !
 ! A33   A(14,10,19)           119.4718         calculate D2E/DX2 analytically  !
 ! A34   A(1,11,9)             119.3019         calculate D2E/DX2 analytically  !
 ! A35   A(1,11,12)            120.031          calculate D2E/DX2 analytically  !
 ! A36   A(9,11,12)            120.6671         calculate D2E/DX2 analytically  !
 ! A37   A(4,12,10)            121.5908         calculate D2E/DX2 analytically  !
 ! A38   A(4,12,11)            117.9604         calculate D2E/DX2 analytically  !
 ! A39   A(10,12,11)           120.4488         calculate D2E/DX2 analytically  !
 ! A40   A(8,13,9)             119.3019         calculate D2E/DX2 analytically  !
 ! A41   A(8,13,14)            120.031          calculate D2E/DX2 analytically  !
 ! A42   A(9,13,14)            120.6671         calculate D2E/DX2 analytically  !
 ! A43   A(5,14,10)            121.5908         calculate D2E/DX2 analytically  !
 ! A44   A(5,14,13)            117.9604         calculate D2E/DX2 analytically  !
 ! A45   A(10,14,13)           120.4488         calculate D2E/DX2 analytically  !
 ! D1    D(11,1,2,3)             0.0            calculate D2E/DX2 analytically  !
 ! D2    D(11,1,2,16)          180.0            calculate D2E/DX2 analytically  !
 ! D3    D(15,1,2,3)           180.0            calculate D2E/DX2 analytically  !
 ! D4    D(15,1,2,16)            0.0            calculate D2E/DX2 analytically  !
 ! D5    D(2,1,11,9)           180.0            calculate D2E/DX2 analytically  !
 ! D6    D(2,1,11,12)            0.0            calculate D2E/DX2 analytically  !
 ! D7    D(15,1,11,9)            0.0            calculate D2E/DX2 analytically  !
 ! D8    D(15,1,11,12)         180.0            calculate D2E/DX2 analytically  !
 ! D9    D(1,2,3,4)              0.0            calculate D2E/DX2 analytically  !
 ! D10   D(1,2,3,17)           180.0            calculate D2E/DX2 analytically  !
 ! D11   D(16,2,3,4)           180.0            calculate D2E/DX2 analytically  !
 ! D12   D(16,2,3,17)            0.0            calculate D2E/DX2 analytically  !
 ! D13   D(2,3,4,12)             0.0            calculate D2E/DX2 analytically  !
 ! D14   D(2,3,4,18)           180.0            calculate D2E/DX2 analytically  !
 ! D15   D(17,3,4,12)          180.0            calculate D2E/DX2 analytically  !
 ! D16   D(17,3,4,18)            0.0            calculate D2E/DX2 analytically  !
 ! D17   D(3,4,12,10)          180.0            calculate D2E/DX2 analytically  !
 ! D18   D(3,4,12,11)            0.0            calculate D2E/DX2 analytically  !
 ! D19   D(18,4,12,10)           0.0            calculate D2E/DX2 analytically  !
 ! D20   D(18,4,12,11)         180.0            calculate D2E/DX2 analytically  !
 ! D21   D(14,5,6,7)             0.0            calculate D2E/DX2 analytically  !
 ! D22   D(14,5,6,21)          180.0            calculate D2E/DX2 analytically  !
 ! D23   D(20,5,6,7)           180.0            calculate D2E/DX2 analytically  !
 ! D24   D(20,5,6,21)            0.0            calculate D2E/DX2 analytically  !
 ! D25   D(6,5,14,10)          180.0            calculate D2E/DX2 analytically  !
 ! D26   D(6,5,14,13)            0.0            calculate D2E/DX2 analytically  !
 ! D27   D(20,5,14,10)           0.0            calculate D2E/DX2 analytically  !
 ! D28   D(20,5,14,13)         180.0            calculate D2E/DX2 analytically  !
 ! D29   D(5,6,7,8)              0.0            calculate D2E/DX2 analytically  !
 ! D30   D(5,6,7,22)           180.0            calculate D2E/DX2 analytically  !
 ! D31   D(21,6,7,8)           180.0            calculate D2E/DX2 analytically  !
 ! D32   D(21,6,7,22)            0.0            calculate D2E/DX2 analytically  !
 ! D33   D(6,7,8,13)             0.0            calculate D2E/DX2 analytically  !
 ! D34   D(6,7,8,23)           180.0            calculate D2E/DX2 analytically  !
 ! D35   D(22,7,8,13)          180.0            calculate D2E/DX2 analytically  !
 ! D36   D(22,7,8,23)            0.0            calculate D2E/DX2 analytically  !
 ! D37   D(7,8,13,9)           180.0            calculate D2E/DX2 analytically  !
 ! D38   D(7,8,13,14)            0.0            calculate D2E/DX2 analytically  !
 ! D39   D(23,8,13,9)            0.0            calculate D2E/DX2 analytically  !
 ! D40   D(23,8,13,14)         180.0            calculate D2E/DX2 analytically  !
 ! D41   D(13,9,11,1)          180.0            calculate D2E/DX2 analytically  !
 ! D42   D(13,9,11,12)           0.0            calculate D2E/DX2 analytically  !
 ! D43   D(24,9,11,1)           55.7819         calculate D2E/DX2 analytically  !
 ! D44   D(24,9,11,12)        -124.2181         calculate D2E/DX2 analytically  !
 ! D45   D(25,9,11,1)          -55.7819         calculate D2E/DX2 analytically  !
 ! D46   D(25,9,11,12)         124.2181         calculate D2E/DX2 analytically  !
 ! D47   D(11,9,13,8)          180.0            calculate D2E/DX2 analytically  !
 ! D48   D(11,9,13,14)           0.0            calculate D2E/DX2 analytically  !
 ! D49   D(24,9,13,8)          -55.7819         calculate D2E/DX2 analytically  !
 ! D50   D(24,9,13,14)         124.2181         calculate D2E/DX2 analytically  !
 ! D51   D(25,9,13,8)           55.7819         calculate D2E/DX2 analytically  !
 ! D52   D(25,9,13,14)        -124.2181         calculate D2E/DX2 analytically  !
 ! D53   D(14,10,12,4)         180.0            calculate D2E/DX2 analytically  !
 ! D54   D(14,10,12,11)          0.0            calculate D2E/DX2 analytically  !
 ! D55   D(19,10,12,4)           0.0            calculate D2E/DX2 analytically  !
 ! D56   D(19,10,12,11)        180.0            calculate D2E/DX2 analytically  !
 ! D57   D(12,10,14,5)         180.0            calculate D2E/DX2 analytically  !
 ! D58   D(12,10,14,13)          0.0            calculate D2E/DX2 analytically  !
 ! D59   D(19,10,14,5)           0.0            calculate D2E/DX2 analytically  !
 ! D60   D(19,10,14,13)        180.0            calculate D2E/DX2 analytically  !
 ! D61   D(1,11,12,4)            0.0            calculate D2E/DX2 analytically  !
 ! D62   D(1,11,12,10)         180.0            calculate D2E/DX2 analytically  !
 ! D63   D(9,11,12,4)          180.0            calculate D2E/DX2 analytically  !
 ! D64   D(9,11,12,10)           0.0            calculate D2E/DX2 analytically  !
 ! D65   D(8,13,14,5)            0.0            calculate D2E/DX2 analytically  !
 ! D66   D(8,13,14,10)         180.0            calculate D2E/DX2 analytically  !
 ! D67   D(9,13,14,5)          180.0            calculate D2E/DX2 analytically  !
 ! D68   D(9,13,14,10)           0.0            calculate D2E/DX2 analytically  !
 --------------------------------------------------------------------------------
 Trust Radius=3.00D-01 FncErr=1.00D-07 GrdErr=1.00D-06 EigMax=2.50D+02 EigMin=1.00D-04
 Number of steps in this run=    150 maximum allowed number of steps=    150.
 Search for a saddle point of order  1.
 GradGradGradGradGradGradGradGradGradGradGradGradGradGradGradGradGradGrad

                          Input orientation:                          
 ---------------------------------------------------------------------
 Center     Atomic      Atomic             Coordinates (Angstroms)
 Number     Number       Type             X           Y           Z
 ---------------------------------------------------------------------
      1          6           0        2.498491    1.364313    0.000000
      2          6           0        3.709964    0.673758    0.000000
      3          6           0        3.692500   -0.715597    0.000000
      4          6           0        2.468906   -1.411076    0.000000
      5          6           0       -2.468906   -1.411076   -0.000000
      6          6           0       -3.692500   -0.715597   -0.000000
      7          6           0       -3.709964    0.673758   -0.000000
      8          6           0       -2.498491    1.364313   -0.000000
      9          6           0       -0.000000    1.458191   -0.000000
     10          6           0        0.000000   -1.433015   -0.000000
     11          6           0        1.264622    0.678847   -0.000000
     12          6           0        1.240563   -0.731946   -0.000000
     13          6           0       -1.264622    0.678847   -0.000000
     14          6           0       -1.240563   -0.731946   -0.000000
     15          1           0        2.495019    2.449650   -0.000000
     16          1           0        4.647143    1.214442    0.000000
     17          1           0        4.619855   -1.275078    0.000000
     18          1           0        2.473587   -2.495716    0.000000
     19          1           0        0.000000   -2.516059   -0.000000
     20          1           0       -2.473587   -2.495716   -0.000000
     21          1           0       -4.619855   -1.275078   -0.000000
     22          1           0       -4.647143    1.214442   -0.000000
     23          1           0       -2.495019    2.449650   -0.000000
     24          1           0       -0.000000    2.148194   -0.863770
     25          1           0       -0.000000    2.148194    0.863770
 ---------------------------------------------------------------------
                    Distance matrix (angstroms):
                    1          2          3          4          5
     1  C    0.000000
     2  C    1.394465   0.000000
     3  C    2.398266   1.389464   0.000000
     4  C    2.775546   2.426263   1.407434   0.000000
     5  C    5.690151   6.521117   6.200534   4.937813   0.000000
     6  C    6.531033   7.531718   7.385000   6.200534   1.407434
     7  C    6.246741   7.419927   7.531718   6.521117   2.426263
     8  C    4.996982   6.246741   6.531033   5.690151   2.775546
     9  C    2.500254   3.791987   4.284847   3.785260   3.785260
    10  C    3.750667   4.266418   3.761548   2.469004   2.469004
    11  C    1.411487   2.445347   2.799833   2.412069   4.278670
    12  C    2.444726   2.841468   2.451992   1.403583   3.771124
    13  C    3.825034   4.974589   5.149518   4.278670   2.412069
    14  C    4.286586   5.146233   4.933090   3.771124   1.403583
    15  H    1.085342   2.151717   3.384191   3.860814   6.288541
    16  H    2.153873   1.081964   2.153229   3.411460   7.584953
    17  H    3.386233   2.150782   1.083055   2.155244   7.090066
    18  H    3.860109   3.402086   2.157446   1.084651   5.060107
    19  H    4.615165   4.892725   4.108068   2.704901   2.704901
    20  H    6.294552   6.948515   6.417901   5.060107   1.084651
    21  H    7.591919   8.554756   8.331162   7.090066   2.155244
    22  H    7.147206   8.374579   8.560064   7.584953   3.411460
    23  H    5.110097   6.454115   6.950120   6.288541   3.860814
    24  H    2.757359   4.084592   4.752047   4.417013   4.417013
    25  H    2.757359   4.084592   4.752047   4.417013   4.417013
                    6          7          8          9         10
     6  C    0.000000
     7  C    1.389464   0.000000
     8  C    2.398266   1.394465   0.000000
     9  C    4.284847   3.791987   2.500254   0.000000
    10  C    3.761548   4.266418   3.750667   2.891206   0.000000
    11  C    5.149518   4.974589   3.825034   1.485479   2.461551
    12  C    4.933090   5.146233   4.286586   2.517081   1.424954
    13  C    2.799833   2.445347   1.411487   1.485479   2.461551
    14  C    2.451992   2.841468   2.444726   2.517081   1.424954
    15  H    6.950120   6.454115   5.110097   2.684792   4.615214
    16  H    8.560064   8.374579   7.147206   4.653531   5.348362
    17  H    8.331162   8.554756   7.591919   5.367851   4.622554
    18  H    6.417901   6.948515   6.294552   4.663906   2.692205
    19  H    4.108068   4.892725   4.615165   3.974250   1.083044
    20  H    2.157446   3.402086   3.860109   4.663906   2.692205
    21  H    1.083055   2.150782   3.386233   5.367851   4.622554
    22  H    2.153229   1.081964   2.153873   4.653531   5.348362
    23  H    3.384191   2.151717   1.085342   2.684792   4.615214
    24  H    4.752047   4.084592   2.757359   1.105533   3.683906
    25  H    4.752047   4.084592   2.757359   1.105533   3.683906
                   11         12         13         14         15
    11  C    0.000000
    12  C    1.410998   0.000000
    13  C    2.529245   2.875115   0.000000
    14  C    2.875115   2.481126   1.410998   0.000000
    15  H    2.156297   3.419972   4.155796   4.906844   0.000000
    16  H    3.424662   3.923419   5.935978   6.201089   2.481406
    17  H    3.882707   3.422661   6.200395   5.885533   4.288185
    18  H    3.396976   2.152031   4.904290   4.111666   4.945412
    19  H    3.436087   2.173029   3.436087   2.173029   5.557282
    20  H    4.904290   4.111666   3.396976   2.152031   7.010256
    21  H    6.200395   5.885533   3.882707   3.422661   8.030880
    22  H    5.935978   6.201089   3.424662   3.923419   7.248187
    23  H    4.155796   4.906844   2.156297   3.419972   4.990037
    24  H    2.122345   3.252738   2.122345   3.252738   2.657460
    25  H    2.122345   3.252738   2.122345   3.252738   2.657460
                   16         17         18         19         20
    16  H    0.000000
    17  H    2.489670   0.000000
    18  H    4.299956   2.469094   0.000000
    19  H    5.959243   4.783628   2.473671   0.000000
    20  H    8.029326   7.197700   4.947174   2.473671   0.000000
    21  H    9.595571   9.239711   7.197700   4.783628   2.469094
    22  H    9.294287   9.595571   8.029326   5.959243   4.299956
    23  H    7.248187   8.030880   7.010256   5.557282   4.945412
    24  H    4.818084   5.814461   5.332039   4.743560   5.332039
    25  H    4.818084   5.814461   5.332039   4.743560   5.332039
                   21         22         23         24         25
    21  H    0.000000
    22  H    2.489670   0.000000
    23  H    4.288185   2.481406   0.000000
    24  H    5.814461   4.818084   2.657460   0.000000
    25  H    5.814461   4.818084   2.657460   1.727539   0.000000
 Stoichiometry    C14H11(1+)
 Framework group  C2V[C2(HCC),SGV(C12H8),SGV'(H2)]
 Deg. of freedom    24
 Full point group                 C2V     NOp   4
 Largest Abelian subgroup         C2V     NOp   4
 Largest concise Abelian subgroup C2V     NOp   4
                         Standard orientation:                         
 ---------------------------------------------------------------------
 Center     Atomic      Atomic             Coordinates (Angstroms)
 Number     Number       Type             X           Y           Z
 ---------------------------------------------------------------------
      1          6           0       -0.000000    2.498491    1.364128
      2          6           0       -0.000000    3.709964    0.673573
      3          6           0       -0.000000    3.692500   -0.715782
      4          6           0       -0.000000    2.468906   -1.411261
      5          6           0       -0.000000   -2.468906   -1.411261
      6          6           0       -0.000000   -3.692500   -0.715782
      7          6           0       -0.000000   -3.709964    0.673573
      8          6           0       -0.000000   -2.498491    1.364128
      9          6           0        0.000000    0.000000    1.458006
     10          6           0       -0.000000   -0.000000   -1.433200
     11          6           0       -0.000000    1.264622    0.678662
     12          6           0       -0.000000    1.240563   -0.732131
     13          6           0       -0.000000   -1.264622    0.678662
     14          6           0       -0.000000   -1.240563   -0.732131
     15          1           0       -0.000000    2.495019    2.449465
     16          1           0       -0.000000    4.647143    1.214257
     17          1           0       -0.000000    4.619855   -1.275263
     18          1           0       -0.000000    2.473587   -2.495901
     19          1           0       -0.000000   -0.000000   -2.516244
     20          1           0       -0.000000   -2.473587   -2.495901
     21          1           0       -0.000000   -4.619855   -1.275263
     22          1           0       -0.000000   -4.647143    1.214257
     23          1           0       -0.000000   -2.495019    2.449465
     24          1           0       -0.863770    0.000000    2.148010
     25          1           0        0.863770   -0.000000    2.148010
 ---------------------------------------------------------------------
 Rotational constants (GHZ):           2.1252875           0.4425675           0.3670917
 Standard basis: 6-311++G(d,p) (5D, 7F)
 There are   161 symmetry adapted cartesian basis functions of A1  symmetry.
 There are    43 symmetry adapted cartesian basis functions of A2  symmetry.
 There are    57 symmetry adapted cartesian basis functions of B1  symmetry.
 There are   138 symmetry adapted cartesian basis functions of B2  symmetry.
 There are   153 symmetry adapted basis functions of A1  symmetry.
 There are    43 symmetry adapted basis functions of A2  symmetry.
 There are    57 symmetry adapted basis functions of B1  symmetry.
 There are   132 symmetry adapted basis functions of B2  symmetry.
   385 basis functions,   603 primitive gaussians,   399 cartesian basis functions
    47 alpha electrons       47 beta electrons
       nuclear repulsion energy       779.3275672635 Hartrees.
 NAtoms=   25 NActive=   25 NUniq=   14 SFac= 3.19D+00 NAtFMM=   60 NAOKFM=F Big=F
 Integral buffers will be    131072 words long.
 Raffenetti 1 integral format.
 Two-electron integral symmetry is turned on.
 Nuclear repulsion after empirical dispersion term =      779.3121464862 Hartrees.
 One-electron integrals computed using PRISM.
 NBasis=   385 RedAO= T EigKep=  1.15D-06  NBF=   153    43    57   132
 NBsUse=   379 1.00D-06 EigRej=  8.66D-07 NBFU=   150    43    57   129
 ExpMin= 3.60D-02 ExpMax= 4.56D+03 ExpMxC= 6.82D+02 IAcc=3 IRadAn=         5 AccDes= 0.00D+00
 Harris functional with IExCor= 4639 and IRadAn=       5 diagonalized for initial guess.
 HarFok:  IExCor= 4639 AccDes= 0.00D+00 IRadAn=         5 IDoV= 1 UseB2=F ITyADJ=14
 ICtDFT=  3500011 ScaDFX=  1.000000  1.000000  1.000000  1.000000
 FoFCou: FMM=F IPFlag=           0 FMFlag=      100000 FMFlg1=           0
         NFxFlg=           0 DoJE=T BraDBF=F KetDBF=T FulRan=T
         wScrn=  0.000000 ICntrl=       500 IOpCl=  0 I1Cent=   200000004 NGrid=           0
         NMat0=    1 NMatS0=      1 NMatT0=    0 NMatD0=    1 NMtDS0=    0 NMtDT0=    0
 Petite list used in FoFCou.
 Initial guess orbital symmetries:
       Occupied  (A1) (B2) (A1) (B2) (A1) (B2) (A1) (B2) (A1) (B2)
                 (A1) (A1) (B2) (A1) (A1) (B2) (A1) (A1) (B2) (B2)
                 (A1) (A1) (B2) (A1) (B2) (A1) (B2) (A1) (A1) (B2)
                 (B2) (B1) (A1) (B2) (B2) (A1) (A1) (A1) (A2) (B1)
                 (B2) (B2) (A1) (B1) (A2) (A2) (B1)
       Virtual   (B1) (B1) (A2) (A2) (A1) (B2) (A1) (A1) (B2) (B1)
                 (A1) (B2) (B1) (A1) (B2) (B1) (A1) (A2) (B2) (A1)
                 (B1) (A1) (A2) (A1) (B2) (A1) (B2) (A1) (A1) (B2)
                 (B1) (A2) (B1) (B2) (A2) (B2) (A1) (A1) (B2) (B1)
                 (A1) (A2) (A2) (B2) (B2) (B1) (B1) (A1) (A1) (B1)
                 (B2) (A1) (A1) (A1) (B2) (B1) (A1) (B2) (A1) (A1)
                 (B2) (A2) (B2) (A1) (B2) (B1) (A1) (B2) (A1) (B2)
                 (B2) (A1) (B2) (A1) (A1) (B2) (A1) (A1) (B2) (A1)
                 (B2) (A1) (B2) (B2) (A1) (A1) (B2) (A1) (B2) (B2)
                 (A1) (A1) (B2) (A1) (A1) (B1) (B2) (A2) (A1) (B2)
                 (B1) (B1) (A1) (B2) (A1) (A2) (B1) (A2) (B2) (B1)
                 (B2) (A1) (B2) (B1) (A1) (A2) (A1) (B2) (A2) (B1)
                 (A1) (B1) (A1) (B2) (A1) (A2) (B2) (B2) (B1) (A1)
                 (A1) (B2) (A1) (A1) (A1) (B2) (B2) (A1) (B2) (A1)
                 (B2) (B2) (A2) (A1) (A1) (B2) (B2) (A1) (B2) (A1)
                 (B1) (A2) (B2) (B2) (B1) (A2) (A1) (A1) (B1) (A2)
                 (A1) (B1) (A2) (A2) (B2) (A1) (B1) (B2) (A1) (B2)
                 (A1) (B1) (A1) (B2) (A2) (A1) (B2) (B2) (A1) (B1)
                 (A1) (B2) (A1) (B1) (B2) (A2) (B2) (A1) (B1) (A2)
                 (A2) (A1) (A1) (B1) (A1) (B2) (B2) (B1) (A1) (B2)
                 (A2) (B1) (B1) (A1) (B2) (A2) (B2) (B1) (A1) (A1)
                 (A2) (A1) (A2) (B1) (B2) (A2) (B2) (A1) (B2) (A1)
                 (B1) (A1) (B2) (B2) (B1) (B2) (A1) (B2) (A2) (B1)
                 (A1) (A1) (B2) (A2) (B2) (A1) (B1) (B2) (A2) (A1)
                 (B1) (A1) (B2) (B2) (A1) (A2) (A1) (B2) (A1) (B2)
                 (B1) (A1) (B2) (B1) (A1) (A2) (B2) (B1) (A1) (A1)
                 (B2) (A1) (A1) (B1) (B2) (A1) (B2) (B2) (A1) (B2)
                 (A2) (B1) (A1) (A1) (A2) (B1) (B1) (B2) (A2) (A1)
                 (B2) (A2) (B1) (B1) (A2) (A1) (B2) (A1) (B2) (A1)
                 (B2) (A1) (B2) (A1) (A1) (B2) (A1) (A1) (B2) (B2)
                 (A1) (B2) (A1) (B1) (A1) (B2) (A1) (B2) (A1) (B2)
                 (A1) (A1) (B2) (A1) (B2) (B2) (B2) (A1) (A1) (B2)
                 (A1) (A1) (B2) (B2) (A1) (A1) (B2) (A1) (B2) (A1)
                 (A1) (B2)
 The electronic state of the initial guess is 1-A1.
 Requested convergence on RMS density matrix=1.00D-08 within 128 cycles.
 Requested convergence on MAX density matrix=1.00D-06.
 Requested convergence on             energy=1.00D-06.
 No special actions if energy rises.
 SCF Done:  E(RwB97XD) =  -539.803598899     A.U. after   15 cycles
            NFock= 15  Conv=0.91D-08     -V/T= 2.0047
 DoSCS=F DFT=T ScalE2(SS,OS)=  1.000000  1.000000
 ExpMin= 3.60D-02 ExpMax= 4.56D+03 ExpMxC= 6.82D+02 IAcc=3 IRadAn=         5 AccDes= 0.00D+00
 HarFok:  IExCor=  205 AccDes= 0.00D+00 IRadAn=         5 IDoV=-2 UseB2=F ITyADJ=14
 ICtDFT= 12500011 ScaDFX=  1.000000  1.000000  1.000000  1.000000
 Range of M.O.s used for correlation:    15   379
 NBasis=   385 NAE=    47 NBE=    47 NFC=    14 NFV=     0
 NROrb=    365 NOA=    33 NOB=    33 NVA=   332 NVB=   332

 **** Warning!!: The largest alpha MO coefficient is  0.16120641D+03

 Orbital symmetries:
       Occupied  (A1) (B2) (A1) (B2) (A1) (B2) (A1) (A1) (B2) (A1)
                 (B2) (A1) (B2) (A1) (A1) (B2) (A1) (A1) (B2) (B2)
                 (A1) (A1) (A1) (B2) (B2) (A1) (B2) (A1) (A1) (B2)
                 (A1) (B2) (B1) (B2) (A1) (B2) (A1) (B1) (A2) (A1)
                 (B2) (A1) (B2) (B1) (A2) (A2) (B1)
       Virtual   (B1) (B1) (A2) (A2) (A1) (A1) (B2) (B1) (A1) (B2)
                 (B1) (A1) (B2) (A1) (B1) (B2) (B2) (A1) (A2) (A1)
                 (B1) (A1) (A2) (A1) (B2) (A1) (A1) (B1) (B2) (A2)
                 (B1) (A1) (B2) (B2) (A2) (B2) (A1) (B2) (A1) (B1)
                 (A1) (A2) (B2) (B1) (B1) (A1) (A2) (A1) (B2) (B1)
                 (A1) (B2) (A1) (A1) (B2) (B1) (A1) (B2) (A1) (A1)
                 (B2) (A1) (A2) (B2) (B2) (B1) (A1) (B2) (A1) (B2)
                 (B2) (A1) (A1) (B2) (A1) (A1) (B2) (B2) (A1) (A1)
                 (B2) (A1) (B2) (B2) (A1) (A1) (A1) (B2) (B2) (A1)
                 (B2) (A1) (B2) (A1) (B1) (A1) (B1) (A2) (B2) (A1)
                 (B1) (B2) (B2) (A1) (B1) (A2) (A1) (A2) (B1) (B2)
                 (A1) (B2) (B1) (B2) (A1) (A2) (A1) (A2) (B2) (B1)
                 (B1) (A1) (A2) (A1) (B2) (A1) (B1) (B2) (A1) (B2)
                 (A1) (A1) (B2) (A1) (A1) (B2) (A1) (B2) (B2) (A1)
                 (B2) (B2) (A2) (A1) (A1) (B2) (A1) (B2) (B2) (A1)
                 (B1) (B2) (B2) (A2) (B1) (A1) (A2) (A1) (B1) (A2)
                 (A1) (B1) (A2) (A2) (B2) (A1) (B1) (B2) (A1) (B2)
                 (A1) (A1) (B1) (B2) (A2) (A1) (B2) (B2) (B1) (A1)
                 (A1) (B2) (A1) (B1) (A2) (B2) (B2) (A1) (A2) (B1)
                 (A2) (A1) (A1) (B1) (B1) (A1) (B2) (B2) (A1) (B2)
                 (B1) (A2) (B1) (A1) (B2) (A2) (B2) (B1) (A1) (A1)
                 (A1) (A2) (A2) (B1) (B2) (A2) (B2) (B1) (A1) (A1)
                 (B2) (A1) (B2) (B2) (B1) (B2) (A1) (B2) (A2) (B1)
                 (A1) (A1) (B2) (A2) (A1) (B2) (B2) (B1) (A2) (A1)
                 (B1) (A1) (B2) (A2) (B2) (A1) (A1) (B2) (A1) (A1)
                 (B1) (B2) (B2) (A1) (B1) (B2) (B1) (A2) (A1) (A1)
                 (B2) (A1) (A1) (B1) (A1) (B2) (B2) (A1) (B2) (A1)
                 (B2) (A2) (A1) (B1) (A2) (B1) (B2) (B1) (A2) (A1)
                 (B2) (A2) (B1) (A1) (B1) (A2) (B2) (A1) (B2) (A1)
                 (B2) (A1) (B2) (A1) (A1) (B2) (A1) (A1) (B2) (B2)
                 (A1) (B2) (A1) (B1) (A1) (B2) (A1) (A1) (B2) (B2)
                 (A1) (A1) (B2) (A1) (B2) (B2) (B2) (A1) (A1) (B2)
                 (A1) (A1) (B2) (B2) (A1) (A1) (B2) (A1) (B2) (A1)
                 (A1) (B2)
    12 initial guesses have been made.
 Convergence on wavefunction:    0.000001000000000
 Iteration     1 Dimension    12 NMult     0 NNew     12
 CISAX will form    12 AO SS matrices at one time.
 New state      2 was old state      3
 New state      3 was old state      2
 Iteration     2 Dimension    18 NMult    12 NNew      6
 Iteration     3 Dimension    24 NMult    18 NNew      6
 Iteration     4 Dimension    30 NMult    24 NNew      6
 Iteration     5 Dimension    36 NMult    30 NNew      6
 Iteration     6 Dimension    42 NMult    36 NNew      6
 Iteration     7 Dimension    48 NMult    42 NNew      6
 Iteration     8 Dimension    54 NMult    48 NNew      6
 Iteration     9 Dimension    60 NMult    54 NNew      6
 Iteration    10 Dimension    62 NMult    60 NNew      2
 Iteration    11 Dimension    64 NMult    62 NNew      2
 ***********************************************************************
 Excited states from <AA,BB:AA,BB> singles matrix:
 ***********************************************************************
 
 Ground to excited state transition densities written to RWF  633
 Ground to excited state transition electric dipole moments (Au):
       state          X           Y           Z        Dip. S.      Osc.
         1        -0.0000      0.0000      0.6639      0.4408      0.0307
         2        -0.0000     -0.3002      0.0000      0.0901      0.0072
         3         0.0000      2.5600     -0.0000      6.5537      0.5591
 Ground to excited state transition velocity dipole moments (Au):
       state          X           Y           Z        Dip. S.      Osc.
         1        -0.0000     -0.0000     -0.0753      0.0057      0.0362
         2         0.0000      0.0284      0.0000      0.0008      0.0045
         3        -0.0000     -0.3195      0.0000      0.1021      0.5319
 Ground to excited state transition magnetic dipole moments (Au):
       state          X           Y           Z
         1         0.0000     -0.0000     -0.0000
         2         1.0188     -0.0000      0.0000
         3        -0.9803      0.0000      0.0000
 Ground to excited state transition velocity quadrupole moments (Au):
       state          XX          YY          ZZ          XY          XZ          YZ
         1        -0.0094      0.2938      0.0379      0.0000     -0.0000      0.0000
         2         0.0000     -0.0000      0.0000     -0.0000      0.0000      0.3068
         3         0.0000      0.0000      0.0000      0.0000      0.0000     -0.0826
 <0|del|b> * <b|rxdel|0> + <0|del|b> * <b|delr+rdel|0>
 Rotatory Strengths (R) in cgs (10**-40 erg-esu-cm/Gauss)
       state          XX          YY          ZZ    R(velocity)    E-M Angle
         1        -0.0000      0.0000      0.0000      0.0000       90.00
         2        -0.0000      0.0000      0.0000      0.0000       90.00
         3        -0.0000      0.0000      0.0000      0.0000       90.00
 1/2[<0|r|b>*<b|rxdel|0> + (<0|rxdel|b>*<b|r|0>)*]
 Rotatory Strengths (R) in cgs (10**-40 erg-esu-cm/Gauss)
       state          XX          YY          ZZ     R(length)
         1         0.0000      0.0000      0.0000      0.0000
         2         0.0000     -0.0000     -0.0000      0.0000
         3         0.0000     -0.0000      0.0000      0.0000
  1/2[<0|del|b>*<b|r|0> + (<0|r|b>*<b|del|0>)*] (Au)
       state          X           Y           Z        Dip. S.   Osc.(frdel)
         1         0.0000     -0.0000     -0.0500      0.0500      0.0333
         2        -0.0000     -0.0085      0.0000      0.0085      0.0057
         3        -0.0000     -0.8180     -0.0000      0.8180      0.5453

 Excitation energies and oscillator strengths:
 
 Excited State   1:      Singlet-A1     2.8416 eV  436.32 nm  f=0.0307  <S**2>=0.000
      47 -> 48         0.70245
 This state for optimization and/or second-order correction.
 Total Energy, E(TD-HF/TD-DFT) =  -539.699171952    
 Copying the excited state density for this state as the 1-particle RhoCI density.
 
 Excited State   2:      Singlet-B2     3.2608 eV  380.23 nm  f=0.0072  <S**2>=0.000
      45 -> 48         0.62571
      46 -> 48        -0.31050
 
 Excited State   3:      Singlet-B2     3.4824 eV  356.03 nm  f=0.5591  <S**2>=0.000
      45 -> 48         0.31396
      46 -> 48         0.62110
 SavETr:  write IOETrn=   770 NScale= 10 NData=  16 NLR=1 NState=    3 LETran=      64.
          IDoAtm=1111111111111111111111111
          Differentiating once with respect to electric field.
                with respect to dipole field.
          Differentiating once with respect to nuclear coordinates.
          There are     1 degrees of freedom in the 1st order CPHF.  IDoFFX=0 NUNeed=     1.
 LinEq1:  Iter=  0 NonCon=     1 RMS=6.68D-03 Max=3.68D-01 NDo=     1
 AX will form     1 AO Fock derivatives at one time.
 LinEq1:  Iter=  1 NonCon=     1 RMS=1.85D-03 Max=1.16D-01 NDo=     1
 LinEq1:  Iter=  2 NonCon=     1 RMS=1.18D-03 Max=6.70D-02 NDo=     1
 LinEq1:  Iter=  3 NonCon=     1 RMS=4.02D-04 Max=1.37D-02 NDo=     1
 LinEq1:  Iter=  4 NonCon=     1 RMS=1.61D-04 Max=7.97D-03 NDo=     1
 LinEq1:  Iter=  5 NonCon=     1 RMS=9.39D-05 Max=5.63D-03 NDo=     1
 LinEq1:  Iter=  6 NonCon=     1 RMS=4.38D-05 Max=1.94D-03 NDo=     1
 LinEq1:  Iter=  7 NonCon=     1 RMS=2.18D-05 Max=1.45D-03 NDo=     1
 LinEq1:  Iter=  8 NonCon=     1 RMS=8.12D-06 Max=3.13D-04 NDo=     1
 LinEq1:  Iter=  9 NonCon=     1 RMS=4.15D-06 Max=1.99D-04 NDo=     1
 LinEq1:  Iter= 10 NonCon=     1 RMS=1.54D-06 Max=5.06D-05 NDo=     1
 LinEq1:  Iter= 11 NonCon=     1 RMS=5.89D-07 Max=1.99D-05 NDo=     1
 LinEq1:  Iter= 12 NonCon=     1 RMS=2.27D-07 Max=9.59D-06 NDo=     1
 LinEq1:  Iter= 13 NonCon=     1 RMS=8.07D-08 Max=2.45D-06 NDo=     1
 LinEq1:  Iter= 14 NonCon=     1 RMS=3.09D-08 Max=1.03D-06 NDo=     1
 LinEq1:  Iter= 15 NonCon=     1 RMS=9.10D-09 Max=2.76D-07 NDo=     1
 LinEq1:  Iter= 16 NonCon=     1 RMS=3.15D-09 Max=1.04D-07 NDo=     1
 LinEq1:  Iter= 17 NonCon=     1 RMS=1.40D-09 Max=5.11D-08 NDo=     1
 LinEq1:  Iter= 18 NonCon=     1 RMS=3.12D-10 Max=9.80D-09 NDo=     1
 LinEq1:  Iter= 19 NonCon=     1 RMS=6.31D-11 Max=1.88D-09 NDo=     1
 LinEq1:  Iter= 20 NonCon=     0 RMS=1.67D-11 Max=3.63D-10 NDo=     1
 Linear equations converged to 1.000D-10 1.000D-09 after    20 iterations.
          There are     1 degrees of freedom in the 1st order CPHF.  IDoFFX=0 NUNeed=     1.
 End of Minotr F.D. properties file   721 does not exist.
 End of Minotr F.D. properties file   722 does not exist.
 End of Minotr F.D. properties file   788 does not exist.
 Symmetrizing basis deriv contribution to polar:
 IMax=3 JMax=2 DiffMx= 0.00D+00
 G2DrvN: will do    26 centers at a time, making    1 passes.
 Calling FoFCou, ICntrl=  3107 FMM=F I1Cent=   0 AccDes= 0.00D+00.
 G2DrvN: will do    26 centers at a time, making    1 passes.
 Calling FoFCou, ICntrl=  3107 FMM=F I1Cent=   0 AccDes= 0.00D+00.
 G2DrvN: will do    26 centers at a time, making    1 passes.
 Calling FoFCou, ICntrl=  3107 FMM=F I1Cent=   0 AccDes= 0.00D+00.
 End of G2Drv F.D. properties file   721 does not exist.
 End of G2Drv F.D. properties file   722 does not exist.
 End of G2Drv F.D. properties file   788 does not exist.
          IDoAtm=1111111111111111111111111
          Differentiating once with respect to electric field.
                with respect to dipole field.
          Differentiating once with respect to nuclear coordinates.
 CalDSu exits because no D1Ps are significant.
          There are    78 degrees of freedom in the 1st order CPHF.  IDoFFX=6 NUNeed=    78.
     75 vectors produced by pass  0 Test12= 2.00D-14 1.28D-09 XBig12= 1.87D+02 1.02D+01.
 AX will form    75 AO Fock derivatives at one time.
     75 vectors produced by pass  1 Test12= 2.00D-14 1.28D-09 XBig12= 1.25D+01 6.44D-01.
     75 vectors produced by pass  2 Test12= 2.00D-14 1.28D-09 XBig12= 5.73D-01 2.01D-01.
     75 vectors produced by pass  3 Test12= 2.00D-14 1.28D-09 XBig12= 5.27D-03 9.19D-03.
     75 vectors produced by pass  4 Test12= 2.00D-14 1.28D-09 XBig12= 3.77D-05 8.76D-04.
     75 vectors produced by pass  5 Test12= 2.00D-14 1.28D-09 XBig12= 1.96D-07 6.87D-05.
     75 vectors produced by pass  6 Test12= 2.00D-14 1.28D-09 XBig12= 9.27D-10 2.91D-06.
     40 vectors produced by pass  7 Test12= 2.00D-14 1.28D-09 XBig12= 4.20D-12 2.29D-07.
      3 vectors produced by pass  8 Test12= 2.00D-14 1.28D-09 XBig12= 2.17D-14 1.53D-08.
 InvSVY:  IOpt=1 It=  1 EMax= 5.33D-15
 Solved reduced A of dimension   568 with    78 vectors.
 Isotropic polarizability for W=    0.000000      171.72 Bohr**3.
 End of Minotr F.D. properties file   721 does not exist.
 End of Minotr F.D. properties file   722 does not exist.
 End of Minotr F.D. properties file   788 does not exist.
 This link is doing    78 degrees of freedom
 Form MO integral derivatives with frozen-active canonical formalism.
 CISSec: MDV=    4294955157
 Doing TD-HF/TD-DFT second derivatives, IDoFFX=6 IOneXC=4 IRadAn=         1.
 Frozen orbitals handled with amplitudes over full window.
 CISAX will form    78 AO SS matrices at one time.
     75 vectors produced by pass  0 Test12= 2.81D-14 1.28D-09 XBig12= 1.21D+02 1.02D+01.
 AX will form    75 AO Fock derivatives at one time.
     75 vectors produced by pass  1 Test12= 2.81D-14 1.28D-09 XBig12= 4.60D+00 1.04D+00.
     75 vectors produced by pass  2 Test12= 2.81D-14 1.28D-09 XBig12= 5.30D-01 2.53D-01.
     75 vectors produced by pass  3 Test12= 2.81D-14 1.28D-09 XBig12= 1.44D-02 1.77D-02.
     75 vectors produced by pass  4 Test12= 2.81D-14 1.28D-09 XBig12= 1.91D-04 2.22D-03.
     75 vectors produced by pass  5 Test12= 2.81D-14 1.28D-09 XBig12= 2.09D-06 2.21D-04.
     69 vectors produced by pass  6 Test12= 2.81D-14 1.28D-09 XBig12= 1.48D-08 1.69D-05.
     53 vectors produced by pass  7 Test12= 2.81D-14 1.28D-09 XBig12= 1.08D-10 1.68D-06.
     18 vectors produced by pass  8 Test12= 2.81D-14 1.28D-09 XBig12= 7.85D-13 1.30D-07.
      2 vectors produced by pass  9 Test12= 2.81D-14 1.28D-09 XBig12= 5.22D-15 6.94D-09.
 InvSVY:  IOpt=1 It=  1 EMax= 1.12D-14
 Solved reduced A of dimension   592 with    78 vectors.
 Tx.T = -7.49D-06 for pert.     3
 Tx.T =  1.34D-06 for pert.    33
 Tx.T = -9.70D-07 for pert.     6
 Tx.T = -9.70D-07 for pert.    27
 Tx.T =  9.03D-07 for pert.     5
 Tx.T = -9.00D-07 for pert.    26
 Tx.T =  7.90D-07 for pert.    44
 Tx.T = -7.88D-07 for pert.    38
 Tx.T =  7.82D-07 for pert.     9
 Tx.T =  7.80D-07 for pert.    24
 SavDET:  read IOETrn=   770 NScale= 10 NData=  16 NLR=1 NState=    3 NDeriv=    0 LETran=      64.
 SavDET: write IOETrn=   770 NScale= 10 NData=  16 NLR=1 NState=    3 NDeriv=   78 LETran=    1312.
 TDDxLx will form    78 C1x/S1x matrices at one time.
 Interchange theorem applied.

 **********************************************************************

            Population analysis using the SCF Density.

 **********************************************************************

 Orbital symmetries:
       Occupied  (A1) (B2) (A1) (B2) (A1) (B2) (A1) (A1) (B2) (A1)
                 (B2) (A1) (B2) (A1) (A1) (B2) (A1) (A1) (B2) (B2)
                 (A1) (A1) (A1) (B2) (B2) (A1) (B2) (A1) (A1) (B2)
                 (A1) (B2) (B1) (B2) (A1) (B2) (A1) (B1) (A2) (A1)
                 (B2) (A1) (B2) (B1) (A2) (A2) (B1)
       Virtual   (B1) (B1) (A2) (A2) (A1) (A1) (B2) (B1) (A1) (B2)
                 (B1) (A1) (B2) (A1) (B1) (B2) (B2) (A1) (A2) (A1)
                 (B1) (A1) (A2) (A1) (B2) (A1) (A1) (B1) (B2) (A2)
                 (B1) (A1) (B2) (B2) (A2) (B2) (A1) (B2) (A1) (B1)
                 (A1) (A2) (B2) (B1) (B1) (A1) (A2) (A1) (B2) (B1)
                 (A1) (B2) (A1) (A1) (B2) (B1) (A1) (B2) (A1) (A1)
                 (B2) (A1) (A2) (B2) (B2) (B1) (A1) (B2) (A1) (B2)
                 (B2) (A1) (A1) (B2) (A1) (A1) (B2) (B2) (A1) (A1)
                 (B2) (A1) (B2) (B2) (A1) (A1) (A1) (B2) (B2) (A1)
                 (B2) (A1) (B2) (A1) (B1) (A1) (B1) (A2) (B2) (A1)
                 (B1) (B2) (B2) (A1) (B1) (A2) (A1) (A2) (B1) (B2)
                 (A1) (B2) (B1) (B2) (A1) (A2) (A1) (A2) (B2) (B1)
                 (B1) (A1) (A2) (A1) (B2) (A1) (B1) (B2) (A1) (B2)
                 (A1) (A1) (B2) (A1) (A1) (B2) (A1) (B2) (B2) (A1)
                 (B2) (B2) (A2) (A1) (A1) (B2) (A1) (B2) (B2) (A1)
                 (B1) (B2) (B2) (A2) (B1) (A1) (A2) (A1) (B1) (A2)
                 (A1) (B1) (A2) (A2) (B2) (A1) (B1) (B2) (A1) (B2)
                 (A1) (A1) (B1) (B2) (A2) (A1) (B2) (B2) (B1) (A1)
                 (A1) (B2) (A1) (B1) (A2) (B2) (B2) (A1) (A2) (B1)
                 (A2) (A1) (A1) (B1) (B1) (A1) (B2) (B2) (A1) (B2)
                 (B1) (A2) (B1) (A1) (B2) (A2) (B2) (B1) (A1) (A1)
                 (A1) (A2) (A2) (B1) (B2) (A2) (B2) (B1) (A1) (A1)
                 (B2) (A1) (B2) (B2) (B1) (B2) (A1) (B2) (A2) (B1)
                 (A1) (A1) (B2) (A2) (A1) (B2) (B2) (B1) (A2) (A1)
                 (B1) (A1) (B2) (A2) (B2) (A1) (A1) (B2) (A1) (A1)
                 (B1) (B2) (B2) (A1) (B1) (B2) (B1) (A2) (A1) (A1)
                 (B2) (A1) (A1) (B1) (A1) (B2) (B2) (A1) (B2) (A1)
                 (B2) (A2) (A1) (B1) (A2) (B1) (B2) (B1) (A2) (A1)
                 (B2) (A2) (B1) (A1) (B1) (A2) (B2) (A1) (B2) (A1)
                 (B2) (A1) (B2) (A1) (A1) (B2) (A1) (A1) (B2) (B2)
                 (A1) (B2) (A1) (B1) (A1) (B2) (A1) (A1) (B2) (B2)
                 (A1) (A1) (B2) (A1) (B2) (B2) (B2) (A1) (A1) (B2)
                 (A1) (A1) (B2) (B2) (A1) (A1) (B2) (A1) (B2) (A1)
                 (A1) (B2)
 The electronic state is 1-A1.
 Alpha  occ. eigenvalues --  -10.52275 -10.47864 -10.47864 -10.47061 -10.47059
 Alpha  occ. eigenvalues --  -10.45938 -10.45937 -10.45641 -10.45555 -10.45555
 Alpha  occ. eigenvalues --  -10.44519 -10.44519 -10.44206 -10.44206  -1.15939
 Alpha  occ. eigenvalues --   -1.12114  -1.06901  -1.05781  -1.01569  -1.00482
 Alpha  occ. eigenvalues --   -0.96307  -0.91856  -0.87484  -0.87010  -0.84934
 Alpha  occ. eigenvalues --   -0.79778  -0.77547  -0.75965  -0.71316  -0.70995
 Alpha  occ. eigenvalues --   -0.70316  -0.70076  -0.69890  -0.66640  -0.66190
 Alpha  occ. eigenvalues --   -0.65090  -0.63870  -0.62044  -0.61619  -0.61245
 Alpha  occ. eigenvalues --   -0.59141  -0.57559  -0.57244  -0.54597  -0.48908
 Alpha  occ. eigenvalues --   -0.48166  -0.46793
 Alpha virt. eigenvalues --   -0.22635  -0.11043  -0.10621  -0.09313  -0.06560
 Alpha virt. eigenvalues --   -0.05595  -0.04898  -0.04103  -0.03568  -0.03243
 Alpha virt. eigenvalues --   -0.02649  -0.02552  -0.01467  -0.01421  -0.00529
 Alpha virt. eigenvalues --    0.00881   0.01102   0.01160   0.01565   0.02607
 Alpha virt. eigenvalues --    0.03703   0.03924   0.04245   0.04735   0.04798
 Alpha virt. eigenvalues --    0.05478   0.06072   0.06267   0.06516   0.06571
 Alpha virt. eigenvalues --    0.06688   0.06822   0.06938   0.07370   0.07760
 Alpha virt. eigenvalues --    0.07940   0.08469   0.08579   0.08751   0.08944
 Alpha virt. eigenvalues --    0.10780   0.11645   0.11704   0.11967   0.12583
 Alpha virt. eigenvalues --    0.12603   0.12662   0.12726   0.13091   0.13373
 Alpha virt. eigenvalues --    0.14249   0.14364   0.14607   0.14910   0.15353
 Alpha virt. eigenvalues --    0.16322   0.16831   0.16898   0.17428   0.17729
 Alpha virt. eigenvalues --    0.18096   0.18906   0.19064   0.19122   0.20320
 Alpha virt. eigenvalues --    0.20444   0.20548   0.21586   0.22370   0.22861
 Alpha virt. eigenvalues --    0.23089   0.23218   0.23933   0.24245   0.24311
 Alpha virt. eigenvalues --    0.25988   0.26513   0.26639   0.27289   0.28274
 Alpha virt. eigenvalues --    0.28429   0.29415   0.29968   0.30634   0.31739
 Alpha virt. eigenvalues --    0.33130   0.34049   0.34180   0.36353   0.39087
 Alpha virt. eigenvalues --    0.39365   0.42714   0.44460   0.45902   0.46288
 Alpha virt. eigenvalues --    0.46389   0.47424   0.47715   0.47901   0.48535
 Alpha virt. eigenvalues --    0.48959   0.49157   0.50136   0.50470   0.52245
 Alpha virt. eigenvalues --    0.53022   0.53218   0.53550   0.54809   0.55181
 Alpha virt. eigenvalues --    0.55592   0.55612   0.56584   0.56760   0.58257
 Alpha virt. eigenvalues --    0.58499   0.58950   0.60128   0.60193   0.61541
 Alpha virt. eigenvalues --    0.62580   0.62989   0.65580   0.66316   0.66324
 Alpha virt. eigenvalues --    0.67161   0.67888   0.68832   0.68953   0.70940
 Alpha virt. eigenvalues --    0.73736   0.74705   0.75000   0.76917   0.77242
 Alpha virt. eigenvalues --    0.80094   0.80397   0.81076   0.81527   0.81602
 Alpha virt. eigenvalues --    0.82053   0.82421   0.82711   0.82854   0.84176
 Alpha virt. eigenvalues --    0.85543   0.86154   0.86363   0.87235   0.89436
 Alpha virt. eigenvalues --    0.91519   0.92298   0.92876   0.93153   0.93928
 Alpha virt. eigenvalues --    0.94129   0.95801   0.96107   0.98995   0.99266
 Alpha virt. eigenvalues --    0.99482   1.04232   1.05150   1.05647   1.05695
 Alpha virt. eigenvalues --    1.06341   1.07177   1.09390   1.10461   1.14260
 Alpha virt. eigenvalues --    1.24505   1.28878   1.28915   1.29573   1.31520
 Alpha virt. eigenvalues --    1.34360   1.36551   1.38624   1.39707   1.40085
 Alpha virt. eigenvalues --    1.43928   1.44064   1.45961   1.47194   1.47279
 Alpha virt. eigenvalues --    1.48120   1.49180   1.49547   1.50274   1.50382
 Alpha virt. eigenvalues --    1.51265   1.52569   1.56166   1.57859   1.59833
 Alpha virt. eigenvalues --    1.60108   1.60624   1.60786   1.62469   1.66075
 Alpha virt. eigenvalues --    1.68090   1.68254   1.68633   1.71261   1.73039
 Alpha virt. eigenvalues --    1.73047   1.73767   1.74317   1.79602   1.80598
 Alpha virt. eigenvalues --    1.82362   1.82997   1.84816   1.85325   1.85586
 Alpha virt. eigenvalues --    1.87766   1.88221   1.88997   1.89092   1.89431
 Alpha virt. eigenvalues --    1.89584   1.91075   1.91297   1.93310   1.96421
 Alpha virt. eigenvalues --    1.97505   1.99631   2.00696   2.02839   2.03316
 Alpha virt. eigenvalues --    2.06022   2.08223   2.09644   2.12509   2.17336
 Alpha virt. eigenvalues --    2.17853   2.20180   2.20382   2.24560   2.27130
 Alpha virt. eigenvalues --    2.28115   2.34400   2.35771   2.40065   2.40642
 Alpha virt. eigenvalues --    2.41088   2.43170   2.44064   2.47999   2.50606
 Alpha virt. eigenvalues --    2.51225   2.51996   2.55567   2.59265   2.59336
 Alpha virt. eigenvalues --    2.60147   2.61909   2.61964   2.65399   2.66226
 Alpha virt. eigenvalues --    2.66652   2.68380   2.68835   2.69972   2.70501
 Alpha virt. eigenvalues --    2.70589   2.71951   2.72267   2.72467   2.74111
 Alpha virt. eigenvalues --    2.74530   2.75406   2.77292   2.77793   2.79319
 Alpha virt. eigenvalues --    2.80555   2.84034   2.84098   2.87313   2.88100
 Alpha virt. eigenvalues --    2.90288   2.90795   2.96489   3.03685   3.03824
 Alpha virt. eigenvalues --    3.04368   3.08359   3.15007   3.16027   3.17153
 Alpha virt. eigenvalues --    3.24497   3.27691   3.30295   3.31972   3.34847
 Alpha virt. eigenvalues --    3.36607   3.38117   3.47502   3.50017   3.50747
 Alpha virt. eigenvalues --    3.53276   3.55431   3.61075   3.71221   3.71672
 Alpha virt. eigenvalues --    3.72065   3.99164   3.99746   4.00093   4.01569
 Alpha virt. eigenvalues --    4.09354   4.12324   4.13284   4.18197   4.42162
 Alpha virt. eigenvalues --    4.67814   4.77129   4.79122  23.49384  23.64681
 Alpha virt. eigenvalues --   23.86584  23.89810  23.92261  23.93653  23.95033
 Alpha virt. eigenvalues --   23.96592  24.02059  24.03965  24.04134  24.04353
 Alpha virt. eigenvalues --   24.14902  24.14992
          Condensed to atoms (all electrons):
               1          2          3          4          5          6
     1  C    8.202105   0.256060  -0.531997   1.791667  -0.013243  -0.074730
     2  C    0.256060   6.699448   0.455000  -0.982093  -0.010315  -0.009076
     3  C   -0.531997   0.455000   6.278383   0.646089  -0.103637   0.013040
     4  C    1.791667  -0.982093   0.646089  10.086046  -0.257421  -0.103637
     5  C   -0.013243  -0.010315  -0.103637  -0.257421  10.086046   0.646089
     6  C   -0.074730  -0.009076   0.013040  -0.103637   0.646089   6.278383
     7  C   -0.010969   0.000440  -0.009076  -0.010315  -0.982093   0.455000
     8  C    0.392494  -0.010969  -0.074730  -0.013243   1.791667  -0.531997
     9  C   -1.099126  -0.648834   0.260903  -0.229718  -0.229718   0.260903
    10  C   -1.132825   0.241146  -0.255373  -2.154697  -2.154697  -0.255373
    11  C    0.221592  -0.619986   0.814234  -0.369878  -1.255682  -0.131203
    12  C   -1.858864   1.066578  -1.080926  -1.274793  -0.261550  -0.155373
    13  C    0.212898  -0.185993  -0.131203  -1.255682  -0.369878   0.814234
    14  C   -0.933649  -0.157667  -0.155373  -0.261550  -1.274793  -1.080926
    15  H    0.380992  -0.093667   0.000034   0.029814   0.005678   0.000701
    16  H   -0.010345   0.375443  -0.025252   0.013135  -0.001315  -0.000287
    17  H   -0.023271  -0.020948   0.378997  -0.057665   0.000061   0.000325
    18  H    0.052662   0.005077  -0.078267   0.453857   0.007298  -0.004542
    19  H   -0.047305  -0.005098   0.042276  -0.068358  -0.068358   0.042276
    20  H    0.006415   0.001480  -0.004542   0.007298   0.453857  -0.078267
    21  H   -0.001204  -0.000327   0.000325   0.000061  -0.057665   0.378997
    22  H    0.000648   0.000301  -0.000287  -0.001315   0.013135  -0.025252
    23  H    0.003706  -0.002976   0.000701   0.005678   0.029814   0.000034
    24  H    0.022864   0.010839  -0.000227  -0.010465  -0.010465  -0.000227
    25  H    0.022864   0.010839  -0.000227  -0.010465  -0.010465  -0.000227
               7          8          9         10         11         12
     1  C   -0.010969   0.392494  -1.099126  -1.132825   0.221592  -1.858864
     2  C    0.000440  -0.010969  -0.648834   0.241146  -0.619986   1.066578
     3  C   -0.009076  -0.074730   0.260903  -0.255373   0.814234  -1.080926
     4  C   -0.010315  -0.013243  -0.229718  -2.154697  -0.369878  -1.274793
     5  C   -0.982093   1.791667  -0.229718  -2.154697  -1.255682  -0.261550
     6  C    0.455000  -0.531997   0.260903  -0.255373  -0.131203  -0.155373
     7  C    6.699448   0.256060  -0.648834   0.241146  -0.185993  -0.157667
     8  C    0.256060   8.202105  -1.099126  -1.132825   0.212898  -0.933649
     9  C   -0.648834  -1.099126   8.838552   0.341168   1.351832  -1.442136
    10  C    0.241146  -1.132825   0.341168   8.473205  -0.312379   2.020553
    11  C   -0.185993   0.212898   1.351832  -0.312379  12.930252  -2.953015
    12  C   -0.157667  -0.933649  -1.442136   2.020553  -2.953015  14.201844
    13  C   -0.619986   0.221592   1.351832  -0.312379   0.878767  -4.042263
    14  C    1.066578  -1.858864  -1.442136   2.020553  -4.042263   2.516117
    15  H   -0.002976   0.003706   0.074305  -0.010281  -0.032653  -0.023078
    16  H    0.000301   0.000648   0.005505  -0.009300   0.024068  -0.032963
    17  H   -0.000327  -0.001204  -0.004930   0.016401  -0.024209   0.078613
    18  H    0.001480   0.006415  -0.025963   0.014588  -0.025533  -0.040590
    19  H   -0.005098  -0.047305   0.074438   0.424791   0.068186  -0.051955
    20  H    0.005077   0.052662  -0.025963   0.014588  -0.015020  -0.011076
    21  H   -0.020948  -0.023271  -0.004930   0.016401  -0.006013   0.002962
    22  H    0.375443  -0.010345   0.005505  -0.009300   0.001614  -0.008043
    23  H   -0.093667   0.380992   0.074305  -0.010281  -0.003424   0.004547
    24  H    0.010839   0.022864   0.346653   0.003140   0.014072  -0.045537
    25  H    0.010839   0.022864   0.346653   0.003140   0.014072  -0.045537
              13         14         15         16         17         18
     1  C    0.212898  -0.933649   0.380992  -0.010345  -0.023271   0.052662
     2  C   -0.185993  -0.157667  -0.093667   0.375443  -0.020948   0.005077
     3  C   -0.131203  -0.155373   0.000034  -0.025252   0.378997  -0.078267
     4  C   -1.255682  -0.261550   0.029814   0.013135  -0.057665   0.453857
     5  C   -0.369878  -1.274793   0.005678  -0.001315   0.000061   0.007298
     6  C    0.814234  -1.080926   0.000701  -0.000287   0.000325  -0.004542
     7  C   -0.619986   1.066578  -0.002976   0.000301  -0.000327   0.001480
     8  C    0.221592  -1.858864   0.003706   0.000648  -0.001204   0.006415
     9  C    1.351832  -1.442136   0.074305   0.005505  -0.004930  -0.025963
    10  C   -0.312379   2.020553  -0.010281  -0.009300   0.016401   0.014588
    11  C    0.878767  -4.042263  -0.032653   0.024068  -0.024209  -0.025533
    12  C   -4.042263   2.516117  -0.023078  -0.032963   0.078613  -0.040590
    13  C   12.930252  -2.953015  -0.003424   0.001614  -0.006013  -0.015020
    14  C   -2.953015  14.201844   0.004547  -0.008043   0.002962  -0.011076
    15  H   -0.003424   0.004547   0.423242  -0.007148   0.001286   0.000587
    16  H    0.001614  -0.008043  -0.007148   0.403025  -0.004623   0.001792
    17  H   -0.006013   0.002962   0.001286  -0.004623   0.406362  -0.008439
    18  H   -0.015020  -0.011076   0.000587   0.001792  -0.008439   0.435155
    19  H    0.068186  -0.051955   0.000066  -0.000413   0.001218  -0.006387
    20  H   -0.025533  -0.040590  -0.000048   0.000006  -0.000133   0.001355
    21  H   -0.024209   0.078613   0.000007  -0.000007   0.000007  -0.000133
    22  H    0.024068  -0.032963  -0.000098   0.000004  -0.000007   0.000006
    23  H   -0.032653  -0.023078   0.000564  -0.000098   0.000007  -0.000048
    24  H    0.014072  -0.045537  -0.000489   0.000427  -0.000110  -0.000019
    25  H    0.014072  -0.045537  -0.000489   0.000427  -0.000110  -0.000019
              19         20         21         22         23         24
     1  C   -0.047305   0.006415  -0.001204   0.000648   0.003706   0.022864
     2  C   -0.005098   0.001480  -0.000327   0.000301  -0.002976   0.010839
     3  C    0.042276  -0.004542   0.000325  -0.000287   0.000701  -0.000227
     4  C   -0.068358   0.007298   0.000061  -0.001315   0.005678  -0.010465
     5  C   -0.068358   0.453857  -0.057665   0.013135   0.029814  -0.010465
     6  C    0.042276  -0.078267   0.378997  -0.025252   0.000034  -0.000227
     7  C   -0.005098   0.005077  -0.020948   0.375443  -0.093667   0.010839
     8  C   -0.047305   0.052662  -0.023271  -0.010345   0.380992   0.022864
     9  C    0.074438  -0.025963  -0.004930   0.005505   0.074305   0.346653
    10  C    0.424791   0.014588   0.016401  -0.009300  -0.010281   0.003140
    11  C    0.068186  -0.015020  -0.006013   0.001614  -0.003424   0.014072
    12  C   -0.051955  -0.011076   0.002962  -0.008043   0.004547  -0.045537
    13  C    0.068186  -0.025533  -0.024209   0.024068  -0.032653   0.014072
    14  C   -0.051955  -0.040590   0.078613  -0.032963  -0.023078  -0.045537
    15  H    0.000066  -0.000048   0.000007  -0.000098   0.000564  -0.000489
    16  H   -0.000413   0.000006  -0.000007   0.000004  -0.000098   0.000427
    17  H    0.001218  -0.000133   0.000007  -0.000007   0.000007  -0.000110
    18  H   -0.006387   0.001355  -0.000133   0.000006  -0.000048  -0.000019
    19  H    0.417062  -0.006387   0.001218  -0.000413   0.000066   0.000576
    20  H   -0.006387   0.435155  -0.008439   0.001792   0.000587  -0.000019
    21  H    0.001218  -0.008439   0.406362  -0.004623   0.001286  -0.000110
    22  H   -0.000413   0.001792  -0.004623   0.403025  -0.007148   0.000427
    23  H    0.000066   0.000587   0.001286  -0.007148   0.423242  -0.000489
    24  H    0.000576  -0.000019  -0.000110   0.000427  -0.000489   0.466532
    25  H    0.000576  -0.000019  -0.000110   0.000427  -0.000489  -0.064851
              25
     1  C    0.022864
     2  C    0.010839
     3  C   -0.000227
     4  C   -0.010465
     5  C   -0.010465
     6  C   -0.000227
     7  C    0.010839
     8  C    0.022864
     9  C    0.346653
    10  C    0.003140
    11  C    0.014072
    12  C   -0.045537
    13  C    0.014072
    14  C   -0.045537
    15  H   -0.000489
    16  H    0.000427
    17  H   -0.000110
    18  H   -0.000019
    19  H    0.000576
    20  H   -0.000019
    21  H   -0.000110
    22  H    0.000427
    23  H   -0.000489
    24  H   -0.064851
    25  H    0.466532
 Mulliken charges:
               1
     1  C    0.170563
     2  C   -0.374702
     3  C   -0.438868
     4  C    0.027649
     5  C    0.027649
     6  C   -0.438868
     7  C   -0.374702
     8  C    0.170563
     9  C   -0.431138
    10  C   -0.081114
    11  C   -0.554336
    12  C    0.527802
    13  C   -0.554336
    14  C    0.527802
    15  H    0.248822
    16  H    0.273397
    17  H    0.265749
    18  H    0.235764
    19  H    0.218096
    20  H    0.235764
    21  H    0.265749
    22  H    0.273397
    23  H    0.248822
    24  H    0.265237
    25  H    0.265237
 Sum of Mulliken charges =   1.00000
 Mulliken charges with hydrogens summed into heavy atoms:
               1
     1  C    0.419385
     2  C   -0.101305
     3  C   -0.173118
     4  C    0.263413
     5  C    0.263413
     6  C   -0.173118
     7  C   -0.101305
     8  C    0.419385
     9  C    0.099336
    10  C    0.136982
    11  C   -0.554336
    12  C    0.527802
    13  C   -0.554336
    14  C    0.527802
 APT charges:
               1
     1  C    1.834598
     2  C    0.492201
     3  C    1.730694
     4  C   -2.316859
     5  C   -2.316859
     6  C    1.730693
     7  C    0.492201
     8  C    1.834598
     9  C    0.417334
    10  C   -1.262724
    11  C   -2.200133
    12  C    0.632894
    13  C   -2.200133
    14  C    0.632894
    15  H    0.068068
    16  H    0.065167
    17  H    0.119790
    18  H    0.076423
    19  H    0.060528
    20  H    0.076423
    21  H    0.119790
    22  H    0.065167
    23  H    0.068068
    24  H    0.389588
    25  H    0.389588
 Sum of APT charges =   1.00000
 APT charges with hydrogens summed into heavy atoms:
               1
     1  C    1.902666
     2  C    0.557368
     3  C    1.850484
     4  C   -2.240436
     5  C   -2.240436
     6  C    1.850484
     7  C    0.557368
     8  C    1.902666
     9  C    1.196510
    10  C   -1.202196
    11  C   -2.200133
    12  C    0.632894
    13  C   -2.200133
    14  C    0.632894
 Electronic spatial extent (au):  <R**2>=           2867.5484
 Charge=              1.0000 electrons
 Dipole moment (field-independent basis, Debye):
    X=             -0.0000    Y=             -0.0000    Z=             -0.2203  Tot=              0.2203
 Quadrupole moment (field-independent basis, Debye-Ang):
   XX=            -83.4367   YY=            -30.7500   ZZ=            -55.6639
   XY=              0.0000   XZ=             -0.0000   YZ=             -0.0000
 Traceless Quadrupole moment (field-independent basis, Debye-Ang):
   XX=            -26.8198   YY=             25.8668   ZZ=              0.9529
   XY=              0.0000   XZ=             -0.0000   YZ=             -0.0000
 Octapole moment (field-independent basis, Debye-Ang**2):
  XXX=              0.0000  YYY=              0.0000  ZZZ=             -5.5117  XYY=             -0.0000
  XXY=             -0.0000  XXZ=              3.1024  XZZ=              0.0000  YZZ=              0.0000
  YYZ=              5.1718  XYZ=             -0.0000
 Hexadecapole moment (field-independent basis, Debye-Ang**3):
 XXXX=            -97.7129 YYYY=          -2112.1800 ZZZZ=           -604.2753 XXXY=             -0.0000
 XXXZ=             -0.0000 YYYX=             -0.0000 YYYZ=              0.0000 ZZZX=             -0.0000
 ZZZY=             -0.0000 XXYY=           -588.6684 XXZZ=           -144.6478 YYZZ=           -505.2783
 XXYZ=              0.0000 YYXZ=             -0.0000 ZZXY=             -0.0000
 N-N= 7.793121464862D+02 E-N=-2.795417343495D+03  KE= 5.372742312727D+02
 Symmetry A1   KE= 2.953744830198D+02
 Symmetry A2   KE= 6.524343640907D+00
 Symmetry B1   KE= 8.265560700753D+00
 Symmetry B2   KE= 2.271098439111D+02
  Exact polarizability:      75.938      -0.000     915.929      -0.000       0.000     155.233
 Approx polarizability:      96.120       0.000     277.229       0.000       0.000     198.508
 Calling FoFJK, ICntrl=  10105127 FMM=F ISym2X=1 I1Cent= 0 IOpClX= 0 NMat=1 NMatS=1 NMatT=0.
 Calling FoFJK, ICntrl=  10002127 FMM=F ISym2X=1 I1Cent= 0 IOpClX= 0 NMat=1 NMatS=1 NMatT=0.
 ***** Axes restored to original set *****
 -------------------------------------------------------------------
 Center     Atomic                   Forces (Hartrees/Bohr)
 Number     Number              X              Y              Z
 -------------------------------------------------------------------
      1        6           0.000275718   -0.001528301    0.000000000
      2        6          -0.001623619   -0.000763506    0.000000000
      3        6          -0.001650453    0.000731043    0.000000000
      4        6          -0.000623786    0.001490389   -0.000000000
      5        6           0.000623786    0.001490389   -0.000000000
      6        6           0.001650453    0.000731043   -0.000000000
      7        6           0.001623619   -0.000763506   -0.000000000
      8        6          -0.000275718   -0.001528301    0.000000000
      9        6           0.000000000   -0.000068901    0.000000000
     10        6          -0.000000000    0.000835135   -0.000000000
     11        6           0.000166835   -0.000936156    0.000000000
     12        6           0.001804838    0.000820246   -0.000000000
     13        6          -0.000166835   -0.000936156    0.000000000
     14        6          -0.001804838    0.000820246   -0.000000000
     15        1           0.000234667   -0.000059599   -0.000000000
     16        1           0.000162423    0.000097323    0.000000000
     17        1           0.000148972   -0.000062258    0.000000000
     18        1           0.000276209   -0.000030881   -0.000000000
     19        1          -0.000000000    0.000232627   -0.000000000
     20        1          -0.000276209   -0.000030881    0.000000000
     21        1          -0.000148972   -0.000062258    0.000000000
     22        1          -0.000162423    0.000097323    0.000000000
     23        1          -0.000234667   -0.000059599    0.000000000
     24        1          -0.000000000   -0.000257732    0.000199586
     25        1           0.000000000   -0.000257732   -0.000199586
 -------------------------------------------------------------------
 Cartesian Forces:  Max     0.001804838 RMS     0.000673622
 -------------------------------------------------------------------
 Center     Atomic                Nonadiabatic Coup. (Bohr^-1)
 Number     Number              X              Y              Z
 -------------------------------------------------------------------
      1        6          -0.363963550   -0.051892479   -0.000000000
      2        6           0.124976924   -0.234073817   -0.000000000
      3        6           0.188589443    0.241146009    0.000000000
      4        6          -0.144798651   -0.060184532   -0.000000000
      5        6           0.144798651   -0.060184532    0.000000000
      6        6          -0.188589443    0.241146009    0.000000000
      7        6          -0.124976924   -0.234073817    0.000000000
      8        6           0.363963550   -0.051892479   -0.000000000
      9        6           0.000000000    0.237026078    0.000000000
     10        6           0.000000000   -0.089544912   -0.000000000
     11        6           0.211648835    0.040606695    0.000000000
     12        6          -0.004663053    0.070878833   -0.000000000
     13        6          -0.211648835    0.040606695   -0.000000000
     14        6           0.004663053    0.070878833    0.000000000
     15        1          -0.001127337   -0.001273707   -0.000000000
     16        1           0.006586127   -0.008761332    0.000000000
     17        1          -0.001736650   -0.000249714    0.000000000
     18        1           0.001972380   -0.007078888    0.000000000
     19        1           0.000000000   -0.007044088   -0.000000000
     20        1          -0.001972380   -0.007078888    0.000000000
     21        1           0.001736650   -0.000249714    0.000000000
     22        1          -0.006586127   -0.008761332    0.000000000
     23        1           0.001127337   -0.001273707    0.000000000
     24        1           0.000000000   -0.021707235    0.004371409
     25        1           0.000000000   -0.021707235   -0.004371409
 -------------------------------------------------------------------
 Cartesian Nonad. Coup.:  Max     0.363963550 RMS     0.104328076
 FormGI is forming the generalized inverse of G from B-inverse, IUseBI=4.

 GradGradGradGradGradGradGradGradGradGradGradGradGradGradGradGradGradGrad
 Berny optimization.
 Internal  Forces:  Max     0.001918599 RMS     0.000519076
 Search for a saddle point.
 Step number   1 out of a maximum of  150
 All quantities printed in internal units (Hartrees-Bohrs-Radians)
 Swapping is turned off.
 Second derivative matrix not updated -- analytic derivatives used.
 ITU=  0
     Eigenvalues ---   -0.02306   0.00123   0.00981   0.00991   0.01336
     Eigenvalues ---    0.01353   0.01398   0.01458   0.01583   0.01609
     Eigenvalues ---    0.01653   0.01815   0.01836   0.02283   0.02309
     Eigenvalues ---    0.02346   0.02346   0.02613   0.02626   0.02711
     Eigenvalues ---    0.02729   0.03187   0.04450   0.08720   0.09057
     Eigenvalues ---    0.11207   0.11246   0.11853   0.11918   0.12397
     Eigenvalues ---    0.12401   0.12632   0.12695   0.13185   0.17735
     Eigenvalues ---    0.18028   0.18717   0.19066   0.19311   0.19861
     Eigenvalues ---    0.20049   0.20119   0.21186   0.25671   0.28777
     Eigenvalues ---    0.29010   0.30029   0.30958   0.32458   0.33448
     Eigenvalues ---    0.35449   0.35937   0.36000   0.36187   0.36264
     Eigenvalues ---    0.36601   0.36632   0.36700   0.36808   0.36875
     Eigenvalues ---    0.37437   0.38733   0.39053   0.41525   0.42286
     Eigenvalues ---    0.44895   0.45404   0.48904   0.49918
 Eigenvectors required to have negative eigenvalues:
                          R6        R10       R17       R2        R24
   1                   -0.36922   0.36922   0.34784  -0.34784   0.19860
                          R23       R8        R11       A19       A4
   1                   -0.19860   0.16755  -0.16755  -0.14663   0.14663
 RFO step:  Lambda0=0.000000000D+00 Lambda=-8.39509757D-05.
 Linear search not attempted -- option 19 set.
 Iteration  1 RMS(Cart)=  0.00236725 RMS(Int)=  0.00000150
 Iteration  2 RMS(Cart)=  0.00000204 RMS(Int)=  0.00000019
 Iteration  3 RMS(Cart)=  0.00000000 RMS(Int)=  0.00000019
 ClnCor:  largest displacement from symmetrization is 4.85D-08 for atom    25.
 Variable       Old X    -DE/DX   Delta X   Delta X   Delta X     New X
                                 (Linear)    (Quad)   (Total)
    R1        2.63516  -0.00170   0.00000  -0.00341  -0.00341   2.63175
    R2        2.66732  -0.00115   0.00000  -0.00209  -0.00209   2.66523
    R3        2.05100  -0.00006   0.00000  -0.00009  -0.00009   2.05091
    R4        2.62571  -0.00157   0.00000  -0.00292  -0.00292   2.62278
    R5        2.04462   0.00019   0.00000   0.00057   0.00057   2.04518
    R6        2.65967  -0.00176   0.00000  -0.00352  -0.00352   2.65614
    R7        2.04668   0.00016   0.00000   0.00049   0.00049   2.04717
    R8        2.65239  -0.00190   0.00000  -0.00413  -0.00413   2.64825
    R9        2.04969   0.00003   0.00000   0.00008   0.00008   2.04978
   R10        2.65967  -0.00176   0.00000  -0.00352  -0.00352   2.65614
   R11        2.65239  -0.00190   0.00000  -0.00413  -0.00413   2.64825
   R12        2.04969   0.00003   0.00000   0.00008   0.00008   2.04978
   R13        2.62571  -0.00157   0.00000  -0.00292  -0.00292   2.62278
   R14        2.04668   0.00016   0.00000   0.00049   0.00049   2.04717
   R15        2.63516  -0.00170   0.00000  -0.00341  -0.00341   2.63175
   R16        2.04462   0.00019   0.00000   0.00057   0.00057   2.04518
   R17        2.66732  -0.00115   0.00000  -0.00209  -0.00209   2.66523
   R18        2.05100  -0.00006   0.00000  -0.00009  -0.00009   2.05091
   R19        2.80715  -0.00045   0.00000  -0.00120  -0.00120   2.80595
   R20        2.80715  -0.00045   0.00000  -0.00120  -0.00120   2.80595
   R21        2.08915  -0.00032   0.00000  -0.00098  -0.00098   2.08818
   R22        2.08915  -0.00032   0.00000  -0.00098  -0.00098   2.08818
   R23        2.69277  -0.00068   0.00000  -0.00095  -0.00095   2.69183
   R24        2.69277  -0.00068   0.00000  -0.00095  -0.00095   2.69183
   R25        2.04666  -0.00023   0.00000  -0.00056  -0.00056   2.04610
   R26        2.66640  -0.00192   0.00000  -0.00422  -0.00422   2.66218
   R27        2.66640  -0.00192   0.00000  -0.00422  -0.00422   2.66218
    A1        2.11643  -0.00001   0.00000   0.00008   0.00008   2.11651
    A2        2.09207  -0.00024   0.00000  -0.00201  -0.00201   2.09007
    A3        2.07469   0.00024   0.00000   0.00193   0.00193   2.07661
    A4        2.07631   0.00003   0.00000   0.00034   0.00034   2.07665
    A5        2.10023  -0.00002   0.00000  -0.00026  -0.00026   2.09998
    A6        2.10665  -0.00001   0.00000  -0.00009  -0.00009   2.10656
    A7        2.10022   0.00002   0.00000  -0.00011  -0.00011   2.10011
    A8        2.10108  -0.00003   0.00000  -0.00032  -0.00032   2.10076
    A9        2.08189   0.00002   0.00000   0.00043   0.00043   2.08232
   A10        2.11969  -0.00012   0.00000  -0.00090  -0.00090   2.11878
   A11        2.08333  -0.00022   0.00000  -0.00167  -0.00167   2.08166
   A12        2.08017   0.00035   0.00000   0.00257   0.00257   2.08274
   A13        2.11969  -0.00012   0.00000  -0.00090  -0.00090   2.11878
   A14        2.08333  -0.00022   0.00000  -0.00167  -0.00167   2.08166
   A15        2.08017   0.00035   0.00000   0.00257   0.00257   2.08274
   A16        2.10022   0.00002   0.00000  -0.00011  -0.00011   2.10011
   A17        2.08189   0.00002   0.00000   0.00043   0.00043   2.08232
   A18        2.10108  -0.00003   0.00000  -0.00032  -0.00032   2.10076
   A19        2.07631   0.00003   0.00000   0.00034   0.00034   2.07665
   A20        2.10665  -0.00001   0.00000  -0.00009  -0.00009   2.10656
   A21        2.10023  -0.00002   0.00000  -0.00026  -0.00026   2.09998
   A22        2.11643  -0.00001   0.00000   0.00008   0.00008   2.11651
   A23        2.09207  -0.00024   0.00000  -0.00201  -0.00201   2.09007
   A24        2.07469   0.00024   0.00000   0.00193   0.00193   2.07661
   A25        2.03700  -0.00004   0.00000   0.00013   0.00013   2.03714
   A26        1.90440   0.00000   0.00000  -0.00018  -0.00018   1.90422
   A27        1.90440   0.00000   0.00000  -0.00018  -0.00018   1.90422
   A28        1.90440   0.00000   0.00000  -0.00018  -0.00018   1.90422
   A29        1.90440   0.00000   0.00000  -0.00018  -0.00018   1.90422
   A30        1.79354   0.00005   0.00000   0.00066   0.00066   1.79420
   A31        2.11283   0.00040   0.00000   0.00180   0.00181   2.11464
   A32        2.08518  -0.00020   0.00000  -0.00090  -0.00090   2.08427
   A33        2.08518  -0.00020   0.00000  -0.00090  -0.00090   2.08427
   A34        2.08221   0.00030   0.00000   0.00120   0.00120   2.08341
   A35        2.09494  -0.00034   0.00000  -0.00159  -0.00159   2.09335
   A36        2.10604   0.00004   0.00000   0.00039   0.00039   2.10643
   A37        2.12216  -0.00020   0.00000  -0.00082  -0.00082   2.12134
   A38        2.05880   0.00042   0.00000   0.00218   0.00218   2.06098
   A39        2.10223  -0.00022   0.00000  -0.00136  -0.00136   2.10087
   A40        2.08221   0.00030   0.00000   0.00120   0.00120   2.08341
   A41        2.09494  -0.00034   0.00000  -0.00159  -0.00159   2.09335
   A42        2.10604   0.00004   0.00000   0.00039   0.00039   2.10643
   A43        2.12216  -0.00020   0.00000  -0.00082  -0.00082   2.12134
   A44        2.05880   0.00042   0.00000   0.00218   0.00218   2.06098
   A45        2.10223  -0.00022   0.00000  -0.00136  -0.00136   2.10087
    D1        0.00000  -0.00000   0.00000   0.00000   0.00000   0.00000
    D2        3.14159  -0.00000   0.00000   0.00000   0.00000   3.14159
    D3        3.14159   0.00000   0.00000   0.00000   0.00000   3.14159
[...]
 74918,-0.00000001,0.03218238,-0.00092789,0.00000001,0.59617226,-0.0080
 5945,-0.01637640,0.,-0.02115311,0.02112878,0.,-0.03270222,-0.03752332,
 0.,0.03469583,0.00695427,0.,-0.02886265,-0.02912318,0.,-0.00493431,-0.
 00524606,0.,0.00025999,0.03984197,0.,0.03061040,-0.16126252,0.,-0.0718
 1023,-0.13110146,0.,0.06478350,-0.03003662,0.,0.04474918,0.05345561,-0
 .00000002,-0.01221730,-0.03108761,0.00000001,0.02655450,0.61965883,0.,
 0.,0.00198068,0.,0.,-0.00035649,0.,0.,-0.00067333,0.,0.,-0.00081898,0.
 ,0.,0.00037755,0.,0.,-0.00335544,0.,0.,0.00687085,0.,0.,-0.06166275,0.
 ,0.,-0.06394076,0.,0.,0.00393316,0.,-0.00000001,-0.00091422,0.,0.,0.00
 043870,0.,0.,0.15891493,-0.03468334,-0.00491152,0.,0.00226535,-0.00814
 835,0.,-0.01828317,-0.01651877,0.,0.04544493,-0.00424065,0.,-0.2084184
 1,-0.11508454,0.,-0.07849887,0.05181808,0.,-0.01180271,-0.03059393,0.,
 -0.00496344,0.03438457,0.,-0.00177318,-0.02522577,0.,-0.19653754,0.079
 36330,0.,0.03218239,0.01221729,0.00000001,-0.07644623,0.01123723,-0.00
 000001,-0.09945329,-0.00145832,0.,0.66317203,-0.01712119,0.00560144,0.
 ,0.01680685,-0.02908796,0.,0.01341439,0.02253098,0.,-0.00170557,-0.007
 32159,0.,-0.07529062,-0.17956995,0.,-0.00061499,0.03503830,-0.00000001
 ,-0.01772999,-0.02194926,0.,0.06252756,-0.02897724,0.00000002,-0.01144
 368,-0.01743985,0.,0.05253498,-0.16092583,0.,0.00092791,-0.03108760,0.
 00000002,-0.01123720,0.05984839,-0.00000004,-0.03397662,-0.25755946,0.
 00000002,0.01843029,0.63315320,0.00000002,0.,0.00042491,-0.00000002,0.
 00000002,-0.00037721,0.,-0.00000001,-0.00082207,-0.00000002,0.,0.00394
 312,-0.00000001,0.,-0.06090171,0.,0.00000002,0.00420986,-0.00000002,-0
 .00000003,0.00105648,0.00000002,0.00000001,0.00404036,0.,-0.00000001,0
 .01389456,0.,0.,-0.04956268,0.00000001,0.00000003,0.00043870,0.0000000
 2,-0.00000004,0.00076075,0.,-0.00000002,-0.06476200,0.00000002,0.00000
 002,0.13069916,-0.06067355,-0.00026006,0.,0.00568832,0.02800170,0.,-0.
 00479037,0.00297824,0.,-0.00140857,0.00001545,0.,-0.00026211,0.0000648
 3,0.,0.00011271,-0.00007897,0.,0.00000894,-0.00000502,0.,0.00023195,-0
 .00004101,0.,0.00119584,-0.00043873,0.,0.00056702,-0.00139002,0.,0.003
 75815,-0.02804168,0.,-0.00480974,-0.00191226,0.,-0.00043403,0.00008394
 ,0.,0.00036393,0.00008881,0.,0.06039083,0.00038505,-0.34277950,0.,-0.0
 0335719,-0.00892891,0.,0.00289434,0.00015112,0.,-0.00039588,0.00062420
 ,0.,-0.00038679,0.00002023,0.,0.00005106,0.00001906,0.,-0.00011215,-0.
 00021875,0.,0.00034243,-0.00000564,0.,0.00125493,0.00107715,0.,0.00051
 144,-0.00048625,0.,0.00239549,-0.01036247,0.,-0.00225096,0.00036512,0.
 ,-0.00045449,-0.00026531,0.,0.00034715,0.00046174,0.,0.00015455,0.3601
 3068,0.,0.,-0.04066069,0.,0.,0.00892312,0.,0.,0.00630530,0.,0.,-0.0010
 0854,0.,0.,-0.00004181,0.,0.,0.00002774,0.,0.,-0.00018323,0.,0.,0.0002
 9895,0.,0.,-0.00130566,0.,0.,0.00044081,0.,0.,0.00444542,0.,0.,0.00450
 276,0.,0.,0.00006207,0.,0.,-0.00005048,0.,0.,0.02375064,-0.01629409,-0
 .01488515,0.,-0.27844614,-0.12565750,0.,0.00608642,0.00371895,0.,0.000
 27480,0.00100166,0.,-0.00113691,0.00004176,0.,0.00052079,-0.00045448,0
 .,0.00007851,-0.00029687,0.,0.00083936,-0.00029417,0.,-0.00041200,-0.0
 0086206,0.,-0.00037111,-0.00009371,0.,-0.00293813,0.00344520,0.,0.0005
 1728,0.00040751,0.,-0.00102200,0.00054324,0.,0.00045395,0.00039993,0.,
 0.00067657,0.00008684,0.,0.29029053,0.01752063,0.01241458,0.,-0.125770
 40,-0.13237490,0.,-0.02732950,-0.00892149,0.,-0.00013253,-0.00568616,0
 .,-0.00111593,0.00018982,0.,0.00084882,-0.00086685,0.,0.00045465,0.000
 17852,0.,0.00083937,-0.00024860,0.,0.00079395,0.00068143,0.,-0.0008289
 4,0.00016923,0.,0.00245924,-0.00208934,0.,0.00108773,-0.00045105,0.,-0
 .00098425,0.00051876,0.,0.00021269,-0.00038123,0.,-0.00029527,0.000603
 07,0.,0.13299797,0.13594243,0.,0.,0.00337968,0.,0.,-0.03843029,0.,0.,0
 .00447535,0.,0.,0.00779695,0.,0.,0.00004557,0.,0.,-0.00008022,0.,0.,-0
 .00007367,0.,0.,0.00003801,0.,0.,0.00018586,0.,0.,-0.00084822,0.,0.,0.
 00681194,0.,0.,-0.00148265,0.,0.,0.00006259,0.,0.,0.00015142,0.,0.,-0.
 00358364,0.,0.,0.02576981,0.00017248,-0.00129014,0.,0.00596021,-0.0036
 8814,0.,-0.27267218,0.12715583,0.,-0.01594488,0.01564820,0.,0.00127740
 ,-0.00000246,0.,-0.00072051,0.00060314,0.,-0.00017901,0.00023099,0.,-0
 .00104993,0.00025175,0.,-0.00024702,0.00003555,0.,0.00024276,0.0010945
 2,0.,0.00124489,-0.00027654,0.,-0.00304514,-0.00366308,0.,0.00109506,-
 0.00040815,0.,-0.00081241,-0.00049551,0.,0.00020118,-0.00023184,0.,0.0
 0051454,0.00021575,0.,0.28360229,-0.00061876,-0.00609242,0.,0.02723178
 ,-0.00850261,0.,0.12793764,-0.13859602,0.,-0.01624325,0.01212735,0.,0.
 00020292,0.00001524,0.,-0.00027278,0.00027906,0.,-0.00015616,-0.000158
 35,0.,-0.00013000,0.00010644,0.,0.00009993,0.00019223,0.,-0.00001688,0
 .00075982,0.,-0.00043968,-0.00033975,0.,-0.00369555,-0.00184808,0.,0.0
 0028549,-0.00041182,0.,-0.00029352,0.00013870,0.,0.00134125,-0.0005251
 4,0.,-0.00021586,0.00076355,0.,-0.13506533,0.14151044,0.,0.,0.00740603
 ,0.,0.,0.00875776,0.,0.,-0.04207868,0.,0.,0.00534474,0.,0.,-0.00026223
 ,0.,0.,-0.00031975,0.,0.,-0.00033173,0.,0.,0.00047224,0.,0.,0.00004268
 ,0.,0.,-0.00007343,0.,0.,-0.00155307,0.,0.,0.00473972,0.,0.,0.00044067
 ,0.,0.,0.00009491,0.,0.,-0.00151936,0.,0.,-0.00397705,0.,0.,0.02488915
 ,-0.00137184,0.00009226,0.,-0.00478027,-0.00264189,0.,0.00483808,-0.02
 862656,0.,-0.06062333,0.00234653,0.,-0.00018579,-0.00003048,0.,-0.0000
 8698,0.00012790,0.,-0.00015777,-0.00033559,0.,0.00022803,-0.00003224,0
 .,0.00040550,0.00114614,0.,0.00141612,0.00167278,0.,-0.00479320,0.0025
 8377,0.,0.00436641,0.02682064,0.,0.00037080,-0.00008530,0.,0.00012756,
 -0.00004066,0.,0.00010055,-0.00000172,0.,0.00017931,-0.00131958,0.,0.0
 0065683,0.00023719,0.,0.06047651,-0.00004542,0.00087141,0.,-0.00207876
 ,0.00006131,0.,0.00347566,-0.00866882,0.,0.00180300,-0.34512136,0.,-0.
 00011623,0.00018304,0.,0.00053734,-0.00064887,0.,0.00050139,0.00065183
 ,0.,-0.00009901,-0.00018706,0.,-0.00045912,-0.00033231,0.,-0.00148938,
 0.00106027,0.,0.00212079,-0.00025269,0.,-0.00300278,-0.00967540,0.,-0.
 00058756,0.00079846,0.,-0.00014395,-0.00071022,0.,-0.00001121,-0.00005
 451,0.,0.00021745,-0.00049348,0.,-0.00014063,0.00061328,0.,-0.00150461
 ,0.36174387,0.,0.,-0.00123725,0.,0.,0.00419277,0.,0.,0.00694523,0.,0.,
 -0.04148915,0.,0.,0.00007797,0.,0.,-0.00010467,0.,0.,0.00003562,0.,0.,
 -0.00011244,0.,0.,-0.00388724,0.,0.,-0.00326031,0.,0.,0.00779489,0.,0.
 ,0.00829891,0.,0.,0.00013445,0.,0.,0.00041485,0.,0.,0.00040964,0.,0.,-
 0.00033509,0.,0.,-0.00239112,0.,0.,0.02315892,0.00018739,-0.00145149,0
 .,0.00010034,-0.00034249,0.,-0.00000122,0.00040732,0.,0.00199102,-0.00
 184348,0.,0.00199102,0.00184348,0.,-0.00000122,-0.00040732,0.,0.000100
 34,0.00034249,0.,0.00018739,0.00145149,0.,-0.00045101,0.,0.,-0.0594265
 2,0.,0.,-0.00500962,-0.00193284,0.,0.00380562,-0.02582136,0.,-0.005009
 62,0.00193284,0.,0.00380562,0.02582136,0.,-0.00036943,-0.00016982,0.,-
 0.00000884,0.00006913,0.,-0.00002117,0.00000132,0.,-0.00073910,0.00070
 057,0.,0.05993551,0.00036495,-0.00066802,0.,0.00008868,0.00048514,0.,-
 0.00041447,-0.00016771,0.,0.00156998,0.00084997,0.,-0.00156999,0.00084
 997,0.,0.00041447,-0.00016771,0.,-0.00008868,0.00048513,0.,-0.00036495
 ,-0.00066802,0.,0.,0.00035993,0.,0.,-0.34887113,0.,-0.00171638,0.00098
 266,0.,0.00239008,-0.01026828,0.,0.00171638,0.00098265,0.,-0.00239007,
 -0.01026827,0.,-0.00016962,-0.00005855,0.,-0.00002617,0.00003037,0.,-0
 .00002088,-0.00001925,0.,-0.00069207,0.00030384,0.,0.,0.36554518,0.,0.
 ,0.00024304,0.,0.,0.00021728,0.,0.,-0.00025897,0.,0.,-0.00206475,0.,0.
 ,-0.00206475,0.,0.,-0.00025897,0.,0.,0.00021728,0.,0.,0.00024304,0.,0.
 ,-0.00033364,0.,0.,-0.02625085,0.,0.,0.00370685,0.,0.,0.00339903,0.,0.
 ,0.00370685,0.,-0.00000001,0.00339904,0.,0.,-0.00046184,0.,0.,0.000048
 78,0.,0.,0.00006545,0.,0.,0.00049621,0.,0.,0.01580576,0.00022803,0.000
 03224,0.,-0.00015777,0.00033559,0.,-0.00008698,-0.00012790,0.,-0.00018
 578,0.00003048,0.,-0.06062333,-0.00234653,0.,0.00483809,0.02862656,0.,
 -0.00478027,0.00264189,0.,-0.00137184,-0.00009226,0.,0.00040550,-0.001
 14614,0.,0.00141612,-0.00167278,0.,0.00037080,0.00008529,0.,0.00012756
 ,0.00004066,0.,-0.00479320,-0.00258377,0.,0.00436641,-0.02682064,0.,0.
 00002482,0.00001918,0.,-0.00001262,0.00000998,0.,0.00000839,0.00000090
 ,0.,-0.00005025,0.00001719,0.,-0.00073910,0.00069207,0.,0.06047651,0.0
 0009902,-0.00018706,0.,-0.00050139,0.00065183,0.,-0.00053734,-0.000648
 87,0.,0.00011623,0.00018304,0.,-0.00180301,-0.34512136,0.,-0.00347566,
 -0.00866882,0.,0.00207875,0.00006131,0.,0.00004542,0.00087141,0.,0.000
 45912,-0.00033231,0.,0.00148939,0.00106027,0.,0.00058756,0.00079846,0.
 ,0.00014395,-0.00071023,0.,-0.00212079,-0.00025269,0.,0.00300279,-0.00
 967539,0.,0.00001922,-0.00000397,0.,-0.00000927,0.00001607,0.,0.000000
 30,-0.00000688,0.,-0.00001719,0.00002825,0.,-0.00070057,0.00030384,0.,
 0.00150461,0.36174387,0.,0.,-0.00011244,0.,0.,0.00003562,0.,0.,-0.0001
 0467,0.,0.,0.00007797,0.,0.,-0.04148915,0.,0.,0.00694523,0.,0.,0.00419
 277,0.,0.,-0.00123725,0.,0.,-0.00388724,0.,0.,-0.00326031,0.,0.,0.0001
 3446,0.,0.,0.00041485,0.,0.,0.00779489,0.,0.,0.00829891,0.,0.,-0.00002
 561,0.,0.,-0.00000151,0.,0.,0.00007631,0.,0.,-0.00008167,0.,0.,0.00049
 621,0.,0.,0.02315892,-0.00104993,-0.00025175,0.,-0.00017901,-0.0002309
 9,0.,-0.00072051,-0.00060314,0.,0.00127740,0.00000246,0.,-0.01594488,-
 0.01564820,0.,-0.27267218,-0.12715583,0.,0.00596020,0.00368814,0.,0.00
 017248,0.00129014,0.,-0.00024702,-0.00003555,0.,0.00024276,-0.00109453
 ,0.,0.00109506,0.00040816,0.,-0.00081241,0.00049551,0.,0.00124489,0.00
 027654,0.,-0.00304514,0.00366308,0.,-0.00000142,0.00000237,0.,0.000017
 17,0.00001331,0.,-0.00002817,-0.00000963,0.,0.00000839,-0.00000030,0.,
 -0.00002117,0.00002088,0.,0.00065683,0.00014063,0.,0.28360229,0.000130
 00,0.00010644,0.,0.00015616,-0.00015836,0.,0.00027278,0.00027906,0.,-0
 .00020292,0.00001525,0.,0.01624326,0.01212735,0.,-0.12793764,-0.138596
 03,0.,-0.02723178,-0.00850260,0.,0.00061875,-0.00609242,0.,-0.00009993
 ,0.00019223,0.,0.00001688,0.00075982,0.,-0.00028549,-0.00041182,0.,0.0
 0029352,0.00013871,0.,0.00043968,-0.00033975,0.,0.00369555,-0.00184808
 ,0.,0.00000558,0.00000381,0.,-0.00000263,-0.00000459,0.,0.00000963,0.0
 0000758,0.,-0.00000090,-0.00000688,0.,-0.00000132,-0.00001925,0.,-0.00
 023719,0.00061328,0.,0.13506533,0.14151044,0.,0.,0.00047224,0.,0.,-0.0
 0033173,0.,0.,-0.00031975,0.,0.,-0.00026223,0.,0.,0.00534474,0.,0.,-0.
 04207868,0.,0.,0.00875776,0.,0.,0.00740603,0.,0.,0.00004268,0.,0.,-0.0
 0007343,0.,0.,0.00044067,0.,0.,0.00009491,0.,0.,-0.00155308,0.,0.,0.00
 473972,0.,0.,0.00003181,0.,0.,0.00003055,0.,0.,0.00024751,0.,0.,0.0000
 7631,0.,0.,0.00006546,0.,0.,-0.00239112,0.,0.,0.02488915,0.00083936,0.
 00029417,0.,0.00007851,0.00029687,0.,0.00052079,0.00045448,0.,-0.00113
 690,-0.00004176,0.,0.00027480,-0.00100166,0.,0.00608642,-0.00371895,0.
 ,-0.27844614,0.12565750,0.,-0.01629409,0.01488515,0.,-0.00041200,0.000
 86206,0.,-0.00037111,0.00009371,0.,-0.00102201,-0.00054324,0.,0.000453
 94,-0.00039993,0.,-0.00293813,-0.00344520,0.,0.00051728,-0.00040751,0.
 ,0.00000813,-0.00000034,0.,-0.00002974,-0.00000164,0.,0.00001717,0.000
 00263,0.,-0.00001262,0.00000927,0.,-0.00000884,0.00002617,0.,0.0001793
 1,-0.00021745,0.,0.00051454,0.00021586,0.,0.29029053,-0.00083937,-0.00
 024860,0.,-0.00045465,0.00017852,0.,-0.00084882,-0.00086685,0.,0.00111
 593,0.00018982,0.,0.00013252,-0.00568616,0.,0.02732951,-0.00892149,0.,
 0.12577040,-0.13237490,0.,-0.01752063,0.01241458,0.,-0.00079395,0.0006
 8143,0.,0.00082894,0.00016923,0.,0.00098425,0.00051876,0.,-0.00021269,
 -0.00038123,0.,-0.00245924,-0.00208934,0.,-0.00108773,-0.00045105,0.,0
 .00000846,0.00000345,0.,0.00000164,0.00002584,0.,-0.00001331,-0.000004
 59,0.,-0.00000998,0.00001607,0.,-0.00006913,0.00003037,0.,0.00131958,-
 0.00049348,0.,-0.00021575,0.00076355,0.,-0.13299797,0.13594243,0.,0.,0
 .00003801,0.,0.,-0.00007367,0.,0.,-0.00008022,0.,0.,0.00004557,0.,0.,0
 .00779695,0.,0.,0.00447535,0.,0.,-0.03843029,0.,0.,0.00337968,0.,0.,0.
 00018586,0.,0.,-0.00084822,0.,0.,0.00006259,0.,0.,0.00015142,0.,0.,0.0
 0681194,0.,0.,-0.00148265,0.,0.,0.00002340,0.,0.,0.00002428,0.,0.,0.00
 003055,0.,0.,-0.00000151,0.,0.,0.00004878,0.,0.,-0.00033509,0.,0.,-0.0
 0397705,0.,0.,0.02576981,0.00023195,0.00004101,0.,0.00000894,0.0000050
 2,0.,0.00011271,0.00007897,0.,-0.00026211,-0.00006483,0.,-0.00140857,-
 0.00001545,0.,-0.00479037,-0.00297824,0.,0.00568832,-0.02800170,0.,-0.
 06067355,0.00026006,0.,0.00119584,0.00043873,0.,0.00056702,0.00139002,
 0.,-0.00043403,-0.00008394,0.,0.00036392,-0.00008881,0.,0.00375814,0.0
 2804169,0.,-0.00480974,0.00191226,0.,-0.00004078,-0.00001333,0.,0.0000
 0813,-0.00000846,0.,-0.00000142,-0.00000558,0.,0.00002482,-0.00001922,
 0.,-0.00036943,0.00016962,0.,0.00010055,0.00001121,0.,0.00020118,-0.00
 134125,0.,0.00067657,0.00029527,0.,0.06039083,-0.00034243,-0.00000564,
 0.,0.00011215,-0.00021875,0.,-0.00005106,0.00001906,0.,0.00038679,0.00
 002023,0.,0.00039588,0.00062420,0.,-0.00289434,0.00015112,0.,0.0033571
 9,-0.00892891,0.,-0.00038505,-0.34277950,0.,-0.00125493,0.00107715,0.,
 -0.00051144,-0.00048625,0.,0.00045449,-0.00026531,0.,-0.00034715,0.000
 46173,0.,-0.00239549,-0.01036247,0.,0.00225097,0.00036512,0.,0.0000133
 3,0.00001579,0.,0.00000034,0.00000345,0.,-0.00000237,0.00000380,0.,-0.
 00001918,-0.00000397,0.,0.00016982,-0.00005855,0.,0.00000172,-0.000054
 51,0.,0.00023184,-0.00052514,0.,-0.00008684,0.00060307,0.,-0.00015455,
 0.36013068,0.,0.,0.00029895,0.,0.,-0.00018323,0.,0.,0.00002774,0.,0.,-
 0.00004181,0.,0.,-0.00100854,0.,0.,0.00630530,0.,0.,0.00892312,0.,0.,-
 0.04066070,0.,0.,-0.00130566,0.,0.,0.00044081,0.,0.,0.00006207,0.,0.,-
 0.00005047,0.,0.,0.00444542,0.,0.,0.00450275,0.,0.,0.00002197,0.,0.,0.
 00002340,0.,0.,0.00003181,0.,0.,-0.00002561,0.,0.,-0.00046184,0.,0.,0.
 00040964,0.,0.,-0.00151936,0.,0.,-0.00358364,0.,0.,0.02375064,-0.00815
 649,-0.00152388,0.00164105,-0.00206276,-0.00045334,-0.00104188,-0.0071
 1206,-0.00608192,-0.00022869,0.01118839,0.00157913,0.00075093,0.011188
 38,-0.00157913,-0.00075093,-0.00711206,0.00608192,0.00022869,-0.002062
 76,0.00045334,0.00104188,-0.00815650,0.00152388,-0.00164105,-0.0437921
 3,0.,0.,0.00544610,0.,0.,0.00824936,0.02240581,-0.01982286,-0.00658600
 ,-0.00017838,0.00197239,0.00824935,-0.02240581,0.01982286,-0.00658600,
 0.00017838,-0.00197239,-0.00026947,-0.00053516,0.00009888,0.00010711,0
 .00013164,0.00009155,-0.00013568,-0.00008904,0.00045650,-0.00019890,0.
 00015776,-0.00066612,0.00003601,0.,0.,-0.00019890,-0.00015776,0.000666
 11,-0.00013567,0.00008904,-0.00045650,0.00010711,-0.00013164,-0.000091
 55,-0.00026947,0.00053516,-0.00009888,0.04757172,0.00010987,0.00071460
 ,-0.00088371,0.00020987,0.00034953,0.00031220,0.00091007,0.00061513,-0
 .00017439,-0.00165984,-0.00093468,-0.00043775,0.00165984,-0.00093468,-
 0.00043775,-0.00091006,0.00061513,-0.00017439,-0.00020987,0.00034953,0
 .00031220,-0.00010986,0.00071460,-0.00088371,0.,-0.12596010,0.12756475
 ,0.,-0.00004476,0.00004561,0.00321906,-0.01515066,0.01269219,0.0034313
 9,0.00005756,-0.00112441,-0.00321906,-0.01515066,0.01269219,-0.0034313
 9,0.00005756,-0.00112441,-0.00006576,0.00010680,-0.00010422,-0.0000323
 2,-0.00000971,0.00003967,0.00002636,-0.00000629,-0.00017617,0.00016537
 ,-0.00008802,0.00050822,0.,0.00001285,0.00013452,-0.00016537,-0.000088
 02,0.00050822,-0.00002636,-0.00000629,-0.00017617,0.00003232,-0.000009
 71,0.00003967,0.00006576,0.00010680,-0.00010422,0.,0.14603650,0.000114
 34,0.00050602,0.00091128,-0.00028194,-0.00019853,0.00010453,-0.0003655
 0,-0.00033406,-0.00015583,0.00058807,-0.00003954,-0.00007351,-0.000588
 06,-0.00003954,-0.00007351,0.00036549,-0.00033406,-0.00015583,0.000281
 95,-0.00019853,0.00010453,-0.00011434,0.00050602,0.00091128,0.,0.12367
 218,-0.18209518,0.,0.00001729,-0.00037976,-0.00095930,-0.00168800,0.00
 103114,-0.00011430,-0.00077080,-0.00155535,0.00095930,-0.00168800,0.00
 103114,0.00011430,-0.00077081,-0.00155535,-0.00046319,-0.00004372,-0.0
 0020138,-0.00000213,0.00002847,-0.00001593,-0.00000120,-0.00002227,-0.
 00006655,0.00002843,-0.00002684,0.00044514,0.,-0.00001566,-0.00000171,
 -0.00002843,-0.00002684,0.00044514,0.00000120,-0.00002227,-0.00006655,
 0.00000213,0.00002847,-0.00001593,0.00046319,-0.00004372,-0.00020138,0
 .,-0.13377168,0.20645161,-0.00815650,-0.00152388,-0.00164105,-0.002062
 75,-0.00045334,0.00104188,-0.00711206,-0.00608192,0.00022869,0.0111883
 8,0.00157913,-0.00075093,0.01118838,-0.00157913,0.00075093,-0.00711206
 ,0.00608192,-0.00022870,-0.00206276,0.00045334,-0.00104188,-0.00815649
 ,0.00152388,0.00164105,-0.04379215,0.,0.,0.00544611,0.,0.,0.00824935,0
 .02240582,0.01982286,-0.00658598,-0.00017838,-0.00197239,0.00824936,-0
 .02240582,-0.01982285,-0.00658599,0.00017838,0.00197239,-0.00026947,-0
 .00053516,-0.00009888,0.00010711,0.00013164,-0.00009155,-0.00013568,-0
 .00008904,-0.00045650,-0.00019890,0.00015776,0.00066612,0.00003601,0.,
 0.,-0.00019890,-0.00015776,-0.00066611,-0.00013568,0.00008904,0.000456
 50,0.00010711,-0.00013164,0.00009155,-0.00026947,0.00053516,0.00009888
 ,0.00069131,0.,0.,0.04757172,0.00010987,0.00071460,0.00088371,0.000209
 87,0.00034953,-0.00031220,0.00091006,0.00061513,0.00017439,-0.00165984
 ,-0.00093468,0.00043775,0.00165984,-0.00093468,0.00043775,-0.00091006,
 0.00061513,0.00017439,-0.00020987,0.00034953,-0.00031220,-0.00010986,0
 .00071460,0.00088371,0.,-0.12596010,-0.12756475,0.,-0.00004476,-0.0000
 4560,0.00321906,-0.01515066,-0.01269219,0.00343139,0.00005756,0.001124
 41,-0.00321906,-0.01515066,-0.01269219,-0.00343139,0.00005756,0.001124
 41,-0.00006576,0.00010680,0.00010422,-0.00003232,-0.00000971,-0.000039
 67,0.00002636,-0.00000629,0.00017617,0.00016537,-0.00008802,-0.0005082
 2,0.,0.00001285,-0.00013452,-0.00016537,-0.00008802,-0.00050822,-0.000
 02636,-0.00000629,0.00017617,0.00003232,-0.00000971,-0.00003967,0.0000
 6576,0.00010680,0.00010422,0.,0.00864702,0.01527642,0.,0.14603650,-0.0
 0011434,-0.00050602,0.00091128,0.00028195,0.00019853,0.00010453,0.0003
 6550,0.00033406,-0.00015583,-0.00058807,0.00003954,-0.00007351,0.00058
 806,0.00003954,-0.00007351,-0.00036549,0.00033406,-0.00015583,-0.00028
 195,0.00019853,0.00010453,0.00011434,-0.00050602,0.00091128,0.,-0.1236
 7218,-0.18209518,0.,-0.00001730,-0.00037976,0.00095930,0.00168801,0.00
 103114,0.00011430,0.00077080,-0.00155535,-0.00095930,0.00168800,0.0010
 3114,-0.00011430,0.00077080,-0.00155535,0.00046319,0.00004372,-0.00020
 138,0.00000213,-0.00002847,-0.00001593,0.00000120,0.00002227,-0.000066
 55,-0.00002843,0.00002684,0.00044514,0.,0.00001566,-0.00000171,0.00002
 843,0.00002684,0.00044514,-0.00000120,0.00002227,-0.00006655,-0.000002
 13,-0.00002847,-0.00001593,-0.00046319,0.00004372,-0.00020138,0.,-0.01
 527642,-0.02482204,0.,0.13377168,0.20645161\\0.00000386,-0.00000653,0.
 ,-0.00000735,-0.00000178,0.,-0.00000734,0.00000182,0.,-0.00000315,0.00
 000897,0.,0.00000315,0.00000897,0.,0.00000734,0.00000182,0.,0.00000735
 ,-0.00000178,0.,-0.00000386,-0.00000653,0.,0.,-0.00000063,0.,0.,0.0000
 0149,0.,0.00000168,-0.00000874,0.,0.00001113,0.00000593,0.,-0.00000168
 ,-0.00000874,0.,-0.00001113,0.00000593,0.,0.00000040,-0.00000021,0.,-0
 .00000038,-0.00000014,0.,-0.00000034,0.00000026,0.,0.00000017,0.000000
 17,0.,0.,0.00000031,0.,-0.00000017,0.00000017,0.,0.00000034,0.00000026
 ,0.,0.00000038,-0.00000014,0.,-0.00000040,-0.00000021,0.,0.,-0.0000003
 2,0.00000035,0.,-0.00000032,-0.00000035\\\@
 The archive entry for this job was punched.


 IT IS A CAPITAL MISTAKE TO THEORIZE BEFORE ONE HAS
 DATA.  INSENSIBLY ONE BEGINS TO TWIST FACTS TO SUIT
 THEORIES RATHER THAN THEORIES TO SUIT FACTS.

                                         -- SHERLOCK HOLMES
 Job cpu time:       0 days 14 hours 31 minutes 56.8 seconds.
 Elapsed time:       0 days  1 hours 49 minutes  2.5 seconds.
 File lengths (MBytes):  RWF=   1516 Int=      0 D2E=      0 Chk=     36 Scr=      1
 Normal termination of Gaussian 16 at Thu Jul 14 23:23:46 2022.
