 Entering Gaussian System, Link 0=g16
 Initial command:
 /apps/gaussian/g16c01/g16/l1.exe "/jobfs/53005151.gadi-pbs/Gau-4177269.inp" -scrdir="/jobfs/53005151.gadi-pbs/"
 Entering Link 1 = /apps/gaussian/g16c01/g16/l1.exe PID=   4177270.
  
 Copyright (c) 1988-2019, Gaussian, Inc.  All Rights Reserved.
  
 This is part of the Gaussian(R) 16 program.  It is based on
 the Gaussian(R) 09 system (copyright 2009, Gaussian, Inc.),
 the Gaussian(R) 03 system (copyright 2003, Gaussian, Inc.),
 the Gaussian(R) 98 system (copyright 1998, Gaussian, Inc.),
 the Gaussian(R) 94 system (copyright 1995, Gaussian, Inc.),
 the Gaussian 92(TM) system (copyright 1992, Gaussian, Inc.),
 the Gaussian 90(TM) system (copyright 1990, Gaussian, Inc.),
 the Gaussian 88(TM) system (copyright 1988, Gaussian, Inc.),
 the Gaussian 86(TM) system (copyright 1986, Carnegie Mellon
 University), and the Gaussian 82(TM) system (copyright 1983,
 Carnegie Mellon University). Gaussian is a federally registered
 trademark of Gaussian, Inc.
  
 This software contains proprietary and confidential information,
 including trade secrets, belonging to Gaussian, Inc.
  
 This software is provided under written license and may be
 used, copied, transmitted, or stored only in accord with that
 written license.
  
 The following legend is applicable only to US Government
 contracts under FAR:
  
                    RESTRICTED RIGHTS LEGEND
  
 Use, reproduction and disclosure by the US Government is
 subject to restrictions as set forth in subparagraphs (a)
 and (c) of the Commercial Computer Software - Restricted
 Rights clause in FAR 52.227-19.
  
 Gaussian, Inc.
 340 Quinnipiac St., Bldg. 40, Wallingford CT 06492
  
  
 ---------------------------------------------------------------
 Warning -- This program may not be used in any manner that
 competes with the business of Gaussian, Inc. or will provide
 assistance to any competitor of Gaussian, Inc.  The licensee
 of this program is prohibited from giving any competitor of
 Gaussian, Inc. access to this program.  By using this program,
 the user acknowledges that Gaussian, Inc. is engaged in the
 business of creating and licensing software in the field of
 computational chemistry and represents and warrants to the
 licensee that it is not a competitor of Gaussian, Inc. and that
 it will not use this program in any manner prohibited above.
 ---------------------------------------------------------------
  

 Cite this work as:
 Gaussian 16, Revision C.01,
 M. J. Frisch, G. W. Trucks, H. B. Schlegel, G. E. Scuseria, 
 M. A. Robb, J. R. Cheeseman, G. Scalmani, V. Barone, 
 G. A. Petersson, H. Nakatsuji, X. Li, M. Caricato, A. V. Marenich, 
 J. Bloino, B. G. Janesko, R. Gomperts, B. Mennucci, H. P. Hratchian, 
 J. V. Ortiz, A. F. Izmaylov, J. L. Sonnenberg, D. Williams-Young, 
 F. Ding, F. Lipparini, F. Egidi, J. Goings, B. Peng, A. Petrone, 
 T. Henderson, D. Ranasinghe, V. G. Zakrzewski, J. Gao, N. Rega, 
 G. Zheng, W. Liang, M. Hada, M. Ehara, K. Toyota, R. Fukuda, 
 J. Hasegawa, M. Ishida, T. Nakajima, Y. Honda, O. Kitao, H. Nakai, 
 T. Vreven, K. Throssell, J. A. Montgomery, Jr., J. E. Peralta, 
 F. Ogliaro, M. J. Bearpark, J. J. Heyd, E. N. Brothers, K. N. Kudin, 
 V. N. Staroverov, T. A. Keith, R. Kobayashi, J. Normand, 
 K. Raghavachari, A. P. Rendell, J. C. Burant, S. S. Iyengar, 
 J. Tomasi, M. Cossi, J. M. Millam, M. Klene, C. Adamo, R. Cammi, 
 J. W. Ochterski, R. L. Martin, K. Morokuma, O. Farkas, 
 J. B. Foresman, and D. J. Fox, Gaussian, Inc., Wallingford CT, 2019.
 
 ******************************************
 Gaussian 16:  ES64L-G16RevC.01  3-Jul-2019
                28-Jul-2022 
 ******************************************
 %NProcShared=48
 Will use up to   48 processors via shared memory.
 %mem = 190GB
 ---------------------------------------------------------------
 #n M062X/6-311++G(d,p) TD(NStates=1) EmpiricalDispersion=GD3 SP
 ---------------------------------------------------------------
 1/38=1,172=1/1;
 2/12=2,17=6,18=5,40=1/2;
 3/5=4,6=6,7=1111,11=9,25=1,30=1,74=-55,124=31/1,2,3,8;
 4//1;
 5/5=2,38=5/2;
 8/6=1,10=2,108=1/1;
 9/41=1,42=1,70=2/14;
 6/7=2,8=2,9=2,10=2/1;
 99/5=1,9=1/99;
 ----
 SP_0
 ----
 Symbolic Z-matrix:
 Charge =  1 Multiplicity = 1
 C                     0.        2.49426   1.36063 
 C                     0.        3.70031   0.67179 
 C                     0.        3.68346  -0.71403 
 C                     0.        2.46356  -1.40814 
 C                     0.       -2.46276  -1.40694 
 C                     0.       -3.68426  -0.71363 
 C                     0.       -3.70271   0.67219 
 C                     0.       -2.49106   1.36023 
 C                     0.       -0.0016    1.45337 
 C                     0.       -0.0032   -1.42919 
 C                     0.        1.26306   0.67407 
 C                     0.        1.23927  -0.7272 
 C                     0.       -1.26106   0.68007 
 C                     0.       -1.23567  -0.7344 
 H                     0.        2.48187   2.44365 
 H                     0.        4.63355   1.21469 
 H                     0.        4.60646  -1.27635 
 H                     0.        2.47455  -2.49046 
 H                     0.        0.003    -2.51027 
 H                     0.       -2.46055  -2.48966 
 H                     0.       -4.61206  -1.26835 
 H                     0.       -4.63995   1.20869 
 H                     0.       -2.49427   2.44365 
 H                    -0.85959  -0.0052    2.14579 
 H                     0.85959  -0.0052    2.14579 
 
                          Input orientation:                          
 ---------------------------------------------------------------------
 Center     Atomic      Atomic             Coordinates (Angstroms)
 Number     Number       Type             X           Y           Z
 ---------------------------------------------------------------------
      1          6           0        0.000000    2.494255    1.360631
      2          6           0        0.000000    3.700308    0.671789
      3          6           0        0.000000    3.683461   -0.714030
      4          6           0        0.000000    2.463556   -1.408138
      5          6           0        0.000000   -2.462756   -1.406938
      6          6           0        0.000000   -3.684261   -0.713630
      7          6           0        0.000000   -3.702708    0.672189
      8          6           0        0.000000   -2.491055    1.360231
      9          6           0        0.000000   -0.001600    1.453369
     10          6           0        0.000000   -0.003200   -1.429189
     11          6           0        0.000000    1.263055    0.674065
     12          6           0        0.000000    1.239271   -0.727204
     13          6           0        0.000000   -1.261055    0.680065
     14          6           0        0.000000   -1.235671   -0.734404
     15          1           0        0.000000    2.481871    2.443647
     16          1           0        0.000000    4.633553    1.214689
     17          1           0        0.000000    4.606462   -1.276349
     18          1           0        0.000000    2.474550   -2.490459
     19          1           0        0.000000    0.003000   -2.510266
     20          1           0        0.000000   -2.460550   -2.489659
     21          1           0        0.000000   -4.612062   -1.268349
     22          1           0        0.000000   -4.639953    1.208689
     23          1           0        0.000000   -2.494271    2.443647
     24          1           0       -0.859585   -0.005200    2.145787
     25          1           0        0.859585   -0.005200    2.145787
 ---------------------------------------------------------------------
                    Distance matrix (angstroms):
                    1          2          3          4          5
     1  C    0.000000
     2  C    1.388909   0.000000
     3  C    2.391324   1.385921   0.000000
     4  C    2.768939   2.419845   1.403551   0.000000
     5  C    5.677270   6.504188   6.185152   4.926312   0.000000
     6  C    6.517409   7.513404   7.367722   6.186921   1.404546
     7  C    6.235086   7.403016   7.515124   6.507732   2.420795
     8  C    4.985310   6.229521   6.513617   5.675565   2.767314
     9  C    2.497577   3.783516   4.275195   3.776932   3.773413
    10  C    3.744379   4.257943   3.755386   2.466846   2.459657
    11  C    1.409690   2.437254   2.790192   2.403492   4.267580
    12  C    2.435988   2.830881   2.444226   1.400909   3.763913
    13  C    3.816480   4.961370   5.137289   4.270049   2.408250
    14  C    4.278028   5.132374   4.919174   3.760080   1.399300
    15  H    1.083087   2.150365   3.378571   3.851829   6.267084
    16  H    2.144270   1.079670   2.150031   3.404131   7.565086
    17  H    3.378621   2.148571   1.080802   2.146955   7.070424
    18  H    3.851140   3.391503   2.148759   1.082377   5.054801
    19  H    4.603281   4.878069   4.095395   2.696112   2.701349
    20  H    6.274936   6.924661   6.395446   5.041479   1.082723
    21  H    7.577023   8.535785   8.314023   7.076999   2.153770
    22  H    7.135826   8.357524   8.542603   7.570180   3.403188
    23  H    5.104735   6.443003   6.937961   6.278240   3.850714
    24  H    2.757287   4.079503   4.745910   4.411805   4.404580
    25  H    2.757287   4.079503   4.745910   4.411805   4.404580
                    6          7          8          9         10
     6  C    0.000000
     7  C    1.385942   0.000000
     8  C    2.392622   1.393379   0.000000
     9  C    4.272924   3.782650   2.491197   0.000000
    10  C    3.749965   4.254662   3.737685   2.882558   0.000000
    11  C    5.138252   4.965763   3.816303   1.485485   2.455011
    12  C    4.923551   5.136288   4.274660   2.508916   1.427066
    13  C    2.795409   2.441666   1.405534   1.477913   2.455840
    14  C    2.448678   2.839855   2.442025   2.511828   1.414818
    15  H    6.927451   6.433279   5.089576   2.673627   4.601569
    16  H    8.538410   8.353895   7.126094   4.641294   5.337562
    17  H    8.309798   8.534583   7.571413   5.355894   4.612195
    18  H    6.409998   6.939803   6.283713   4.656726   2.695466
    19  H    4.101682   4.884700   4.604461   3.963638   1.081095
    20  H    2.156791   3.397093   3.850011   4.646924   2.676409
    21  H    1.080985   2.143038   3.377588   5.353887   4.611668
    22  H    2.146778   1.079935   2.154235   4.644802   5.334593
    23  H    3.374089   2.144384   1.083421   2.682174   4.604812
    24  H    4.738211   4.072093   2.745079   1.103785   3.676866
    25  H    4.738211   4.072093   2.745079   1.103785   3.676866
                   11         12         13         14         15
    11  C    0.000000
    12  C    1.401471   0.000000
    13  C    2.524117   2.869153   0.000000
    14  C    2.868347   2.474952   1.414697   0.000000
    15  H    2.148705   3.405635   4.137598   4.890821   0.000000
    16  H    3.413580   3.910511   5.918803   6.184396   2.477917
    17  H    3.870722   3.411676   6.185088   5.867216   4.283953
    18  H    3.388500   2.152901   4.899691   4.104810   4.934111
    19  H    3.424573   2.169718   3.431625   2.165177   5.539500
    20  H    4.886142   4.098161   3.389091   2.140385   6.983197
    21  H    6.187889   5.876303   3.876282   3.418350   8.006422
    22  H    5.927168   6.189746   3.419999   3.919789   7.228105
    23  H    4.153182   4.898330   2.151986   3.418199   4.976142
    24  H    2.124458   3.246794   2.112912   3.247837   2.648231
    25  H    2.124458   3.246794   2.112912   3.247837   2.648231
                   16         17         18         19         20
    16  H    0.000000
    17  H    2.491185   0.000000
    18  H    4.288288   2.453388   0.000000
    19  H    5.942837   4.765964   2.471629   0.000000
    20  H    8.003030   7.170410   4.935100   2.463636   0.000000
    21  H    9.573237   9.218527   7.191218   4.779242   2.473985
    22  H    9.273508   9.574529   8.018719   5.948751   4.292735
    23  H    7.232995   8.016157   7.002470   5.547758   4.933421
    24  H    4.808727   5.806662   5.327553   4.734742   5.315542
    25  H    4.808727   5.806662   5.327553   4.734742   5.315542
                   21         22         23         24         25
    21  H    0.000000
    22  H    2.477195   0.000000
    23  H    4.273635   2.475696   0.000000
    24  H    5.798137   4.806035   2.650110   0.000000
    25  H    5.798137   4.806035   2.650110   1.719170   0.000000
 Stoichiometry    C14H11(1+)
 Framework group  CS[SG(C14H9),X(H2)]
 Deg. of freedom    46
 Full point group                 CS      NOp   2
 Largest Abelian subgroup         CS      NOp   2
 Largest concise Abelian subgroup CS      NOp   2
                         Standard orientation:                         
 ---------------------------------------------------------------------
 Center     Atomic      Atomic             Coordinates (Angstroms)
 Number     Number       Type             X           Y           Z
 ---------------------------------------------------------------------
      1          6           0        2.491371   -1.366062    0.000000
      2          6           0        3.698922   -0.679849    0.000000
      3          6           0        3.685094    0.706003    0.000000
      4          6           0        2.466704    1.402767    0.000000
      5          6           0       -2.459599    1.412300    0.000000
      6          6           0       -3.682611    0.721655    0.000000
      7          6           0       -3.704077   -0.664121    0.000000
      8          6           0       -2.493926   -1.354801    0.000000
      9          6           0       -0.004680   -1.453362    0.000000
     10          6           0        0.000000    1.429192    0.000000
     11          6           0        1.261670   -0.676815    0.000000
     12          6           0        1.240939    0.724502    0.000000
     13          6           0       -1.262447   -0.677316    0.000000
     14          6           0       -1.233982    0.737094    0.000000
     15          1           0        2.476628   -2.449048    0.000000
     16          1           0        4.630982   -1.224781    0.000000
     17          1           0        4.609318    1.266310    0.000000
     18          1           0        2.480056    2.485062    0.000000
     19          1           0        0.008555    2.510253    0.000000
     20          1           0       -2.455034    2.495014    0.000000
     21          1           0       -4.609201    1.278394    0.000000
     22          1           0       -4.642489   -1.198578    0.000000
     23          1           0       -2.499503   -2.438207    0.000000
     24          1           0       -0.009789   -2.145771    0.859585
     25          1           0       -0.009789   -2.145771   -0.859585
 ---------------------------------------------------------------------
 Rotational constants (GHZ):           2.1362218           0.4446265           0.3688266
 Standard basis: 6-311++G(d,p) (5D, 7F)
 There are   299 symmetry adapted cartesian basis functions of A'  symmetry.
 There are   100 symmetry adapted cartesian basis functions of A"  symmetry.
 There are   285 symmetry adapted basis functions of A'  symmetry.
 There are   100 symmetry adapted basis functions of A"  symmetry.
   385 basis functions,   603 primitive gaussians,   399 cartesian basis functions
    47 alpha electrons       47 beta electrons
       nuclear repulsion energy       781.1984041253 Hartrees.
 NAtoms=   25 NActive=   25 NUniq=   24 SFac= 1.09D+00 NAtFMM=   60 NAOKFM=F Big=F
 Integral buffers will be    131072 words long.
 Regular integral format.
 Two-electron integral symmetry is turned on.
 Nuclear repulsion after empirical dispersion term =      781.1974246341 Hartrees.
 One-electron integrals computed using PRISM.
 NBasis=   385 RedAO= T EigKep=  1.12D-06  NBF=   285   100
 NBsUse=   379 1.00D-06 EigRej=  8.39D-07 NBFU=   279   100
 ExpMin= 3.60D-02 ExpMax= 4.56D+03 ExpMxC= 6.82D+02 IAcc=3 IRadAn=         5 AccDes= 0.00D+00
 Harris functional with IExCor= 1009 and IRadAn=       5 diagonalized for initial guess.
 HarFok:  IExCor= 1009 AccDes= 0.00D+00 IRadAn=         5 IDoV= 1 UseB2=F ITyADJ=14
 ICtDFT=  3500011 ScaDFX=  1.000000  1.000000  1.000000  1.000000
 FoFCou: FMM=F IPFlag=           0 FMFlag=      100000 FMFlg1=           0
         NFxFlg=           0 DoJE=T BraDBF=F KetDBF=T FulRan=T
         wScrn=  0.000000 ICntrl=       500 IOpCl=  0 I1Cent=   200000004 NGrid=           0
         NMat0=    1 NMatS0=      1 NMatT0=    0 NMatD0=    1 NMtDS0=    0 NMtDT0=    0
 Petite list used in FoFCou.
 Initial guess orbital symmetries:
       Occupied  (A') (A') (A') (A') (A') (A') (A') (A') (A') (A')
                 (A') (A') (A') (A') (A') (A') (A') (A') (A') (A')
                 (A') (A') (A') (A') (A') (A') (A') (A') (A') (A')
                 (A') (A') (A") (A') (A') (A') (A') (A') (A') (A")
                 (A") (A') (A') (A") (A") (A") (A")
       Virtual   (A") (A") (A") (A") (A") (A') (A') (A') (A') (A")
                 (A") (A') (A') (A') (A") (A') (A') (A') (A') (A")
                 (A') (A") (A') (A') (A') (A") (A') (A") (A') (A')
                 (A') (A') (A') (A") (A') (A') (A") (A') (A') (A")
                 (A') (A') (A') (A") (A') (A') (A') (A') (A') (A")
                 (A') (A') (A") (A") (A') (A') (A') (A") (A") (A')
                 (A') (A') (A') (A') (A') (A') (A") (A') (A') (A")
                 (A') (A') (A') (A') (A') (A') (A') (A') (A') (A')
                 (A') (A') (A') (A') (A') (A') (A') (A') (A') (A')
                 (A') (A') (A') (A') (A') (A') (A') (A") (A') (A")
                 (A') (A') (A") (A") (A') (A") (A") (A') (A') (A")
                 (A") (A') (A') (A') (A") (A') (A') (A") (A") (A')
                 (A") (A") (A') (A') (A') (A") (A') (A') (A') (A")
                 (A') (A') (A') (A') (A') (A') (A") (A') (A') (A')
                 (A') (A') (A') (A') (A') (A') (A') (A') (A') (A")
                 (A") (A') (A") (A") (A') (A') (A') (A") (A") (A')
                 (A") (A') (A") (A") (A") (A') (A') (A') (A') (A')
                 (A') (A") (A") (A') (A') (A') (A') (A') (A') (A")
                 (A') (A') (A') (A') (A') (A") (A") (A') (A") (A")
                 (A') (A") (A') (A") (A') (A') (A') (A") (A') (A')
                 (A") (A") (A") (A') (A') (A") (A') (A") (A') (A')
                 (A") (A") (A') (A") (A') (A") (A') (A') (A') (A")
                 (A') (A') (A') (A') (A") (A') (A') (A') (A") (A")
                 (A') (A') (A') (A") (A') (A') (A") (A') (A") (A')
                 (A") (A') (A') (A') (A') (A") (A') (A') (A') (A")
                 (A') (A') (A") (A') (A") (A') (A') (A") (A') (A')
                 (A') (A') (A") (A") (A') (A') (A') (A") (A') (A")
                 (A') (A') (A') (A') (A") (A') (A") (A') (A") (A')
                 (A") (A') (A") (A") (A") (A') (A') (A') (A') (A')
                 (A') (A') (A') (A') (A') (A') (A') (A') (A') (A')
                 (A') (A') (A') (A') (A') (A") (A') (A') (A') (A')
                 (A') (A') (A') (A') (A') (A') (A') (A') (A') (A')
                 (A') (A') (A') (A') (A') (A') (A') (A') (A') (A')
                 (A') (A')
 The electronic state of the initial guess is 1-A'.
 Requested convergence on RMS density matrix=1.00D-08 within 128 cycles.
 Requested convergence on MAX density matrix=1.00D-06.
 Requested convergence on             energy=1.00D-06.
 No special actions if energy rises.
 SCF Done:  E(RM062X) =  -539.760070183     A.U. after   15 cycles
            NFock= 15  Conv=0.44D-08     -V/T= 2.0042
 DoSCS=F DFT=T ScalE2(SS,OS)=  1.000000  1.000000
 ExpMin= 3.60D-02 ExpMax= 4.56D+03 ExpMxC= 6.82D+02 IAcc=3 IRadAn=         5 AccDes= 0.00D+00
 HarFok:  IExCor=  205 AccDes= 0.00D+00 IRadAn=         5 IDoV=-2 UseB2=F ITyADJ=14
 ICtDFT= 12500011 ScaDFX=  1.000000  1.000000  1.000000  1.000000
 Range of M.O.s used for correlation:    15   379
 NBasis=   385 NAE=    47 NBE=    47 NFC=    14 NFV=     0
 NROrb=    365 NOA=    33 NOB=    33 NVA=   332 NVB=   332

 **** Warning!!: The largest alpha MO coefficient is  0.14877335D+03

 Orbital symmetries:
       Occupied  (A') (A') (A') (A') (A') (A') (A') (A') (A') (A')
                 (A') (A') (A') (A') (A') (A') (A') (A') (A') (A')
                 (A') (A') (A') (A') (A') (A') (A') (A') (A') (A')
                 (A') (A') (A") (A') (A') (A') (A') (A") (A") (A')
                 (A') (A') (A') (A") (A") (A") (A")
       Virtual   (A") (A") (A") (A") (A') (A') (A') (A') (A") (A')
                 (A') (A") (A') (A') (A") (A') (A") (A') (A') (A')
                 (A") (A") (A') (A') (A') (A") (A') (A") (A') (A')
                 (A") (A') (A") (A') (A') (A') (A') (A') (A") (A')
                 (A") (A') (A') (A") (A") (A') (A") (A') (A") (A')
                 (A') (A') (A') (A') (A') (A") (A') (A') (A') (A')
                 (A') (A") (A') (A') (A') (A') (A") (A') (A') (A')
                 (A') (A') (A') (A') (A') (A') (A') (A') (A') (A')
                 (A') (A') (A') (A') (A') (A') (A') (A') (A') (A')
                 (A') (A') (A') (A') (A") (A') (A") (A") (A') (A")
                 (A') (A') (A') (A') (A") (A") (A') (A") (A") (A')
                 (A') (A') (A") (A') (A') (A") (A') (A") (A') (A")
                 (A") (A') (A") (A') (A') (A') (A") (A') (A') (A')
                 (A') (A') (A') (A') (A') (A') (A') (A') (A') (A')
                 (A') (A') (A') (A") (A') (A') (A') (A') (A') (A')
                 (A') (A') (A") (A') (A") (A') (A") (A") (A') (A")
                 (A") (A') (A') (A") (A") (A") (A') (A") (A') (A')
                 (A') (A') (A') (A") (A") (A') (A') (A') (A') (A")
                 (A') (A') (A') (A") (A') (A") (A') (A') (A") (A")
                 (A") (A') (A') (A") (A') (A") (A') (A') (A') (A')
                 (A") (A") (A") (A') (A') (A") (A') (A") (A') (A')
                 (A') (A") (A') (A") (A") (A') (A") (A') (A') (A")
                 (A') (A') (A') (A') (A") (A') (A') (A') (A") (A")
                 (A') (A') (A') (A") (A') (A') (A') (A") (A") (A')
                 (A") (A') (A') (A") (A') (A') (A') (A') (A') (A')
                 (A") (A') (A') (A') (A') (A") (A") (A") (A') (A')
                 (A') (A') (A') (A') (A') (A') (A") (A') (A') (A')
                 (A') (A") (A') (A") (A") (A") (A') (A") (A') (A")
                 (A') (A") (A") (A') (A") (A") (A') (A') (A') (A')
                 (A') (A') (A') (A') (A') (A') (A') (A') (A') (A')
                 (A') (A') (A') (A") (A') (A') (A') (A') (A') (A')
                 (A') (A') (A') (A') (A') (A') (A') (A') (A') (A')
                 (A') (A') (A') (A') (A') (A') (A') (A') (A') (A')
                 (A') (A')
     4 initial guesses have been made.
 Convergence on wavefunction:    0.001000000000000
 Iteration     1 Dimension     4 NMult     0 NNew      4
 CISAX will form     4 AO SS matrices at one time.
 Iteration     2 Dimension     6 NMult     4 NNew      2
 Iteration     3 Dimension     8 NMult     6 NNew      2
 Iteration     4 Dimension    10 NMult     8 NNew      2
 Iteration     5 Dimension    12 NMult    10 NNew      2
 Iteration     6 Dimension    14 NMult    12 NNew      2
 ***********************************************************************
 Excited states from <AA,BB:AA,BB> singles matrix:
 ***********************************************************************
 
 Ground to excited state transition densities written to RWF  633
 Ground to excited state transition electric dipole moments (Au):
       state          X           Y           Z        Dip. S.      Osc.
         1        -0.0271     -0.6438      0.0000      0.4152      0.0287
 Ground to excited state transition velocity dipole moments (Au):
       state          X           Y           Z        Dip. S.      Osc.
         1         0.0030      0.0745      0.0000      0.0056      0.0357
 Ground to excited state transition magnetic dipole moments (Au):
       state          X           Y           Z
         1        -0.0000     -0.0000     -0.0309
 Ground to excited state transition velocity quadrupole moments (Au):
       state          XX          YY          ZZ          XY          XZ          YZ
         1         0.2973      0.0351     -0.0098     -0.0043     -0.0000      0.0000
 <0|del|b> * <b|rxdel|0> + <0|del|b> * <b|delr+rdel|0>
 Rotatory Strengths (R) in cgs (10**-40 erg-esu-cm/Gauss)
       state          XX          YY          ZZ    R(velocity)    E-M Angle
         1        -0.0000     -0.0000     -0.0000     -0.0000       90.00
 1/2[<0|r|b>*<b|rxdel|0> + (<0|rxdel|b>*<b|r|0>)*]
 Rotatory Strengths (R) in cgs (10**-40 erg-esu-cm/Gauss)
       state          XX          YY          ZZ     R(length)
         1        -0.0000     -0.0000      0.0000     -0.0000
  1/2[<0|del|b>*<b|r|0> + (<0|r|b>*<b|del|0>)*] (Au)
       state          X           Y           Z        Dip. S.   Osc.(frdel)
         1        -0.0001     -0.0480      0.0000      0.0480      0.0320

 Excitation energies and oscillator strengths:
 
 Excited State   1:      Singlet-A'     2.8225 eV  439.28 nm  f=0.0287  <S**2>=0.000
      47 -> 48         0.70421
 This state for optimization and/or second-order correction.
 Total Energy, E(TD-HF/TD-DFT) =  -539.656346764    
 Copying the excited state density for this state as the 1-particle RhoCI density.
 SavETr:  write IOETrn=   770 NScale= 10 NData=  16 NLR=1 NState=    1 LETran=      28.

 **********************************************************************

            Population analysis using the SCF Density.

 **********************************************************************

 Orbital symmetries:
       Occupied  (A') (A') (A') (A') (A') (A') (A') (A') (A') (A')
                 (A') (A') (A') (A') (A') (A') (A') (A') (A') (A')
                 (A') (A') (A') (A') (A') (A') (A') (A') (A') (A')
                 (A') (A') (A") (A') (A') (A') (A') (A") (A") (A')
                 (A') (A') (A') (A") (A") (A") (A")
       Virtual   (A") (A") (A") (A") (A') (A') (A') (A') (A") (A')
                 (A') (A") (A') (A') (A") (A') (A") (A') (A') (A')
                 (A") (A") (A') (A') (A') (A") (A') (A") (A') (A')
                 (A") (A') (A") (A') (A') (A') (A') (A') (A") (A')
                 (A") (A') (A') (A") (A") (A') (A") (A') (A") (A')
                 (A') (A') (A') (A') (A') (A") (A') (A') (A') (A')
                 (A') (A") (A') (A') (A') (A') (A") (A') (A') (A')
                 (A') (A') (A') (A') (A') (A') (A') (A') (A') (A')
                 (A') (A') (A') (A') (A') (A') (A') (A') (A') (A')
                 (A') (A') (A') (A') (A") (A') (A") (A") (A') (A")
                 (A') (A') (A') (A') (A") (A") (A') (A") (A") (A')
                 (A') (A') (A") (A') (A') (A") (A') (A") (A') (A")
                 (A") (A') (A") (A') (A') (A') (A") (A') (A') (A')
                 (A') (A') (A') (A') (A') (A') (A') (A') (A') (A')
                 (A') (A') (A') (A") (A') (A') (A') (A') (A') (A')
                 (A') (A') (A") (A') (A") (A') (A") (A") (A') (A")
                 (A") (A') (A') (A") (A") (A") (A') (A") (A') (A')
                 (A') (A') (A') (A") (A") (A') (A') (A') (A') (A")
                 (A') (A') (A') (A") (A') (A") (A') (A') (A") (A")
                 (A") (A') (A') (A") (A') (A") (A') (A') (A') (A')
                 (A") (A") (A") (A') (A') (A") (A') (A") (A') (A')
                 (A') (A") (A') (A") (A") (A') (A") (A') (A') (A")
                 (A') (A') (A') (A') (A") (A') (A') (A') (A") (A")
                 (A') (A') (A') (A") (A') (A') (A') (A") (A") (A')
                 (A") (A') (A') (A") (A') (A') (A') (A') (A') (A')
                 (A") (A') (A') (A') (A') (A") (A") (A") (A') (A')
                 (A') (A') (A') (A') (A') (A') (A") (A') (A') (A')
                 (A') (A") (A') (A") (A") (A") (A') (A") (A') (A")
                 (A') (A") (A") (A') (A") (A") (A') (A') (A') (A')
                 (A') (A') (A') (A') (A') (A') (A') (A') (A') (A')
                 (A') (A') (A') (A") (A') (A') (A') (A') (A') (A')
                 (A') (A') (A') (A') (A') (A') (A') (A') (A') (A')
                 (A') (A') (A') (A') (A') (A') (A') (A') (A') (A')
                 (A') (A')
 The electronic state is 1-A'.
 Alpha  occ. eigenvalues --  -10.77663 -10.73340 -10.73139 -10.72484 -10.72385
 Alpha  occ. eigenvalues --  -10.71488 -10.71250 -10.71146 -10.70979 -10.70864
 Alpha  occ. eigenvalues --  -10.70040 -10.69905 -10.69714 -10.69545  -1.16443
 Alpha  occ. eigenvalues --   -1.12466  -1.06946  -1.05734  -1.01311  -1.00184
 Alpha  occ. eigenvalues --   -0.95783  -0.91058  -0.86417  -0.85901  -0.83815
 Alpha  occ. eigenvalues --   -0.78400  -0.76028  -0.74418  -0.69584  -0.69231
 Alpha  occ. eigenvalues --   -0.68503  -0.68187  -0.68103  -0.64748  -0.64275
 Alpha  occ. eigenvalues --   -0.63063  -0.61866  -0.60005  -0.59678  -0.59100
 Alpha  occ. eigenvalues --   -0.56892  -0.55219  -0.54827  -0.52439  -0.46627
 Alpha  occ. eigenvalues --   -0.46057  -0.44499
 Alpha virt. eigenvalues --   -0.26089  -0.14670  -0.14095  -0.12772  -0.11179
 Alpha virt. eigenvalues --   -0.10086  -0.09230  -0.07983  -0.07969  -0.07476
 Alpha virt. eigenvalues --   -0.07204  -0.07145  -0.05643  -0.05581  -0.05333
 Alpha virt. eigenvalues --   -0.03827  -0.03646  -0.03280  -0.03133  -0.02165
 Alpha virt. eigenvalues --   -0.01368  -0.00930   0.00192   0.00591   0.00662
 Alpha virt. eigenvalues --    0.01055   0.01513   0.01939   0.02218   0.02285
 Alpha virt. eigenvalues --    0.02450   0.02670   0.02748   0.03320   0.03367
 Alpha virt. eigenvalues --    0.04240   0.04507   0.04696   0.05031   0.05365
 Alpha virt. eigenvalues --    0.06034   0.06296   0.06596   0.07044   0.07255
 Alpha virt. eigenvalues --    0.07892   0.08161   0.08361   0.08541   0.08928
 Alpha virt. eigenvalues --    0.09526   0.09579   0.10032   0.10865   0.11029
 Alpha virt. eigenvalues --    0.11116   0.12172   0.12243   0.12917   0.12967
 Alpha virt. eigenvalues --    0.13407   0.13524   0.14017   0.14393   0.16203
 Alpha virt. eigenvalues --    0.16316   0.16356   0.17346   0.17628   0.17801
 Alpha virt. eigenvalues --    0.18122   0.19063   0.19242   0.19642   0.19732
 Alpha virt. eigenvalues --    0.21561   0.21587   0.22725   0.23110   0.23559
 Alpha virt. eigenvalues --    0.23807   0.24574   0.25334   0.26917   0.27609
 Alpha virt. eigenvalues --    0.28840   0.29303   0.29862   0.31361   0.35786
 Alpha virt. eigenvalues --    0.36459   0.38180   0.39274   0.41160   0.41402
 Alpha virt. eigenvalues --    0.41968   0.42199   0.42985   0.43680   0.44294
 Alpha virt. eigenvalues --    0.44868   0.45095   0.46074   0.46201   0.47947
 Alpha virt. eigenvalues --    0.48528   0.48867   0.49024   0.50425   0.51152
 Alpha virt. eigenvalues --    0.51590   0.51675   0.52116   0.52910   0.53972
 Alpha virt. eigenvalues --    0.54089   0.54649   0.55684   0.55764   0.57469
 Alpha virt. eigenvalues --    0.58240   0.58814   0.61441   0.62173   0.62365
 Alpha virt. eigenvalues --    0.63215   0.63493   0.64959   0.65162   0.67252
 Alpha virt. eigenvalues --    0.70416   0.70608   0.71019   0.72407   0.72865
 Alpha virt. eigenvalues --    0.75777   0.76016   0.76285   0.76906   0.77094
 Alpha virt. eigenvalues --    0.77798   0.77915   0.78237   0.79882   0.80394
 Alpha virt. eigenvalues --    0.81241   0.81663   0.82135   0.83016   0.85180
 Alpha virt. eigenvalues --    0.87165   0.88177   0.88606   0.89123   0.90404
 Alpha virt. eigenvalues --    0.91085   0.91254   0.93195   0.94632   0.96452
 Alpha virt. eigenvalues --    0.96643   1.00399   1.01285   1.01679   1.02718
 Alpha virt. eigenvalues --    1.03197   1.03858   1.04740   1.05398   1.08770
 Alpha virt. eigenvalues --    1.19547   1.23271   1.24047   1.25265   1.28008
 Alpha virt. eigenvalues --    1.29698   1.31764   1.34308   1.35769   1.36003
 Alpha virt. eigenvalues --    1.39324   1.40192   1.40945   1.43008   1.43457
 Alpha virt. eigenvalues --    1.43539   1.45195   1.45324   1.46349   1.46686
 Alpha virt. eigenvalues --    1.47644   1.48015   1.51727   1.53624   1.55745
 Alpha virt. eigenvalues --    1.55773   1.56357   1.56616   1.57796   1.61444
 Alpha virt. eigenvalues --    1.63233   1.63517   1.63763   1.66107   1.68298
 Alpha virt. eigenvalues --    1.68353   1.68698   1.69727   1.74388   1.75994
 Alpha virt. eigenvalues --    1.77163   1.78060   1.80013   1.80125   1.80721
 Alpha virt. eigenvalues --    1.83160   1.83211   1.83621   1.83797   1.84169
 Alpha virt. eigenvalues --    1.84300   1.85881   1.86056   1.88218   1.91381
 Alpha virt. eigenvalues --    1.92043   1.94148   1.95211   1.97671   1.98172
 Alpha virt. eigenvalues --    1.99737   2.02430   2.04409   2.07258   2.11814
 Alpha virt. eigenvalues --    2.12057   2.14110   2.15219   2.19101   2.21247
 Alpha virt. eigenvalues --    2.22802   2.28619   2.30154   2.34647   2.34943
 Alpha virt. eigenvalues --    2.36215   2.38674   2.39600   2.42352   2.44674
 Alpha virt. eigenvalues --    2.46165   2.46515   2.49336   2.52929   2.53821
 Alpha virt. eigenvalues --    2.54238   2.56781   2.57846   2.58301   2.59638
 Alpha virt. eigenvalues --    2.59816   2.61586   2.62102   2.63519   2.63809
 Alpha virt. eigenvalues --    2.64790   2.65114   2.65178   2.65381   2.67902
 Alpha virt. eigenvalues --    2.68629   2.70954   2.71406   2.73346   2.74819
 Alpha virt. eigenvalues --    2.76303   2.78788   2.79723   2.82835   2.83058
 Alpha virt. eigenvalues --    2.84899   2.86291   2.92113   2.97000   2.99455
 Alpha virt. eigenvalues --    3.00111   3.05092   3.11090   3.11430   3.13063
 Alpha virt. eigenvalues --    3.20954   3.23709   3.26689   3.28246   3.30757
 Alpha virt. eigenvalues --    3.32804   3.33639   3.43386   3.45926   3.46558
 Alpha virt. eigenvalues --    3.48464   3.50212   3.56488   3.65886   3.66654
 Alpha virt. eigenvalues --    3.67631   3.94187   3.94588   3.95165   3.96212
 Alpha virt. eigenvalues --    4.04003   4.06870   4.07507   4.12541   4.35520
 Alpha virt. eigenvalues --    4.61351   4.69755   4.71679  23.45336  23.60505
 Alpha virt. eigenvalues --   23.82161  23.85409  23.87673  23.89325  23.90770
 Alpha virt. eigenvalues --   23.92373  23.97839  23.99645  23.99883  24.00255
 Alpha virt. eigenvalues --   24.10255  24.10942
          Condensed to atoms (all electrons):
               1          2          3          4          5          6
     1  C    8.564369   0.307111  -0.534080   1.960587  -0.041136  -0.096008
     2  C    0.307111   7.151294   0.336563  -1.080029  -0.016248  -0.014863
     3  C   -0.534080   0.336563   6.581281   0.778604  -0.127901   0.016944
     4  C    1.960587  -1.080029   0.778604  10.804973  -0.368147  -0.120691
     5  C   -0.041136  -0.016248  -0.127901  -0.368147  11.235567   0.750157
     6  C   -0.096008  -0.014863   0.016944  -0.120691   0.750157   6.596139
     7  C   -0.015012   0.001583  -0.014187  -0.019747  -1.078005   0.372193
     8  C    0.405149  -0.021772  -0.095400  -0.017774   2.004887  -0.554932
     9  C   -1.140765  -0.794954   0.296417  -0.227202  -0.207644   0.292444
    10  C   -1.278098   0.248866  -0.358193  -2.536209  -2.620226  -0.348610
    11  C    0.336941  -0.968465   1.052837  -0.058671  -1.585884  -0.189419
    12  C   -2.130790   1.421318  -1.431645  -1.675790  -0.296791  -0.180585
    13  C    0.242446  -0.260548  -0.159450  -1.413058  -0.476631   0.966649
    14  C   -1.076712  -0.178531  -0.218461  -0.375261  -1.546491  -1.365189
    15  H    0.366936  -0.105474  -0.000644   0.026354   0.005822   0.001130
    16  H   -0.019015   0.379208  -0.016425   0.014029  -0.001572  -0.000334
    17  H   -0.025307  -0.015998   0.375438  -0.068715   0.000304   0.000405
    18  H    0.049875   0.003147  -0.084721   0.456386   0.006203  -0.005070
    19  H   -0.046055  -0.007836   0.051754  -0.065163  -0.074562   0.050692
    20  H    0.007233   0.002094  -0.005095   0.006440   0.459172  -0.084851
    21  H   -0.001291  -0.000402   0.000394   0.000330  -0.067222   0.374325
    22  H    0.000740   0.000368  -0.000323  -0.001513   0.013166  -0.016933
    23  H    0.005513  -0.002663   0.001075   0.005643   0.028429  -0.002174
    24  H    0.033613   0.014391  -0.001386  -0.011435  -0.013004  -0.001688
    25  H    0.033613   0.014391  -0.001386  -0.011435  -0.013004  -0.001688
               7          8          9         10         11         12
     1  C   -0.015012   0.405149  -1.140765  -1.278098   0.336941  -2.130790
     2  C    0.001583  -0.021772  -0.794954   0.248866  -0.968465   1.421318
     3  C   -0.014187  -0.095400   0.296417  -0.358193   1.052837  -1.431645
     4  C   -0.019747  -0.017774  -0.227202  -2.536209  -0.058671  -1.675790
     5  C   -1.078005   2.004887  -0.207644  -2.620226  -1.585884  -0.296791
     6  C    0.372193  -0.554932   0.292444  -0.348610  -0.189419  -0.180585
     7  C    7.123198   0.325462  -0.812562   0.248947  -0.226925  -0.212279
     8  C    0.325462   8.623152  -1.193768  -1.288242   0.176926  -1.082206
     9  C   -0.812562  -1.193768   9.599195   0.258455   1.658997  -1.943179
    10  C    0.248947  -1.288242   0.258455   9.162199  -0.497580   2.466764
    11  C   -0.226925   0.176926   1.658997  -0.497580  14.424675  -3.868438
    12  C   -0.212279  -1.082206  -1.943179   2.466764  -3.868438  16.204258
    13  C   -0.856741   0.257572   1.571233  -0.413447   1.086770  -4.845902
    14  C    1.286188  -2.038497  -1.939082   2.401426  -4.757463   3.085376
    15  H   -0.002652   0.005975   0.090678  -0.009177  -0.029708  -0.025287
    16  H    0.000362   0.000690   0.003178  -0.009565   0.026046  -0.033043
    17  H   -0.000398  -0.001342  -0.005608   0.020549  -0.027795   0.092915
    18  H    0.001995   0.007240  -0.024695   0.012242  -0.005569  -0.054241
    19  H   -0.007564  -0.047558   0.075705   0.421921   0.077888  -0.062839
    20  H    0.002714   0.050482  -0.025033   0.013427  -0.011843  -0.014192
    21  H   -0.016779  -0.024495  -0.005880   0.020458  -0.006316   0.005379
    22  H    0.378703  -0.019597   0.003801  -0.009248   0.003203  -0.009133
    23  H   -0.106752   0.367636   0.092495  -0.010009   0.001268   0.006986
    24  H    0.014535   0.032040   0.356278   0.005319   0.012443  -0.059552
    25  H    0.014535   0.032040   0.356278   0.005319   0.012443  -0.059552
              13         14         15         16         17         18
     1  C    0.242446  -1.076712   0.366936  -0.019015  -0.025307   0.049875
     2  C   -0.260548  -0.178531  -0.105474   0.379208  -0.015998   0.003147
     3  C   -0.159450  -0.218461  -0.000644  -0.016425   0.375438  -0.084721
     4  C   -1.413058  -0.375261   0.026354   0.014029  -0.068715   0.456386
     5  C   -0.476631  -1.546491   0.005822  -0.001572   0.000304   0.006203
     6  C    0.966649  -1.365189   0.001130  -0.000334   0.000405  -0.005070
     7  C   -0.856741   1.286188  -0.002652   0.000362  -0.000398   0.001995
     8  C    0.257572  -2.038497   0.005975   0.000690  -0.001342   0.007240
     9  C    1.571233  -1.939082   0.090678   0.003178  -0.005608  -0.024695
    10  C   -0.413447   2.401426  -0.009177  -0.009565   0.020549   0.012242
    11  C    1.086770  -4.757463  -0.029708   0.026046  -0.027795  -0.005569
    12  C   -4.845902   3.085376  -0.025287  -0.033043   0.092915  -0.054241
    13  C   14.551917  -3.668323   0.001894   0.002944  -0.006290  -0.011786
    14  C   -3.668323  15.940568   0.006078  -0.009044   0.005242  -0.013787
    15  H    0.001894   0.006078   0.440149  -0.009153   0.001507   0.000148
    16  H    0.002944  -0.009044  -0.009153   0.420003  -0.006724   0.001951
    17  H   -0.006290   0.005242   0.001507  -0.006724   0.423337  -0.010513
    18  H   -0.011786  -0.013787   0.000148   0.001951  -0.010513   0.453597
    19  H    0.076994  -0.067690   0.000315  -0.000549   0.001438  -0.006115
    20  H   -0.008205  -0.054839  -0.000115   0.000016  -0.000146   0.001265
    21  H   -0.027086   0.091356   0.000013  -0.000007   0.000010  -0.000141
    22  H    0.027588  -0.033573  -0.000127   0.000008  -0.000007   0.000014
    23  H   -0.031064  -0.023930   0.000578  -0.000127   0.000014  -0.000110
    24  H    0.014562  -0.060543  -0.000941   0.000630  -0.000141   0.000176
    25  H    0.014562  -0.060543  -0.000941   0.000630  -0.000141   0.000176
              19         20         21         22         23         24
     1  C   -0.046055   0.007233  -0.001291   0.000740   0.005513   0.033613
     2  C   -0.007836   0.002094  -0.000402   0.000368  -0.002663   0.014391
     3  C    0.051754  -0.005095   0.000394  -0.000323   0.001075  -0.001386
     4  C   -0.065163   0.006440   0.000330  -0.001513   0.005643  -0.011435
     5  C   -0.074562   0.459172  -0.067222   0.013166   0.028429  -0.013004
     6  C    0.050692  -0.084851   0.374325  -0.016933  -0.002174  -0.001688
     7  C   -0.007564   0.002714  -0.016779   0.378703  -0.106752   0.014535
     8  C   -0.047558   0.050482  -0.024495  -0.019597   0.367636   0.032040
     9  C    0.075705  -0.025033  -0.005880   0.003801   0.092495   0.356278
    10  C    0.421921   0.013427   0.020458  -0.009248  -0.010009   0.005319
    11  C    0.077888  -0.011843  -0.006316   0.003203   0.001268   0.012443
    12  C   -0.062839  -0.014192   0.005379  -0.009133   0.006986  -0.059552
    13  C    0.076994  -0.008205  -0.027086   0.027588  -0.031064   0.014562
    14  C   -0.067690  -0.054839   0.091356  -0.033573  -0.023930  -0.060543
    15  H    0.000315  -0.000115   0.000013  -0.000127   0.000578  -0.000941
    16  H   -0.000549   0.000016  -0.000007   0.000008  -0.000127   0.000630
    17  H    0.001438  -0.000146   0.000010  -0.000007   0.000014  -0.000141
    18  H   -0.006115   0.001265  -0.000141   0.000014  -0.000110   0.000176
    19  H    0.442754  -0.006296   0.001398  -0.000530   0.000300   0.000595
    20  H   -0.006296   0.453635  -0.010028   0.001892   0.000203   0.000186
    21  H    0.001398  -0.010028   0.421572  -0.006539   0.001427  -0.000143
    22  H   -0.000530   0.001892  -0.006539   0.418913  -0.008877   0.000631
    23  H    0.000300   0.000203   0.001427  -0.008877   0.437907  -0.000873
    24  H    0.000595   0.000186  -0.000143   0.000631  -0.000873   0.493922
    25  H    0.000595   0.000186  -0.000143   0.000631  -0.000873  -0.079663
              25
     1  C    0.033613
     2  C    0.014391
     3  C   -0.001386
     4  C   -0.011435
     5  C   -0.013004
     6  C   -0.001688
     7  C    0.014535
     8  C    0.032040
     9  C    0.356278
    10  C    0.005319
    11  C    0.012443
    12  C   -0.059552
    13  C    0.014562
    14  C   -0.060543
    15  H   -0.000941
    16  H    0.000630
    17  H   -0.000141
    18  H    0.000176
    19  H    0.000595
    20  H    0.000186
    21  H   -0.000143
    22  H    0.000631
    23  H   -0.000873
    24  H   -0.079663
    25  H    0.493922
 Mulliken charges:
               1
     1  C    0.090146
     2  C   -0.412551
     3  C   -0.442010
     4  C   -0.002505
     5  C    0.030761
     6  C   -0.438043
     7  C   -0.400812
     8  C    0.096333
     9  C   -0.334781
    10  C    0.092714
    11  C   -0.636361
    12  C    0.702448
    13  C   -0.636600
    14  C    0.671728
    15  H    0.236644
    16  H    0.255863
    17  H    0.247966
    18  H    0.222332
    19  H    0.190408
    20  H    0.221698
    21  H    0.249810
    22  H    0.256743
    23  H    0.237977
    24  H    0.250046
    25  H    0.250046
 Sum of Mulliken charges =   1.00000
 Mulliken charges with hydrogens summed into heavy atoms:
               1
     1  C    0.326790
     2  C   -0.156688
     3  C   -0.194044
     4  C    0.219827
     5  C    0.252459
     6  C   -0.188232
     7  C   -0.144069
     8  C    0.334309
     9  C    0.165312
    10  C    0.283122
    11  C   -0.636361
    12  C    0.702448
    13  C   -0.636600
    14  C    0.671728
 Electronic spatial extent (au):  <R**2>=           2855.9190
 Charge=              1.0000 electrons
 Dipole moment (field-independent basis, Debye):
    X=             -0.1504    Y=              0.1879    Z=             -0.0000  Tot=              0.2407
 Quadrupole moment (field-independent basis, Debye-Ang):
   XX=            -31.1143   YY=            -56.2638   ZZ=            -84.1415
   XY=              0.0529   XZ=             -0.0000   YZ=              0.0000
 Traceless Quadrupole moment (field-independent basis, Debye-Ang):
   XX=             26.0589   YY=              0.9094   ZZ=            -26.9683
   XY=              0.0529   XZ=             -0.0000   YZ=              0.0000
 Octapole moment (field-independent basis, Debye-Ang**2):
  XXX=             -2.5921  YYY=              5.2107  ZZZ=              0.0000  XYY=             -0.0493
  XXY=             -5.1689  XXZ=             -0.0000  XZZ=             -0.1362  YZZ=             -3.0879
  YYZ=              0.0000  XYZ=              0.0000
 Hexadecapole moment (field-independent basis, Debye-Ang**3):
 XXXX=          -2122.3914 YYYY=           -609.2715 ZZZZ=            -99.3286 XXXY=              3.2614
 XXXZ=              0.0000 YYYX=              2.4357 YYYZ=              0.0000 ZZZX=             -0.0000
 ZZZY=              0.0000 XXYY=           -507.7224 XXZZ=           -590.7498 YYZZ=           -145.7063
 XXYZ=             -0.0000 YYXZ=              0.0000 ZZXY=              0.9000
 N-N= 7.811974246341D+02 E-N=-2.798736799367D+03  KE= 5.375061453897D+02
 Symmetry A'   KE= 5.228587865515D+02
 Symmetry A"   KE= 1.464735883823D+01
 Unable to Open any file for archive entry.
 1\1\GINC-GADI-CPU-CLX-2072\SP\RM062X TD-FC\6-311++G(d,p)\C14H11(1+)\TS
 1578\28-Jul-2022\0\\#n M062X/6-311++G(d,p) TD(NStates=1) EmpiricalDisp
 ersion=GD3 SP\\SP_0\\1,1\C,0,0.,2.494255,1.360631\C,0,0.,3.700308,0.67
 1789\C,0,0.,3.683461,-0.71403\C,0,0.,2.463556,-1.408138\C,0,0.,-2.4627
 56,-1.406938\C,0,0.,-3.684261,-0.71363\C,0,0.,-3.702708,0.672189\C,0,0
 .,-2.491055,1.360231\C,0,0.,-0.0016,1.453369\C,0,0.,-0.0032,-1.429189\
 C,0,0.,1.263055,0.674065\C,0,0.,1.239271,-0.727204\C,0,0.,-1.261055,0.
 680065\C,0,0.,-1.235671,-0.734404\H,0,0.,2.481871,2.443647\H,0,0.,4.63
 3553,1.214689\H,0,0.,4.606462,-1.276349\H,0,0.,2.47455,-2.490459\H,0,0
 .,0.003,-2.510266\H,0,0.,-2.46055,-2.489659\H,0,0.,-4.612062,-1.268349
 \H,0,0.,-4.639953,1.208689\H,0,0.,-2.494271,2.443647\H,0,-0.859585,-0.
 0052,2.145787\H,0,0.859585,-0.0052,2.145787\\Version=ES64L-G16RevC.01\
 State=1-A'\HF=-539.7600702\RMSD=4.410e-09\PG=CS [SG(C14H9),X(H2)]\\@
 The archive entry for this job was punched.


 Sometimes the fool who rushes in gets the job done.
                                    -- Al Bernstein
 Job cpu time:       0 days  0 hours 52 minutes 13.0 seconds.
 Elapsed time:       0 days  0 hours  1 minutes  5.4 seconds.
 File lengths (MBytes):  RWF=    460 Int=      0 D2E=      0 Chk=     15 Scr=      1
 Normal termination of Gaussian 16 at Thu Jul 28 14:08:46 2022.
