 Entering Gaussian System, Link 0=g16
 Initial command:
 /apps/gaussian/g16c01/g16/l1.exe "/jobfs/53005151.gadi-pbs/Gau-4152525.inp" -scrdir="/jobfs/53005151.gadi-pbs/"
 Entering Link 1 = /apps/gaussian/g16c01/g16/l1.exe PID=   4152526.
  
 Copyright (c) 1988-2019, Gaussian, Inc.  All Rights Reserved.
  
 This is part of the Gaussian(R) 16 program.  It is based on
 the Gaussian(R) 09 system (copyright 2009, Gaussian, Inc.),
 the Gaussian(R) 03 system (copyright 2003, Gaussian, Inc.),
 the Gaussian(R) 98 system (copyright 1998, Gaussian, Inc.),
 the Gaussian(R) 94 system (copyright 1995, Gaussian, Inc.),
 the Gaussian 92(TM) system (copyright 1992, Gaussian, Inc.),
 the Gaussian 90(TM) system (copyright 1990, Gaussian, Inc.),
 the Gaussian 88(TM) system (copyright 1988, Gaussian, Inc.),
 the Gaussian 86(TM) system (copyright 1986, Carnegie Mellon
 University), and the Gaussian 82(TM) system (copyright 1983,
 Carnegie Mellon University). Gaussian is a federally registered
 trademark of Gaussian, Inc.
  
 This software contains proprietary and confidential information,
 including trade secrets, belonging to Gaussian, Inc.
  
 This software is provided under written license and may be
 used, copied, transmitted, or stored only in accord with that
 written license.
  
 The following legend is applicable only to US Government
 contracts under FAR:
  
                    RESTRICTED RIGHTS LEGEND
  
 Use, reproduction and disclosure by the US Government is
 subject to restrictions as set forth in subparagraphs (a)
 and (c) of the Commercial Computer Software - Restricted
 Rights clause in FAR 52.227-19.
  
 Gaussian, Inc.
 340 Quinnipiac St., Bldg. 40, Wallingford CT 06492
  
  
 ---------------------------------------------------------------
 Warning -- This program may not be used in any manner that
 competes with the business of Gaussian, Inc. or will provide
 assistance to any competitor of Gaussian, Inc.  The licensee
 of this program is prohibited from giving any competitor of
 Gaussian, Inc. access to this program.  By using this program,
 the user acknowledges that Gaussian, Inc. is engaged in the
 business of creating and licensing software in the field of
 computational chemistry and represents and warrants to the
 licensee that it is not a competitor of Gaussian, Inc. and that
 it will not use this program in any manner prohibited above.
 ---------------------------------------------------------------
  

 Cite this work as:
 Gaussian 16, Revision C.01,
 M. J. Frisch, G. W. Trucks, H. B. Schlegel, G. E. Scuseria, 
 M. A. Robb, J. R. Cheeseman, G. Scalmani, V. Barone, 
 G. A. Petersson, H. Nakatsuji, X. Li, M. Caricato, A. V. Marenich, 
 J. Bloino, B. G. Janesko, R. Gomperts, B. Mennucci, H. P. Hratchian, 
 J. V. Ortiz, A. F. Izmaylov, J. L. Sonnenberg, D. Williams-Young, 
 F. Ding, F. Lipparini, F. Egidi, J. Goings, B. Peng, A. Petrone, 
 T. Henderson, D. Ranasinghe, V. G. Zakrzewski, J. Gao, N. Rega, 
 G. Zheng, W. Liang, M. Hada, M. Ehara, K. Toyota, R. Fukuda, 
 J. Hasegawa, M. Ishida, T. Nakajima, Y. Honda, O. Kitao, H. Nakai, 
 T. Vreven, K. Throssell, J. A. Montgomery, Jr., J. E. Peralta, 
 F. Ogliaro, M. J. Bearpark, J. J. Heyd, E. N. Brothers, K. N. Kudin, 
 V. N. Staroverov, T. A. Keith, R. Kobayashi, J. Normand, 
 K. Raghavachari, A. P. Rendell, J. C. Burant, S. S. Iyengar, 
 J. Tomasi, M. Cossi, J. M. Millam, M. Klene, C. Adamo, R. Cammi, 
 J. W. Ochterski, R. L. Martin, K. Morokuma, O. Farkas, 
 J. B. Foresman, and D. J. Fox, Gaussian, Inc., Wallingford CT, 2019.
 
 ******************************************
 Gaussian 16:  ES64L-G16RevC.01  3-Jul-2019
                28-Jul-2022 
 ******************************************
 %NProcShared=48
 Will use up to   48 processors via shared memory.
 %mem = 190GB
 ---------------------------------------------------------------
 #n M062X/6-311++G(d,p) TD(NStates=1) EmpiricalDispersion=GD3 SP
 ---------------------------------------------------------------
 1/38=1,172=1/1;
 2/12=2,17=6,18=5,40=1/2;
 3/5=4,6=6,7=1111,11=9,25=1,30=1,74=-55,124=31/1,2,3,8;
 4//1;
 5/5=2,38=5/2;
 8/6=1,10=2,108=1/1;
 9/41=1,42=1,70=2/14;
 6/7=2,8=2,9=2,10=2/1;
 99/5=1,9=1/99;
 ------
 SP_-12
 ------
 Symbolic Z-matrix:
 Charge =  1 Multiplicity = 1
 C                     0.        2.51666   1.36103 
 C                     0.        3.71951   0.68099 
 C                     0.        3.69346  -0.69523 
 C                     0.        2.44036  -1.39974 
 C                     0.       -2.48596  -1.41534 
 C                     0.       -3.67426  -0.73243 
 C                     0.       -3.68351   0.66299 
 C                     0.       -2.46866   1.35983 
 C                     0.        0.0048    1.45337 
 C                     0.       -0.0444   -1.42919 
 C                     0.        1.25426   0.65487 
 C                     0.        1.23207  -0.7188 
 C                     0.       -1.26986   0.69927 
 C                     0.       -1.24287  -0.7428 
 H                     0.        2.47547   2.44365 
 H                     0.        4.64875   1.22909 
 H                     0.        4.60206  -1.28195 
 H                     0.        2.47775  -2.48166 
 H                     0.       -0.021    -2.51027 
 H                     0.       -2.45735  -2.49846 
 H                     0.       -4.61646  -1.26275 
 H                     0.       -4.62475   1.19429 
 H                     0.       -2.50067   2.44365 
 H                    -0.85959   0.0372    2.14579 
 H                     0.85959   0.0372    2.14579 
 
                          Input orientation:                          
 ---------------------------------------------------------------------
 Center     Atomic      Atomic             Coordinates (Angstroms)
 Number     Number       Type             X           Y           Z
 ---------------------------------------------------------------------
      1          6           0        0.000000    2.516655    1.361031
      2          6           0        0.000000    3.719508    0.680989
      3          6           0        0.000000    3.693461   -0.695230
      4          6           0        0.000000    2.440356   -1.399738
      5          6           0        0.000000   -2.485956   -1.415338
      6          6           0        0.000000   -3.674261   -0.732430
      7          6           0        0.000000   -3.683508    0.662989
      8          6           0        0.000000   -2.468655    1.359831
      9          6           0        0.000000    0.004800    1.453369
     10          6           0        0.000000   -0.044400   -1.429189
     11          6           0        0.000000    1.254255    0.654865
     12          6           0        0.000000    1.232071   -0.718804
     13          6           0        0.000000   -1.269855    0.699265
     14          6           0        0.000000   -1.242871   -0.742804
     15          1           0        0.000000    2.475471    2.443647
     16          1           0        0.000000    4.648753    1.229089
     17          1           0        0.000000    4.602062   -1.281949
     18          1           0        0.000000    2.477750   -2.481659
     19          1           0        0.000000   -0.021000   -2.510266
     20          1           0        0.000000   -2.457350   -2.498459
     21          1           0        0.000000   -4.616462   -1.262749
     22          1           0        0.000000   -4.624753    1.194289
     23          1           0        0.000000   -2.500671    2.443647
     24          1           0       -0.859585    0.037200    2.145787
     25          1           0        0.859585    0.037200    2.145787
 ---------------------------------------------------------------------
                    Distance matrix (angstroms):
                    1          2          3          4          5
     1  C    0.000000
     2  C    1.381779   0.000000
     3  C    2.369194   1.376465   0.000000
     4  C    2.761823   2.442469   1.437569   0.000000
     5  C    5.721393   6.549990   6.221234   4.926337   0.000000
     6  C    6.535290   7.527654   7.367816   6.150922   1.370559
     7  C    6.239334   7.403038   7.500962   6.461931   2.398661
     8  C    4.985310   6.225286   6.495764   5.631484   2.775223
     9  C    2.513552   3.794157   4.268805   3.751287   3.799124
    10  C    3.787391   4.315073   3.809239   2.484931   2.441595
    11  C    1.446487   2.465391   2.787917   2.372389   4.274917
    12  C    2.444559   2.854254   2.461503   1.386948   3.782709
    13  C    3.843903   4.989396   5.155494   4.262802   2.439354
    14  C    4.308150   5.162595   4.936561   3.741353   1.413351
    15  H    1.083399   2.157450   3.366905   3.843545   6.285501
    16  H    2.136177   1.078847   2.148392   3.433329   7.609012
    17  H    3.366640   2.152214   1.081571   2.164913   7.089273
    18  H    3.842887   3.397691   2.160852   1.082567   5.076950
    19  H    4.628891   4.916860   4.134196   2.700286   2.697198
    20  H    6.295744   6.947119   6.409689   5.019433   1.083499
    21  H    7.600367   8.559586   8.329280   7.058148   2.135963
    22  H    7.143354   8.360034   8.530121   7.526270   3.374108
    23  H    5.132798   6.465106   6.944049   6.259821   3.859013
    24  H    2.739056   4.055109   4.709406   4.368615   4.448237
    25  H    2.739056   4.055109   4.709406   4.368615   4.448237
                    6          7          8          9         10
     6  C    0.000000
     7  C    1.395450   0.000000
     8  C    2.414755   1.400520   0.000000
     9  C    4.279393   3.772044   2.475223   0.000000
    10  C    3.696128   4.197656   3.695354   2.882978   0.000000
    11  C    5.120045   4.937770   3.789068   1.482817   2.455562
    12  C    4.906351   5.106101   4.244537   2.494901   1.460830
    13  C    2.798378   2.413926   1.368747   1.481019   2.456025
    14  C    2.431412   2.816552   2.433849   2.525838   1.381107
    15  H    6.921464   6.411222   5.061525   2.661741   4.620455
    16  H    8.551030   8.351469   7.118609   4.649366   5.393712
    17  H    8.294546   8.510785   7.548115   5.349466   4.648794
    18  H    6.395861   6.917363   6.262904   4.647572   2.732935
    19  H    4.062883   4.845979   4.579156   3.963719   1.081330
    20  H    2.144698   3.390902   3.858307   4.656085   2.639255
    21  H    1.081194   2.139829   3.389838   5.360351   4.575091
    22  H    2.148414   1.080843   2.162444   4.636797   5.278472
    23  H    3.385968   2.137720   1.084289   2.694074   4.586080
    24  H    4.774721   4.096492   2.763317   1.104255   3.677771
    25  H    4.774721   4.096492   2.763317   1.104255   3.677771
                   11         12         13         14         15
    11  C    0.000000
    12  C    1.373848   0.000000
    13  C    2.524500   2.875857   0.000000
    14  C    2.861663   2.475058   1.442321   0.000000
    15  H    2.165897   3.398108   4.131626   4.896891   0.000000
    16  H    3.442724   3.932938   5.942275   6.212857   2.489640
    17  H    3.867694   3.416719   6.197146   5.869746   4.289808
    18  H    3.366708   2.158558   4.915569   4.106901   4.925307
    19  H    3.412379   2.186212   3.443941   2.148695   5.547398
    20  H    4.870263   4.096218   3.411097   2.134780   6.982631
    21  H    6.175966   5.873773   3.879340   3.413423   8.002055
    22  H    5.903703   6.161356   3.391222   3.897365   7.209305
    23  H    4.159232   4.892286   2.134895   3.425716   4.976142
    24  H    2.107832   3.220634   2.130658   3.274359   2.602455
    25  H    2.107832   3.220634   2.130658   3.274359   2.602455
                   16         17         18         19         20
    16  H    0.000000
    17  H    2.511472   0.000000
    18  H    4.299175   2.439673   0.000000
    19  H    5.982422   4.783457   2.498914   0.000000
    20  H    8.024420   7.163462   4.935129   2.436379   0.000000
    21  H    9.594450   9.218544   7.198165   4.761782   2.487719
    22  H    9.273571   9.553317   7.997383   5.909168   4.281825
    23  H    7.251856   8.020529   7.003093   5.539858   4.942296
    24  H    4.779712   5.772887   5.301738   4.735093   5.341412
    25  H    4.779712   5.772887   5.301738   4.735093   5.341412
                   21         22         23         24         25
    21  H    0.000000
    22  H    2.457052   0.000000
    23  H    4.267780   2.464269   0.000000
    24  H    5.832116   4.835084   2.695996   0.000000
    25  H    5.832116   4.835084   2.695996   1.719170   0.000000
 Stoichiometry    C14H11(1+)
 Framework group  CS[SG(C14H9),X(H2)]
 Deg. of freedom    46
 Full point group                 CS      NOp   2
 Largest Abelian subgroup         CS      NOp   2
 Largest concise Abelian subgroup CS      NOp   2
                         Standard orientation:                         
 ---------------------------------------------------------------------
 Center     Atomic      Atomic             Coordinates (Angstroms)
 Number     Number       Type             X           Y           Z
 ---------------------------------------------------------------------
      1          6           0        0.041667    2.860736    0.000000
      2          6           0       -1.117889    3.612229    0.000000
      3          6           0       -2.325763    2.952155    0.000000
      4          6           0       -2.370262    1.515275    0.000000
      5          6           0       -0.103940   -2.858805    0.000000
      6          6           0        1.051423   -3.596076    0.000000
      7          6           0        2.292652   -2.958401    0.000000
      8          6           0        2.348062   -1.558977    0.000000
      9          6           0        1.286135    0.676876    0.000000
     10          6           0       -1.246296   -0.700933    0.000000
     11          6           0        0.000000    1.414849    0.000000
     12          6           0       -1.207402    0.759380    0.000000
     13          6           0        1.207646   -0.802062    0.000000
     14          6           0       -0.083145   -1.445606    0.000000
     15          1           0        1.020399    3.325319    0.000000
     16          1           0       -1.062136    4.689634    0.000000
     17          1           0       -3.266399    3.486008    0.000000
     18          1           0       -3.346624    1.047654    0.000000
     19          1           0       -2.215432   -1.180568    0.000000
     20          1           0       -1.077297   -3.334771    0.000000
     21          1           0        1.017428   -4.676735    0.000000
     22          1           0        3.199272   -3.546841    0.000000
     23          1           0        3.323614   -1.085711    0.000000
     24          1           0        1.884922    1.026083    0.859585
     25          1           0        1.884922    1.026083   -0.859585
 ---------------------------------------------------------------------
 Rotational constants (GHZ):           2.1362652           0.4445882           0.3688015
 Standard basis: 6-311++G(d,p) (5D, 7F)
 There are   299 symmetry adapted cartesian basis functions of A'  symmetry.
 There are   100 symmetry adapted cartesian basis functions of A"  symmetry.
 There are   285 symmetry adapted basis functions of A'  symmetry.
 There are   100 symmetry adapted basis functions of A"  symmetry.
   385 basis functions,   603 primitive gaussians,   399 cartesian basis functions
    47 alpha electrons       47 beta electrons
       nuclear repulsion energy       781.2625652960 Hartrees.
 NAtoms=   25 NActive=   25 NUniq=   24 SFac= 1.09D+00 NAtFMM=   60 NAOKFM=F Big=F
 Integral buffers will be    131072 words long.
 Regular integral format.
 Two-electron integral symmetry is turned on.
 Nuclear repulsion after empirical dispersion term =      781.2615859190 Hartrees.
 One-electron integrals computed using PRISM.
 NBasis=   385 RedAO= T EigKep=  1.09D-06  NBF=   285   100
 NBsUse=   379 1.00D-06 EigRej=  8.37D-07 NBFU=   279   100
 ExpMin= 3.60D-02 ExpMax= 4.56D+03 ExpMxC= 6.82D+02 IAcc=3 IRadAn=         5 AccDes= 0.00D+00
 Harris functional with IExCor= 1009 and IRadAn=       5 diagonalized for initial guess.
 HarFok:  IExCor= 1009 AccDes= 0.00D+00 IRadAn=         5 IDoV= 1 UseB2=F ITyADJ=14
 ICtDFT=  3500011 ScaDFX=  1.000000  1.000000  1.000000  1.000000
 FoFCou: FMM=F IPFlag=           0 FMFlag=      100000 FMFlg1=           0
         NFxFlg=           0 DoJE=T BraDBF=F KetDBF=T FulRan=T
         wScrn=  0.000000 ICntrl=       500 IOpCl=  0 I1Cent=   200000004 NGrid=           0
         NMat0=    1 NMatS0=      1 NMatT0=    0 NMatD0=    1 NMtDS0=    0 NMtDT0=    0
 Petite list used in FoFCou.
 Initial guess orbital symmetries:
       Occupied  (A') (A') (A') (A') (A') (A') (A') (A') (A') (A')
                 (A') (A') (A') (A') (A') (A') (A') (A') (A') (A')
                 (A') (A') (A') (A') (A') (A') (A') (A') (A') (A')
                 (A') (A') (A") (A') (A') (A') (A') (A') (A") (A')
                 (A") (A') (A') (A") (A") (A") (A")
       Virtual   (A") (A") (A") (A") (A") (A') (A') (A') (A') (A")
                 (A") (A') (A') (A') (A") (A') (A') (A') (A') (A")
                 (A') (A") (A') (A') (A') (A") (A') (A") (A') (A')
                 (A') (A') (A') (A') (A") (A') (A") (A') (A') (A')
                 (A") (A') (A') (A") (A') (A') (A') (A') (A") (A')
                 (A') (A") (A') (A") (A') (A') (A') (A") (A") (A')
                 (A') (A') (A') (A') (A') (A') (A") (A') (A') (A")
                 (A') (A') (A') (A') (A') (A') (A') (A') (A') (A')
                 (A') (A') (A') (A') (A') (A') (A') (A') (A') (A')
                 (A') (A') (A') (A') (A') (A') (A') (A") (A') (A")
                 (A') (A') (A") (A") (A') (A") (A') (A") (A") (A')
                 (A') (A") (A') (A') (A") (A') (A') (A") (A") (A')
                 (A") (A") (A') (A') (A') (A") (A') (A') (A') (A")
                 (A') (A') (A') (A') (A') (A') (A") (A') (A') (A')
                 (A') (A') (A') (A') (A') (A') (A') (A') (A') (A")
                 (A") (A') (A") (A") (A') (A') (A') (A") (A") (A')
                 (A") (A') (A") (A") (A") (A') (A') (A') (A') (A')
                 (A') (A") (A') (A") (A') (A') (A') (A') (A') (A")
                 (A') (A') (A') (A') (A") (A') (A") (A') (A") (A")
                 (A') (A") (A') (A") (A') (A') (A') (A") (A') (A')
                 (A") (A") (A") (A') (A') (A") (A') (A") (A') (A')
                 (A") (A") (A') (A") (A') (A") (A') (A') (A') (A")
                 (A') (A') (A') (A') (A") (A') (A') (A') (A") (A")
                 (A') (A') (A') (A") (A') (A') (A") (A') (A") (A')
                 (A") (A') (A') (A') (A') (A") (A') (A') (A') (A")
                 (A') (A') (A') (A") (A") (A') (A') (A") (A') (A')
                 (A') (A") (A') (A") (A') (A') (A') (A") (A') (A")
                 (A') (A') (A') (A') (A") (A') (A") (A') (A") (A')
                 (A") (A') (A") (A") (A") (A') (A') (A') (A') (A')
                 (A') (A') (A') (A') (A') (A') (A') (A') (A') (A')
                 (A') (A') (A') (A') (A") (A') (A') (A') (A') (A')
                 (A') (A') (A') (A') (A') (A') (A') (A') (A') (A')
                 (A') (A') (A') (A') (A') (A') (A') (A') (A') (A')
                 (A') (A')
 The electronic state of the initial guess is 1-A'.
 Requested convergence on RMS density matrix=1.00D-08 within 128 cycles.
 Requested convergence on MAX density matrix=1.00D-06.
 Requested convergence on             energy=1.00D-06.
 No special actions if energy rises.
 SCF Done:  E(RM062X) =  -539.752808539     A.U. after   15 cycles
            NFock= 15  Conv=0.84D-08     -V/T= 2.0041
 DoSCS=F DFT=T ScalE2(SS,OS)=  1.000000  1.000000
 ExpMin= 3.60D-02 ExpMax= 4.56D+03 ExpMxC= 6.82D+02 IAcc=3 IRadAn=         5 AccDes= 0.00D+00
 HarFok:  IExCor=  205 AccDes= 0.00D+00 IRadAn=         5 IDoV=-2 UseB2=F ITyADJ=14
 ICtDFT= 12500011 ScaDFX=  1.000000  1.000000  1.000000  1.000000
 Range of M.O.s used for correlation:    15   379
 NBasis=   385 NAE=    47 NBE=    47 NFC=    14 NFV=     0
 NROrb=    365 NOA=    33 NOB=    33 NVA=   332 NVB=   332

 **** Warning!!: The largest alpha MO coefficient is  0.14616879D+03

 Orbital symmetries:
       Occupied  (A') (A') (A') (A') (A') (A') (A') (A') (A') (A')
                 (A') (A') (A') (A') (A') (A') (A') (A') (A') (A')
                 (A') (A') (A') (A') (A') (A') (A') (A') (A') (A')
                 (A') (A") (A') (A') (A') (A') (A') (A") (A') (A")
                 (A') (A') (A') (A") (A") (A") (A")
       Virtual   (A") (A") (A") (A") (A') (A') (A') (A') (A") (A')
                 (A') (A") (A') (A') (A") (A') (A") (A') (A') (A')
                 (A") (A") (A') (A') (A') (A") (A') (A") (A') (A')
                 (A") (A') (A") (A') (A') (A') (A') (A') (A") (A')
                 (A") (A') (A') (A") (A") (A') (A") (A') (A") (A')
                 (A') (A') (A') (A') (A') (A") (A') (A') (A') (A')
                 (A') (A") (A') (A') (A') (A") (A') (A') (A') (A')
                 (A') (A') (A') (A') (A') (A') (A') (A') (A') (A')
                 (A') (A') (A') (A') (A') (A') (A') (A') (A') (A')
                 (A') (A') (A') (A') (A") (A') (A") (A") (A') (A')
                 (A") (A') (A') (A') (A") (A") (A') (A") (A") (A')
                 (A') (A') (A") (A') (A") (A') (A') (A") (A') (A")
                 (A") (A') (A") (A') (A') (A') (A") (A') (A') (A')
                 (A') (A') (A') (A') (A') (A') (A') (A') (A') (A')
                 (A') (A') (A') (A") (A') (A') (A') (A') (A') (A')
                 (A') (A') (A") (A') (A") (A') (A") (A") (A') (A")
                 (A") (A') (A') (A") (A") (A") (A') (A") (A') (A')
                 (A') (A') (A') (A") (A") (A') (A') (A') (A') (A")
                 (A') (A') (A') (A") (A") (A') (A') (A") (A') (A")
                 (A") (A') (A') (A") (A') (A") (A') (A') (A') (A')
                 (A") (A") (A") (A') (A") (A') (A') (A") (A') (A')
                 (A') (A") (A') (A") (A") (A') (A") (A') (A') (A")
                 (A') (A') (A') (A') (A") (A') (A') (A') (A") (A")
                 (A') (A') (A') (A") (A') (A') (A') (A") (A") (A')
                 (A") (A') (A') (A") (A') (A') (A') (A') (A') (A')
                 (A") (A') (A') (A') (A') (A") (A") (A") (A') (A')
                 (A') (A') (A') (A') (A') (A') (A') (A") (A') (A')
                 (A') (A") (A') (A") (A") (A") (A') (A") (A') (A")
                 (A') (A") (A") (A') (A") (A") (A') (A') (A') (A')
                 (A') (A') (A') (A') (A') (A') (A') (A') (A') (A')
                 (A') (A') (A') (A") (A') (A') (A') (A') (A') (A')
                 (A') (A') (A') (A') (A') (A') (A') (A') (A') (A')
                 (A') (A') (A') (A') (A') (A') (A') (A') (A') (A')
                 (A') (A')
     4 initial guesses have been made.
 Convergence on wavefunction:    0.001000000000000
 Iteration     1 Dimension     4 NMult     0 NNew      4
 CISAX will form     4 AO SS matrices at one time.
 Iteration     2 Dimension     6 NMult     4 NNew      2
 Iteration     3 Dimension     8 NMult     6 NNew      2
 Iteration     4 Dimension    10 NMult     8 NNew      2
 Iteration     5 Dimension    12 NMult    10 NNew      2
 Iteration     6 Dimension    14 NMult    12 NNew      2
 ***********************************************************************
 Excited states from <AA,BB:AA,BB> singles matrix:
 ***********************************************************************
 
 Ground to excited state transition densities written to RWF  633
 Ground to excited state transition electric dipole moments (Au):
       state          X           Y           Z        Dip. S.      Osc.
         1        -0.4709     -0.2508      0.0000      0.2846      0.0187
 Ground to excited state transition velocity dipole moments (Au):
       state          X           Y           Z        Dip. S.      Osc.
         1         0.0539      0.0245     -0.0000      0.0035      0.0238
 Ground to excited state transition magnetic dipole moments (Au):
       state          X           Y           Z
         1         0.0000      0.0000     -0.0764
 Ground to excited state transition velocity quadrupole moments (Au):
       state          XX          YY          ZZ          XY          XZ          YZ
         1        -0.1239     -0.1419      0.0083      0.1256     -0.0000     -0.0000
 <0|del|b> * <b|rxdel|0> + <0|del|b> * <b|delr+rdel|0>
 Rotatory Strengths (R) in cgs (10**-40 erg-esu-cm/Gauss)
       state          XX          YY          ZZ    R(velocity)    E-M Angle
         1         0.0000      0.0000      0.0000      0.0000       90.00
 1/2[<0|r|b>*<b|rxdel|0> + (<0|rxdel|b>*<b|r|0>)*]
 Rotatory Strengths (R) in cgs (10**-40 erg-esu-cm/Gauss)
       state          XX          YY          ZZ     R(length)
         1         0.0000      0.0000      0.0000      0.0000
  1/2[<0|del|b>*<b|r|0> + (<0|r|b>*<b|del|0>)*] (Au)
       state          X           Y           Z        Dip. S.   Osc.(frdel)
         1        -0.0254     -0.0061     -0.0000      0.0315      0.0210

 Excitation energies and oscillator strengths:
 
 Excited State   1:      Singlet-A'     2.6756 eV  463.39 nm  f=0.0187  <S**2>=0.000
      47 -> 48         0.70343
 This state for optimization and/or second-order correction.
 Total Energy, E(TD-HF/TD-DFT) =  -539.654483356    
 Copying the excited state density for this state as the 1-particle RhoCI density.
 SavETr:  write IOETrn=   770 NScale= 10 NData=  16 NLR=1 NState=    1 LETran=      28.

 **********************************************************************

            Population analysis using the SCF Density.

 **********************************************************************

 Orbital symmetries:
       Occupied  (A') (A') (A') (A') (A') (A') (A') (A') (A') (A')
                 (A') (A') (A') (A') (A') (A') (A') (A') (A') (A')
                 (A') (A') (A') (A') (A') (A') (A') (A') (A') (A')
                 (A') (A") (A') (A') (A') (A') (A') (A") (A') (A")
                 (A') (A') (A') (A") (A") (A") (A")
       Virtual   (A") (A") (A") (A") (A') (A') (A') (A') (A") (A')
                 (A') (A") (A') (A') (A") (A') (A") (A') (A') (A')
                 (A") (A") (A') (A') (A') (A") (A') (A") (A') (A')
                 (A") (A') (A") (A') (A') (A') (A') (A') (A") (A')
                 (A") (A') (A') (A") (A") (A') (A") (A') (A") (A')
                 (A') (A') (A') (A') (A') (A") (A') (A') (A') (A')
                 (A') (A") (A') (A') (A') (A") (A') (A') (A') (A')
                 (A') (A') (A') (A') (A') (A') (A') (A') (A') (A')
                 (A') (A') (A') (A') (A') (A') (A') (A') (A') (A')
                 (A') (A') (A') (A') (A") (A') (A") (A") (A') (A')
                 (A") (A') (A') (A') (A") (A") (A') (A") (A") (A')
                 (A') (A') (A") (A') (A") (A') (A') (A") (A') (A")
                 (A") (A') (A") (A') (A') (A') (A") (A') (A') (A')
                 (A') (A') (A') (A') (A') (A') (A') (A') (A') (A')
                 (A') (A') (A') (A") (A') (A') (A') (A') (A') (A')
                 (A') (A') (A") (A') (A") (A') (A") (A") (A') (A")
                 (A") (A') (A') (A") (A") (A") (A') (A") (A') (A')
                 (A') (A') (A') (A") (A") (A') (A') (A') (A') (A")
                 (A') (A') (A') (A") (A") (A') (A') (A") (A') (A")
                 (A") (A') (A') (A") (A') (A") (A') (A') (A') (A')
                 (A") (A") (A") (A') (A") (A') (A') (A") (A') (A')
                 (A') (A") (A') (A") (A") (A') (A") (A') (A') (A")
                 (A') (A') (A') (A') (A") (A') (A') (A') (A") (A")
                 (A') (A') (A') (A") (A') (A') (A') (A") (A") (A')
                 (A") (A') (A') (A") (A') (A') (A') (A') (A') (A')
                 (A") (A') (A') (A') (A') (A") (A") (A") (A') (A')
                 (A') (A') (A') (A') (A') (A') (A') (A") (A') (A')
                 (A') (A") (A') (A") (A") (A") (A') (A") (A') (A")
                 (A') (A") (A") (A') (A") (A") (A') (A') (A') (A')
                 (A') (A') (A') (A') (A') (A') (A') (A') (A') (A')
                 (A') (A') (A') (A") (A') (A') (A') (A') (A') (A')
                 (A') (A') (A') (A') (A') (A') (A') (A') (A') (A')
                 (A') (A') (A') (A') (A') (A') (A') (A') (A') (A')
                 (A') (A')
 The electronic state is 1-A'.
 Alpha  occ. eigenvalues --  -10.77504 -10.73934 -10.72882 -10.72456 -10.72362
 Alpha  occ. eigenvalues --  -10.72096 -10.71839 -10.70971 -10.70605 -10.70364
 Alpha  occ. eigenvalues --  -10.70104 -10.69761 -10.69572 -10.69160  -1.16546
 Alpha  occ. eigenvalues --   -1.12458  -1.06987  -1.05918  -1.01230  -1.00312
 Alpha  occ. eigenvalues --   -0.95647  -0.91093  -0.86398  -0.85869  -0.83767
 Alpha  occ. eigenvalues --   -0.78345  -0.76143  -0.74374  -0.70063  -0.69215
 Alpha  occ. eigenvalues --   -0.68274  -0.68097  -0.67913  -0.65303  -0.64132
 Alpha  occ. eigenvalues --   -0.62685  -0.61682  -0.60428  -0.59403  -0.59292
 Alpha  occ. eigenvalues --   -0.56741  -0.55464  -0.54225  -0.52475  -0.47295
 Alpha  occ. eigenvalues --   -0.46123  -0.43808
 Alpha virt. eigenvalues --   -0.26132  -0.14648  -0.14049  -0.12739  -0.11197
 Alpha virt. eigenvalues --   -0.10098  -0.09274  -0.07959  -0.07899  -0.07484
 Alpha virt. eigenvalues --   -0.07214  -0.07123  -0.05645  -0.05572  -0.05360
 Alpha virt. eigenvalues --   -0.03853  -0.03668  -0.03261  -0.03133  -0.02153
 Alpha virt. eigenvalues --   -0.01346  -0.00954   0.00183   0.00563   0.00649
 Alpha virt. eigenvalues --    0.01066   0.01501   0.01886   0.02125   0.02308
 Alpha virt. eigenvalues --    0.02454   0.02685   0.02851   0.03201   0.03453
 Alpha virt. eigenvalues --    0.04219   0.04550   0.04757   0.05051   0.05383
 Alpha virt. eigenvalues --    0.06034   0.06288   0.06585   0.07056   0.07272
 Alpha virt. eigenvalues --    0.07895   0.08029   0.08344   0.08709   0.08891
 Alpha virt. eigenvalues --    0.09460   0.09581   0.09881   0.10741   0.10968
 Alpha virt. eigenvalues --    0.11139   0.12072   0.12220   0.12601   0.13024
 Alpha virt. eigenvalues --    0.13491   0.13536   0.13964   0.14468   0.15780
 Alpha virt. eigenvalues --    0.16380   0.16520   0.17335   0.17522   0.17884
 Alpha virt. eigenvalues --    0.18132   0.19056   0.19538   0.19719   0.19815
 Alpha virt. eigenvalues --    0.21527   0.21627   0.22620   0.23178   0.23584
 Alpha virt. eigenvalues --    0.23966   0.24522   0.25459   0.26947   0.27652
 Alpha virt. eigenvalues --    0.28772   0.29387   0.29990   0.31366   0.35541
 Alpha virt. eigenvalues --    0.36837   0.38174   0.39221   0.41064   0.41206
 Alpha virt. eigenvalues --    0.41962   0.42163   0.42989   0.43760   0.44417
 Alpha virt. eigenvalues --    0.44423   0.45246   0.46089   0.46419   0.47900
 Alpha virt. eigenvalues --    0.48355   0.48807   0.48966   0.50579   0.51058
 Alpha virt. eigenvalues --    0.51278   0.52086   0.52169   0.52830   0.54105
 Alpha virt. eigenvalues --    0.54242   0.54523   0.55678   0.56060   0.57541
 Alpha virt. eigenvalues --    0.58224   0.58962   0.61507   0.62230   0.62506
 Alpha virt. eigenvalues --    0.63164   0.63521   0.64858   0.65168   0.67413
 Alpha virt. eigenvalues --    0.70396   0.70450   0.71264   0.72478   0.72932
 Alpha virt. eigenvalues --    0.75680   0.75987   0.76284   0.76751   0.77218
 Alpha virt. eigenvalues --    0.77705   0.78146   0.78315   0.79928   0.80411
 Alpha virt. eigenvalues --    0.81138   0.81713   0.82456   0.82992   0.85246
 Alpha virt. eigenvalues --    0.87175   0.88270   0.88306   0.89230   0.90721
 Alpha virt. eigenvalues --    0.91088   0.91246   0.93321   0.94661   0.96460
 Alpha virt. eigenvalues --    0.96727   1.00317   1.01208   1.01447   1.03050
 Alpha virt. eigenvalues --    1.03144   1.03581   1.04923   1.05929   1.08912
 Alpha virt. eigenvalues --    1.19498   1.23056   1.24036   1.24878   1.28453
 Alpha virt. eigenvalues --    1.29644   1.31825   1.34324   1.35917   1.36009
 Alpha virt. eigenvalues --    1.39113   1.40074   1.40705   1.42998   1.43414
 Alpha virt. eigenvalues --    1.43673   1.44336   1.46136   1.46550   1.46653
 Alpha virt. eigenvalues --    1.47890   1.48122   1.51788   1.53666   1.55405
 Alpha virt. eigenvalues --    1.55806   1.56186   1.56685   1.57981   1.61516
 Alpha virt. eigenvalues --    1.62793   1.63240   1.64283   1.66060   1.68167
 Alpha virt. eigenvalues --    1.68313   1.68753   1.69740   1.74437   1.76064
 Alpha virt. eigenvalues --    1.77169   1.78498   1.79822   1.79877   1.80947
 Alpha virt. eigenvalues --    1.82807   1.83202   1.83651   1.84272   1.84280
 Alpha virt. eigenvalues --    1.84382   1.85512   1.86441   1.88370   1.91423
 Alpha virt. eigenvalues --    1.91975   1.94377   1.95340   1.97623   1.98360
 Alpha virt. eigenvalues --    1.99842   2.02426   2.04513   2.07413   2.11726
 Alpha virt. eigenvalues --    2.12271   2.14395   2.15304   2.19172   2.21305
 Alpha virt. eigenvalues --    2.22900   2.28398   2.30228   2.34606   2.34761
 Alpha virt. eigenvalues --    2.36304   2.38395   2.39843   2.42118   2.44606
 Alpha virt. eigenvalues --    2.46188   2.46501   2.48876   2.53387   2.54218
 Alpha virt. eigenvalues --    2.54255   2.56823   2.58011   2.58481   2.59385
 Alpha virt. eigenvalues --    2.60012   2.61420   2.61839   2.63593   2.63931
 Alpha virt. eigenvalues --    2.64872   2.64899   2.65105   2.65817   2.67706
 Alpha virt. eigenvalues --    2.69055   2.70868   2.71314   2.73458   2.74818
 Alpha virt. eigenvalues --    2.76275   2.78365   2.79661   2.83253   2.83256
 Alpha virt. eigenvalues --    2.84994   2.86282   2.92198   2.97088   2.99047
 Alpha virt. eigenvalues --    3.00569   3.04768   3.09532   3.11350   3.14005
 Alpha virt. eigenvalues --    3.19694   3.22070   3.25938   3.29276   3.31042
 Alpha virt. eigenvalues --    3.32722   3.35532   3.43856   3.46364   3.46851
 Alpha virt. eigenvalues --    3.48200   3.50120   3.56506   3.65743   3.66564
 Alpha virt. eigenvalues --    3.69180   3.93568   3.94040   3.95363   3.96424
 Alpha virt. eigenvalues --    4.03819   4.06675   4.07181   4.12355   4.35104
 Alpha virt. eigenvalues --    4.60562   4.68938   4.71131  23.45092  23.59584
 Alpha virt. eigenvalues --   23.78536  23.80189  23.84494  23.88980  23.94235
 Alpha virt. eigenvalues --   23.95311  23.96343  24.00494  24.05058  24.06531
 Alpha virt. eigenvalues --   24.12558  24.12604
          Condensed to atoms (all electrons):
               1          2          3          4          5          6
     1  C    8.895397  -0.024986  -0.362756   2.195669  -0.118685  -0.106611
     2  C   -0.024986   7.281482   0.151201  -1.209849   0.029035  -0.014587
     3  C   -0.362756   0.151201   6.597069   0.905234  -0.158236   0.016834
     4  C    2.195669  -1.209849   0.905234  10.192121  -0.450228  -0.111114
     5  C   -0.118685   0.029035  -0.158236  -0.450228  12.521159   0.711563
     6  C   -0.106611  -0.014587   0.016834  -0.111114   0.711563   6.677683
     7  C    0.005968  -0.001884  -0.012812  -0.030472  -1.097691   0.463514
     8  C    0.409850  -0.036476  -0.087939   0.012172   1.976178  -0.634735
     9  C   -1.036423  -0.788421   0.314466  -0.374283   0.094208   0.292781
    10  C   -1.374790   0.350409  -0.448769  -2.329978  -2.897127  -0.264802
    11  C    0.450804  -1.178272   1.259399   0.363237  -1.778073  -0.273878
    12  C   -2.784657   1.991472  -1.642836  -1.969469  -0.441069  -0.058798
    13  C    0.394139  -0.389496  -0.048188  -1.104166  -1.092387   0.750922
    14  C   -1.041163  -0.016765  -0.355299  -0.385082  -1.709014  -1.328796
    15  H    0.369927  -0.109383   0.004537   0.026771   0.004531   0.001125
    16  H   -0.017309   0.377233  -0.013313   0.011731  -0.001396  -0.000327
    17  H   -0.034817  -0.005479   0.370193  -0.069907   0.000290   0.000414
    18  H    0.053140   0.002771  -0.083859   0.449899   0.005259  -0.005261
    19  H   -0.045532  -0.009102   0.054156  -0.046729  -0.099875   0.048914
    20  H    0.007055   0.002360  -0.005239   0.005592   0.477976  -0.084471
    21  H   -0.001302  -0.000389   0.000391   0.000197  -0.067515   0.377983
    22  H    0.001104   0.000400  -0.000328  -0.001498   0.014641  -0.021383
    23  H    0.004363  -0.002753   0.001081   0.005702   0.030416  -0.005274
    24  H    0.030962   0.012673  -0.001235  -0.010309  -0.013821  -0.001830
    25  H    0.030962   0.012673  -0.001235  -0.010309  -0.013821  -0.001830
               7          8          9         10         11         12
     1  C    0.005968   0.409850  -1.036423  -1.374790   0.450804  -2.784657
     2  C   -0.001884  -0.036476  -0.788421   0.350409  -1.178272   1.991472
     3  C   -0.012812  -0.087939   0.314466  -0.448769   1.259399  -1.642836
     4  C   -0.030472   0.012172  -0.374283  -2.329978   0.363237  -1.969469
     5  C   -1.097691   1.976178   0.094208  -2.897127  -1.778073  -0.441069
     6  C    0.463514  -0.634735   0.292781  -0.264802  -0.273878  -0.058798
     7  C    7.187829   0.437768  -0.930602   0.190349  -0.188767  -0.302026
     8  C    0.437768   8.538630  -1.159606  -1.261158   0.142657  -1.186561
     9  C   -0.930602  -1.159606   9.725415   0.231239   1.582864  -1.730372
    10  C    0.190349  -1.261158   0.231239   9.091337  -0.652717   2.634547
    11  C   -0.188767   0.142657   1.582864  -0.652717  13.952343  -3.583659
    12  C   -0.302026  -1.186561  -1.730372   2.634547  -3.583659  16.357388
    13  C   -0.602857   0.228124   1.379313  -0.162853   0.956450  -4.936475
    14  C    0.990392  -1.876364  -2.163267   2.361268  -4.472337   3.117395
    15  H   -0.002161   0.007378   0.092554  -0.009805  -0.029920  -0.040178
    16  H    0.000310   0.000364   0.002073  -0.008506   0.021611  -0.029092
    17  H   -0.000402  -0.001351  -0.006019   0.020381  -0.029880   0.103147
    18  H    0.001939   0.006890  -0.025459   0.012668   0.002314  -0.066173
    19  H   -0.007178  -0.046476   0.074774   0.420958   0.084020  -0.033686
    20  H    0.002078   0.050241  -0.022666   0.007089  -0.011862  -0.025198
    21  H   -0.022250  -0.020042  -0.005368   0.019079  -0.006406   0.005517
    22  H    0.381342  -0.021232   0.003078  -0.009173   0.003884  -0.010335
    23  H   -0.109555   0.369161   0.093378  -0.009400  -0.002801   0.008199
    24  H    0.015717   0.034607   0.355266   0.005179  -0.000178  -0.057030
    25  H    0.015717   0.034607   0.355266   0.005179  -0.000178  -0.057030
              13         14         15         16         17         18
     1  C    0.394139  -1.041163   0.369927  -0.017309  -0.034817   0.053140
     2  C   -0.389496  -0.016765  -0.109383   0.377233  -0.005479   0.002771
     3  C   -0.048188  -0.355299   0.004537  -0.013313   0.370193  -0.083859
     4  C   -1.104166  -0.385082   0.026771   0.011731  -0.069907   0.449899
     5  C   -1.092387  -1.709014   0.004531  -0.001396   0.000290   0.005259
     6  C    0.750922  -1.328796   0.001125  -0.000327   0.000414  -0.005261
     7  C   -0.602857   0.990392  -0.002161   0.000310  -0.000402   0.001939
     8  C    0.228124  -1.876364   0.007378   0.000364  -0.001351   0.006890
     9  C    1.379313  -2.163267   0.092554   0.002073  -0.006019  -0.025459
    10  C   -0.162853   2.361268  -0.009805  -0.008506   0.020381   0.012668
    11  C    0.956450  -4.472337  -0.029920   0.021611  -0.029880   0.002314
    12  C   -4.936475   3.117395  -0.040178  -0.029092   0.103147  -0.066173
    13  C   14.848867  -3.658250   0.009617   0.001793  -0.006162  -0.011437
    14  C   -3.658250  16.106393   0.002127  -0.007379   0.004747  -0.007302
    15  H    0.009617   0.002127   0.447798  -0.009606   0.001441  -0.000035
    16  H    0.001793  -0.007379  -0.009606   0.424701  -0.006417   0.001964
    17  H   -0.006162   0.004747   0.001441  -0.006417   0.426090  -0.010858
    18  H   -0.011437  -0.007302  -0.000035   0.001964  -0.010858   0.457662
    19  H    0.076767  -0.095910   0.000283  -0.000543   0.001283  -0.006431
    20  H   -0.011641  -0.053308  -0.000116   0.000014  -0.000135   0.001238
    21  H   -0.022161   0.083907   0.000011  -0.000007   0.000010  -0.000153
    22  H    0.028148  -0.031808  -0.000131   0.000008  -0.000007   0.000017
    23  H   -0.035453  -0.012583   0.000549  -0.000126   0.000017  -0.000115
    24  H    0.026361  -0.060572  -0.000919   0.000639  -0.000142   0.000203
    25  H    0.026361  -0.060572  -0.000919   0.000639  -0.000142   0.000203
              19         20         21         22         23         24
     1  C   -0.045532   0.007055  -0.001302   0.001104   0.004363   0.030962
     2  C   -0.009102   0.002360  -0.000389   0.000400  -0.002753   0.012673
     3  C    0.054156  -0.005239   0.000391  -0.000328   0.001081  -0.001235
     4  C   -0.046729   0.005592   0.000197  -0.001498   0.005702  -0.010309
     5  C   -0.099875   0.477976  -0.067515   0.014641   0.030416  -0.013821
     6  C    0.048914  -0.084471   0.377983  -0.021383  -0.005274  -0.001830
     7  C   -0.007178   0.002078  -0.022250   0.381342  -0.109555   0.015717
     8  C   -0.046476   0.050241  -0.020042  -0.021232   0.369161   0.034607
     9  C    0.074774  -0.022666  -0.005368   0.003078   0.093378   0.355266
    10  C    0.420958   0.007089   0.019079  -0.009173  -0.009400   0.005179
    11  C    0.084020  -0.011862  -0.006406   0.003884  -0.002801  -0.000178
    12  C   -0.033686  -0.025198   0.005517  -0.010335   0.008199  -0.057030
    13  C    0.076767  -0.011641  -0.022161   0.028148  -0.035453   0.026361
    14  C   -0.095910  -0.053308   0.083907  -0.031808  -0.012583  -0.060572
    15  H    0.000283  -0.000116   0.000011  -0.000131   0.000549  -0.000919
    16  H   -0.000543   0.000014  -0.000007   0.000008  -0.000126   0.000639
    17  H    0.001283  -0.000135   0.000010  -0.000007   0.000017  -0.000142
    18  H   -0.006431   0.001238  -0.000153   0.000017  -0.000115   0.000203
    19  H    0.444193  -0.006209   0.001582  -0.000537   0.000359   0.000591
    20  H   -0.006209   0.450242  -0.009619   0.001894   0.000318   0.000164
    21  H    0.001582  -0.009619   0.417636  -0.006555   0.001453  -0.000139
    22  H   -0.000537   0.001894  -0.006555   0.413896  -0.008453   0.000626
    23  H    0.000359   0.000318   0.001453  -0.008453   0.431680  -0.000859
    24  H    0.000591   0.000164  -0.000139   0.000626  -0.000859   0.493691
    25  H    0.000591   0.000164  -0.000139   0.000626  -0.000859  -0.079511
              25
     1  C    0.030962
     2  C    0.012673
     3  C   -0.001235
     4  C   -0.010309
     5  C   -0.013821
     6  C   -0.001830
     7  C    0.015717
     8  C    0.034607
     9  C    0.355266
    10  C    0.005179
    11  C   -0.000178
    12  C   -0.057030
    13  C    0.026361
    14  C   -0.060572
    15  H   -0.000919
    16  H    0.000639
    17  H   -0.000142
    18  H    0.000203
    19  H    0.000591
    20  H    0.000164
    21  H   -0.000139
    22  H    0.000626
    23  H   -0.000859
    24  H   -0.079511
    25  H    0.493691
 Mulliken charges:
               1
     1  C    0.099691
     2  C   -0.423869
     3  C   -0.452516
     4  C   -0.064934
     5  C    0.073680
     6  C   -0.428034
     7  C   -0.384265
     8  C    0.083314
     9  C   -0.354189
    10  C    0.079393
    11  C   -0.610654
    12  C    0.736980
    13  C   -0.645337
    14  C    0.669542
    15  H    0.234524
    16  H    0.250940
    17  H    0.243704
    18  H    0.220917
    19  H    0.189739
    20  H    0.224036
    21  H    0.254279
    22  H    0.261775
    23  H    0.241553
    24  H    0.249865
    25  H    0.249865
 Sum of Mulliken charges =   1.00000
 Mulliken charges with hydrogens summed into heavy atoms:
               1
     1  C    0.334216
     2  C   -0.172928
     3  C   -0.208811
     4  C    0.155982
     5  C    0.297717
     6  C   -0.173755
     7  C   -0.122490
     8  C    0.324868
     9  C    0.145541
    10  C    0.269131
    11  C   -0.610654
    12  C    0.736980
    13  C   -0.645337
    14  C    0.669542
 Electronic spatial extent (au):  <R**2>=           2855.9617
 Charge=              1.0000 electrons
 Dipole moment (field-independent basis, Debye):
    X=              0.4821    Y=             -1.2819    Z=              0.0000  Tot=              1.3695
 Quadrupole moment (field-independent basis, Debye-Ang):
   XX=            -50.8248   YY=            -36.3948   ZZ=            -84.1221
   XY=            -10.4322   XZ=             -0.0000   YZ=              0.0000
 Traceless Quadrupole moment (field-independent basis, Debye-Ang):
   XX=              6.2891   YY=             20.7191   ZZ=            -27.0082
   XY=            -10.4322   XZ=             -0.0000   YZ=              0.0000
 Octapole moment (field-independent basis, Debye-Ang**2):
  XXX=              3.6694  YYY=             -8.3026  ZZZ=              0.0000  XYY=              5.6545
  XXY=             -9.2997  XXZ=              0.0000  XZZ=              3.5571  YZZ=             -0.1246
  YYZ=              0.0000  XYZ=              0.0000
 Hexadecapole moment (field-independent basis, Debye-Ang**3):
 XXXX=           -974.3110 YYYY=          -1866.1585 ZZZZ=            -99.2862 XXXY=            341.0951
 XXXZ=              0.0000 YYYX=            268.5185 YYYZ=              0.0000 ZZZX=              0.0000
 ZZZY=              0.0000 XXYY=           -452.2040 XXZZ=           -239.2222 YYZZ=           -497.0808
 XXYZ=              0.0000 YYXZ=              0.0000 ZZXY=            181.2401
 N-N= 7.812615859190D+02 E-N=-2.798893716651D+03  KE= 5.375427922731D+02
 Symmetry A'   KE= 5.228846601258D+02
 Symmetry A"   KE= 1.465813214725D+01
 Unable to Open any file for archive entry.
 1\1\GINC-GADI-CPU-CLX-2072\SP\RM062X TD-FC\6-311++G(d,p)\C14H11(1+)\TS
 1578\28-Jul-2022\0\\#n M062X/6-311++G(d,p) TD(NStates=1) EmpiricalDisp
 ersion=GD3 SP\\SP_-12\\1,1\C,0,0.,2.516655,1.361031\C,0,0.,3.719508,0.
 680989\C,0,0.,3.693461,-0.69523\C,0,0.,2.440356,-1.399738\C,0,0.,-2.48
 5956,-1.415338\C,0,0.,-3.674261,-0.73243\C,0,0.,-3.683508,0.662989\C,0
 ,0.,-2.468655,1.359831\C,0,0.,0.0048,1.453369\C,0,0.,-0.0444,-1.429189
 \C,0,0.,1.254255,0.654865\C,0,0.,1.232071,-0.718804\C,0,0.,-1.269855,0
 .699265\C,0,0.,-1.242871,-0.742804\H,0,0.,2.475471,2.443647\H,0,0.,4.6
 48753,1.229089\H,0,0.,4.602062,-1.281949\H,0,0.,2.47775,-2.481659\H,0,
 0.,-0.021,-2.510266\H,0,0.,-2.45735,-2.498459\H,0,0.,-4.616462,-1.2627
 49\H,0,0.,-4.624753,1.194289\H,0,0.,-2.500671,2.443647\H,0,-0.859585,0
 .0372,2.145787\H,0,0.859585,0.0372,2.145787\\Version=ES64L-G16RevC.01\
 State=1-A'\HF=-539.7528085\RMSD=8.409e-09\PG=CS [SG(C14H9),X(H2)]\\@
 The archive entry for this job was punched.


 FROM AN ANONYMOUS WRITER, ON PERSPECTIVE:

 MAN, DESPITE HIS ARTISTIC PRETENSIONS, HIS SOPHISTICATION AND MANY 
 ACCOMPLISHMENTS, OWES THE FACT OF HIS EXISTENCE TO A SIX-INCH LAYER OF 
 TOPSOIL AND THE FACT THAT IT RAINS.
 Job cpu time:       0 days  0 hours 52 minutes 45.5 seconds.
 Elapsed time:       0 days  0 hours  1 minutes  6.1 seconds.
 File lengths (MBytes):  RWF=    460 Int=      0 D2E=      0 Chk=     15 Scr=      1
 Normal termination of Gaussian 16 at Thu Jul 28 13:25:07 2022.
