 Entering Gaussian System, Link 0=g16
 Initial command:
 /apps/gaussian/g16c01/g16/l1.exe "/jobfs/53005151.gadi-pbs/Gau-4170470.inp" -scrdir="/jobfs/53005151.gadi-pbs/"
 Entering Link 1 = /apps/gaussian/g16c01/g16/l1.exe PID=   4170471.
  
 Copyright (c) 1988-2019, Gaussian, Inc.  All Rights Reserved.
  
 This is part of the Gaussian(R) 16 program.  It is based on
 the Gaussian(R) 09 system (copyright 2009, Gaussian, Inc.),
 the Gaussian(R) 03 system (copyright 2003, Gaussian, Inc.),
 the Gaussian(R) 98 system (copyright 1998, Gaussian, Inc.),
 the Gaussian(R) 94 system (copyright 1995, Gaussian, Inc.),
 the Gaussian 92(TM) system (copyright 1992, Gaussian, Inc.),
 the Gaussian 90(TM) system (copyright 1990, Gaussian, Inc.),
 the Gaussian 88(TM) system (copyright 1988, Gaussian, Inc.),
 the Gaussian 86(TM) system (copyright 1986, Carnegie Mellon
 University), and the Gaussian 82(TM) system (copyright 1983,
 Carnegie Mellon University). Gaussian is a federally registered
 trademark of Gaussian, Inc.
  
 This software contains proprietary and confidential information,
 including trade secrets, belonging to Gaussian, Inc.
  
 This software is provided under written license and may be
 used, copied, transmitted, or stored only in accord with that
 written license.
  
 The following legend is applicable only to US Government
 contracts under FAR:
  
                    RESTRICTED RIGHTS LEGEND
  
 Use, reproduction and disclosure by the US Government is
 subject to restrictions as set forth in subparagraphs (a)
 and (c) of the Commercial Computer Software - Restricted
 Rights clause in FAR 52.227-19.
  
 Gaussian, Inc.
 340 Quinnipiac St., Bldg. 40, Wallingford CT 06492
  
  
 ---------------------------------------------------------------
 Warning -- This program may not be used in any manner that
 competes with the business of Gaussian, Inc. or will provide
 assistance to any competitor of Gaussian, Inc.  The licensee
 of this program is prohibited from giving any competitor of
 Gaussian, Inc. access to this program.  By using this program,
 the user acknowledges that Gaussian, Inc. is engaged in the
 business of creating and licensing software in the field of
 computational chemistry and represents and warrants to the
 licensee that it is not a competitor of Gaussian, Inc. and that
 it will not use this program in any manner prohibited above.
 ---------------------------------------------------------------
  

 Cite this work as:
 Gaussian 16, Revision C.01,
 M. J. Frisch, G. W. Trucks, H. B. Schlegel, G. E. Scuseria, 
 M. A. Robb, J. R. Cheeseman, G. Scalmani, V. Barone, 
 G. A. Petersson, H. Nakatsuji, X. Li, M. Caricato, A. V. Marenich, 
 J. Bloino, B. G. Janesko, R. Gomperts, B. Mennucci, H. P. Hratchian, 
 J. V. Ortiz, A. F. Izmaylov, J. L. Sonnenberg, D. Williams-Young, 
 F. Ding, F. Lipparini, F. Egidi, J. Goings, B. Peng, A. Petrone, 
 T. Henderson, D. Ranasinghe, V. G. Zakrzewski, J. Gao, N. Rega, 
 G. Zheng, W. Liang, M. Hada, M. Ehara, K. Toyota, R. Fukuda, 
 J. Hasegawa, M. Ishida, T. Nakajima, Y. Honda, O. Kitao, H. Nakai, 
 T. Vreven, K. Throssell, J. A. Montgomery, Jr., J. E. Peralta, 
 F. Ogliaro, M. J. Bearpark, J. J. Heyd, E. N. Brothers, K. N. Kudin, 
 V. N. Staroverov, T. A. Keith, R. Kobayashi, J. Normand, 
 K. Raghavachari, A. P. Rendell, J. C. Burant, S. S. Iyengar, 
 J. Tomasi, M. Cossi, J. M. Millam, M. Klene, C. Adamo, R. Cammi, 
 J. W. Ochterski, R. L. Martin, K. Morokuma, O. Farkas, 
 J. B. Foresman, and D. J. Fox, Gaussian, Inc., Wallingford CT, 2019.
 
 ******************************************
 Gaussian 16:  ES64L-G16RevC.01  3-Jul-2019
                28-Jul-2022 
 ******************************************
 %NProcShared=48
 Will use up to   48 processors via shared memory.
 %mem = 190GB
 ---------------------------------------------------------------
 #n M062X/6-311++G(d,p) TD(NStates=1) EmpiricalDispersion=GD3 SP
 ---------------------------------------------------------------
 1/38=1,172=1/1;
 2/12=2,17=6,18=5,40=1/2;
 3/5=4,6=6,7=1111,11=9,25=1,30=1,74=-55,124=31/1,2,3,8;
 4//1;
 5/5=2,38=5/2;
 8/6=1,10=2,108=1/1;
 9/41=1,42=1,70=2/14;
 6/7=2,8=2,9=2,10=2/1;
 99/5=1,9=1/99;
 -----
 SP_-2
 -----
 Symbolic Z-matrix:
 Charge =  1 Multiplicity = 1
 C                     0.        2.49106   1.35983 
 C                     0.        3.70871   0.67419 
 C                     0.        3.68686  -0.71003 
 C                     0.        2.45796  -1.40414 
 C                     0.       -2.46836  -1.41094 
 C                     0.       -3.68086  -0.71763 
 C                     0.       -3.69431   0.66979 
 C                     0.       -2.49426   1.36103 
 C                     0.        0.0064    1.45337 
 C                     0.        0.0038   -1.42919 
 C                     0.        1.25726   0.68387 
 C                     0.        1.23027  -0.7414 
 C                     0.       -1.26686   0.67027 
 C                     0.       -1.24467  -0.7202 
 H                     0.        2.50767   2.44365 
 H                     0.        4.64995   1.20409 
 H                     0.        4.61786  -1.25995 
 H                     0.        2.44475  -2.48726 
 H                     0.       -0.014    -2.51027 
 H                     0.       -2.49035  -2.49286 
 H                     0.       -4.60066  -1.28475 
 H                     0.       -4.62355   1.21929 
 H                     0.       -2.46847   2.44365 
 H                    -0.85959   0.0244    2.14579 
 H                     0.85959   0.0244    2.14579 
 
                          Input orientation:                          
 ---------------------------------------------------------------------
 Center     Atomic      Atomic             Coordinates (Angstroms)
 Number     Number       Type             X           Y           Z
 ---------------------------------------------------------------------
      1          6           0        0.000000    2.491055    1.359831
      2          6           0        0.000000    3.708708    0.674189
      3          6           0        0.000000    3.686861   -0.710030
      4          6           0        0.000000    2.457956   -1.404138
      5          6           0        0.000000   -2.468356   -1.410938
      6          6           0        0.000000   -3.680861   -0.717630
      7          6           0        0.000000   -3.694308    0.669789
      8          6           0        0.000000   -2.494255    1.361031
      9          6           0        0.000000    0.006400    1.453369
     10          6           0        0.000000    0.003800   -1.429189
     11          6           0        0.000000    1.257255    0.683865
     12          6           0        0.000000    1.230271   -0.741404
     13          6           0        0.000000   -1.266855    0.670265
     14          6           0        0.000000   -1.244671   -0.720204
     15          1           0        0.000000    2.507671    2.443647
     16          1           0        0.000000    4.649953    1.204089
     17          1           0        0.000000    4.617862   -1.259949
     18          1           0        0.000000    2.444750   -2.487259
     19          1           0        0.000000   -0.014000   -2.510266
     20          1           0        0.000000   -2.490350   -2.492859
     21          1           0        0.000000   -4.600662   -1.284749
     22          1           0        0.000000   -4.623553    1.219289
     23          1           0        0.000000   -2.468471    2.443647
     24          1           0       -0.859585    0.024400    2.145787
     25          1           0        0.859585    0.024400    2.145787
 ---------------------------------------------------------------------
                    Distance matrix (angstroms):
                    1          2          3          4          5
     1  C    0.000000
     2  C    1.397420   0.000000
     3  C    2.390455   1.384391   0.000000
     4  C    2.764167   2.425659   1.411380   0.000000
     5  C    5.680926   6.519500   6.194995   4.926317   0.000000
     6  C    6.512173   7.519501   7.367726   6.177084   1.396726
     7  C    6.223735   7.403017   7.509032   6.492421   2.415033
     8  C    4.985310   6.240873   6.518856   5.671909   2.772090
     9  C    2.486415   3.783412   4.269202   3.765033   3.785323
    10  C    3.736987   4.260345   3.752616   2.454284   2.472223
    11  C    1.406838   2.451472   2.801058   2.408618   4.274152
    12  C    2.450462   2.854217   2.456790   1.395144   3.758739
    13  C    3.820653   4.975565   5.142423   4.263492   2.403125
    14  C    4.275768   5.145901   4.931542   3.765264   1.405176
    15  H    1.083943   2.138568   3.366923   3.848106   6.294336
    16  H    2.164508   1.080156   2.142755   3.407007   7.583448
    17  H    3.374397   2.137160   1.081283   2.164713   7.087826
    18  H    3.847369   3.404753   2.168267   1.083202   5.029620
    19  H    4.610092   4.898909   4.115486   2.708152   2.689309
    20  H    6.297429   6.961215   6.429340   5.066660   1.082145
    21  H    7.568768   8.537158   8.307427   7.059628   2.136037
    22  H    7.115996   8.350072   8.531427   7.551830   3.400436
    23  H    5.076569   6.425615   6.916198   6.251011   3.854585
    24  H    2.727820   4.059386   4.723155   4.388969   4.427529
    25  H    2.727820   4.059386   4.723155   4.388969   4.427529
                    6          7          8          9         10
     6  C    0.000000
     7  C    1.387484   0.000000
     8  C    2.393505   1.384898   0.000000
     9  C    4.278917   3.782755   2.502359   0.000000
    10  C    3.752738   4.252260   3.745078   2.882559   0.000000
    11  C    5.133145   4.951583   3.812136   1.468596   2.456857
    12  C    4.911190   5.122787   4.276953   2.512944   1.406158
    13  C    2.784543   2.427453   1.408428   1.494801   2.454032
    14  C    2.436191   2.816523   2.427550   2.507907   1.435737
    15  H    6.949216   6.450668   5.117746   2.690169   4.611749
    16  H    8.549589   8.361350   7.145932   4.650239   5.340495
    17  H    8.316424   8.533233   7.579693   5.350484   4.617165
    18  H    6.376104   6.903259   6.261238   4.634016   2.660404
    19  H    4.081594   4.863889   4.597674   3.963687   1.081224
    20  H    2.137464   3.384059   3.853892   4.669740   2.711490
    21  H    1.080582   2.154460   3.381879   5.359320   4.606727
    22  H    2.154141   1.079558   2.134010   4.635867   5.331682
    23  H    3.385788   2.156212   1.082923   2.665640   4.594669
    24  H    4.760988   4.092218   2.774590   1.103926   3.676923
    25  H    4.760988   4.092218   2.774590   1.103926   3.676923
                   11         12         13         14         15
    11  C    0.000000
    12  C    1.425524   0.000000
    13  C    2.524147   2.868527   0.000000
    14  C    2.868980   2.475033   1.390646   0.000000
    15  H    2.158790   3.431661   4.170363   4.908159   0.000000
    16  H    3.432351   3.934357   5.940840   6.200766   2.475051
    17  H    3.882279   3.427049   6.193191   5.887327   4.262573
    18  H    3.386174   2.126727   4.872984   4.090759   4.931307
    19  H    3.437814   2.162656   3.418395   2.172297   5.558784
    20  H    4.912852   4.112252   3.391503   2.166569   7.024906
    21  H    6.179857   5.856194   3.864757   3.403144   8.026789
    22  H    5.905132   6.173457   3.401301   3.895956   7.235566
    23  H    4.120421   4.881111   2.142140   3.392291   4.976142
    24  H    2.096672   3.244824   2.140886   3.250128   2.644663
    25  H    2.096672   3.244824   2.140886   3.250128   2.644663
                   16         17         18         19         20
    16  H    0.000000
    17  H    2.464247   0.000000
    18  H    4.299880   2.495737   0.000000
    19  H    5.962289   4.797649   2.458858   0.000000
    20  H    8.040606   7.214343   4.935103   2.476411   0.000000
    21  H    9.579572   9.218557   7.147297   4.747564   2.431655
    22  H    9.273518   9.568196   7.981191   5.929381   4.281425
    23  H    7.225542   7.995795   6.960860   5.528624   4.936554
    24  H    4.798064   5.782544   5.297367   4.734891   5.346016
    25  H    4.798064   5.782544   5.297367   4.734891   5.346016
                   21         22         23         24         25
    21  H    0.000000
    22  H    2.504143   0.000000
    23  H    4.295017   2.478595   0.000000
    24  H    5.822256   4.816716   2.653679   0.000000
    25  H    5.822256   4.816716   2.653679   1.719170   0.000000
 Stoichiometry    C14H11(1+)
 Framework group  CS[SG(C14H9),X(H2)]
 Deg. of freedom    46
 Full point group                 CS      NOp   2
 Largest Abelian subgroup         CS      NOp   2
 Largest concise Abelian subgroup CS      NOp   2
                         Standard orientation:                         
 ---------------------------------------------------------------------
 Center     Atomic      Atomic             Coordinates (Angstroms)
 Number     Number       Type             X           Y           Z
 ---------------------------------------------------------------------
      1          6           0        2.494047   -1.353755    0.000000
      2          6           0        3.710025   -0.665146    0.000000
      3          6           0        3.684803    0.719015    0.000000
      4          6           0        2.454210    1.410125    0.000000
      5          6           0       -2.472104    1.404915    0.000000
      6          6           0       -3.682915    0.708654    0.000000
      7          6           0       -3.692980   -0.678794    0.000000
      8          6           0       -2.491245   -1.367108    0.000000
      9          6           0        0.009627   -1.453350    0.000000
     10          6           0        0.000000    1.429193    0.000000
     11          6           0        1.258603   -0.680799    0.000000
     12          6           0        1.228144    0.744400    0.000000
     13          6           0       -1.265533   -0.673352    0.000000
     14          6           0       -1.246739    0.717167    0.000000
     15          1           0        2.513305   -2.437527    0.000000
     16          1           0        4.652559   -1.192750    0.000000
     17          1           0        4.614461    1.271202    0.000000
     18          1           0        2.438363    2.493211    0.000000
     19          1           0       -0.020435    2.510224    0.000000
     20          1           0       -2.496736    2.486780    0.000000
     21          1           0       -4.604096    1.273529    0.000000
     22          1           0       -4.620883   -1.230558    0.000000
     23          1           0       -2.462822   -2.449658    0.000000
     24          1           0        0.029315   -2.145722    0.859585
     25          1           0        0.029315   -2.145722   -0.859585
 ---------------------------------------------------------------------
 Rotational constants (GHZ):           2.1361985           0.4446228           0.3688234
 Standard basis: 6-311++G(d,p) (5D, 7F)
 There are   299 symmetry adapted cartesian basis functions of A'  symmetry.
 There are   100 symmetry adapted cartesian basis functions of A"  symmetry.
 There are   285 symmetry adapted basis functions of A'  symmetry.
 There are   100 symmetry adapted basis functions of A"  symmetry.
   385 basis functions,   603 primitive gaussians,   399 cartesian basis functions
    47 alpha electrons       47 beta electrons
       nuclear repulsion energy       781.2045154894 Hartrees.
 NAtoms=   25 NActive=   25 NUniq=   24 SFac= 1.09D+00 NAtFMM=   60 NAOKFM=F Big=F
 Integral buffers will be    131072 words long.
 Regular integral format.
 Two-electron integral symmetry is turned on.
 Nuclear repulsion after empirical dispersion term =      781.2035360325 Hartrees.
 One-electron integrals computed using PRISM.
 NBasis=   385 RedAO= T EigKep=  1.11D-06  NBF=   285   100
 NBsUse=   379 1.00D-06 EigRej=  8.37D-07 NBFU=   279   100
 ExpMin= 3.60D-02 ExpMax= 4.56D+03 ExpMxC= 6.82D+02 IAcc=3 IRadAn=         5 AccDes= 0.00D+00
 Harris functional with IExCor= 1009 and IRadAn=       5 diagonalized for initial guess.
 HarFok:  IExCor= 1009 AccDes= 0.00D+00 IRadAn=         5 IDoV= 1 UseB2=F ITyADJ=14
 ICtDFT=  3500011 ScaDFX=  1.000000  1.000000  1.000000  1.000000
 FoFCou: FMM=F IPFlag=           0 FMFlag=      100000 FMFlg1=           0
         NFxFlg=           0 DoJE=T BraDBF=F KetDBF=T FulRan=T
         wScrn=  0.000000 ICntrl=       500 IOpCl=  0 I1Cent=   200000004 NGrid=           0
         NMat0=    1 NMatS0=      1 NMatT0=    0 NMatD0=    1 NMtDS0=    0 NMtDT0=    0
 Petite list used in FoFCou.
 Initial guess orbital symmetries:
       Occupied  (A') (A') (A') (A') (A') (A') (A') (A') (A') (A')
                 (A') (A') (A') (A') (A') (A') (A') (A') (A') (A')
                 (A') (A') (A') (A') (A') (A') (A') (A') (A') (A')
                 (A') (A') (A") (A') (A') (A') (A') (A') (A") (A')
                 (A") (A') (A') (A") (A") (A") (A")
       Virtual   (A") (A") (A") (A") (A") (A') (A') (A') (A') (A")
                 (A") (A') (A') (A') (A") (A') (A') (A') (A') (A")
                 (A') (A") (A') (A') (A') (A") (A') (A") (A') (A')
                 (A') (A') (A') (A") (A') (A') (A") (A') (A') (A")
                 (A') (A') (A') (A") (A') (A') (A') (A') (A') (A")
                 (A') (A") (A') (A") (A') (A') (A') (A") (A") (A')
                 (A') (A') (A') (A') (A') (A') (A") (A') (A') (A")
                 (A') (A') (A') (A') (A') (A') (A') (A') (A') (A')
                 (A') (A') (A') (A') (A') (A') (A') (A') (A') (A')
                 (A') (A') (A') (A') (A') (A') (A') (A") (A') (A")
                 (A') (A') (A") (A") (A') (A") (A') (A") (A') (A")
                 (A") (A') (A') (A') (A") (A') (A') (A") (A") (A')
                 (A") (A") (A') (A') (A') (A") (A') (A') (A') (A")
                 (A') (A') (A') (A') (A') (A') (A") (A') (A') (A')
                 (A') (A') (A') (A') (A') (A') (A') (A') (A') (A")
                 (A") (A') (A") (A") (A') (A') (A') (A") (A") (A')
                 (A") (A') (A") (A") (A") (A') (A') (A') (A') (A')
                 (A') (A") (A') (A") (A') (A') (A') (A') (A') (A")
                 (A') (A') (A') (A') (A') (A") (A") (A') (A") (A")
                 (A') (A") (A') (A") (A') (A') (A') (A") (A') (A')
                 (A") (A") (A") (A') (A') (A") (A') (A") (A') (A')
                 (A") (A") (A') (A") (A') (A") (A') (A') (A') (A")
                 (A') (A') (A') (A') (A") (A') (A') (A') (A") (A")
                 (A') (A') (A') (A") (A') (A') (A") (A') (A") (A')
                 (A") (A') (A') (A') (A') (A") (A') (A') (A') (A")
                 (A') (A') (A') (A") (A") (A') (A') (A") (A') (A')
                 (A') (A") (A') (A") (A') (A') (A') (A") (A') (A")
                 (A') (A') (A') (A') (A") (A') (A") (A') (A") (A')
                 (A") (A') (A") (A") (A") (A') (A') (A') (A') (A')
                 (A') (A') (A') (A') (A') (A') (A') (A') (A') (A')
                 (A') (A') (A') (A') (A") (A') (A') (A') (A') (A')
                 (A') (A') (A') (A') (A') (A') (A') (A') (A') (A')
                 (A') (A') (A') (A') (A') (A') (A') (A') (A') (A')
                 (A') (A')
 The electronic state of the initial guess is 1-A'.
 Requested convergence on RMS density matrix=1.00D-08 within 128 cycles.
 Requested convergence on MAX density matrix=1.00D-06.
 Requested convergence on             energy=1.00D-06.
 No special actions if energy rises.
 SCF Done:  E(RM062X) =  -539.758778389     A.U. after   15 cycles
            NFock= 15  Conv=0.53D-08     -V/T= 2.0042
 DoSCS=F DFT=T ScalE2(SS,OS)=  1.000000  1.000000
 ExpMin= 3.60D-02 ExpMax= 4.56D+03 ExpMxC= 6.82D+02 IAcc=3 IRadAn=         5 AccDes= 0.00D+00
 HarFok:  IExCor=  205 AccDes= 0.00D+00 IRadAn=         5 IDoV=-2 UseB2=F ITyADJ=14
 ICtDFT= 12500011 ScaDFX=  1.000000  1.000000  1.000000  1.000000
 Range of M.O.s used for correlation:    15   379
 NBasis=   385 NAE=    47 NBE=    47 NFC=    14 NFV=     0
 NROrb=    365 NOA=    33 NOB=    33 NVA=   332 NVB=   332

 **** Warning!!: The largest alpha MO coefficient is  0.15300203D+03

 Orbital symmetries:
       Occupied  (A') (A') (A') (A') (A') (A') (A') (A') (A') (A')
                 (A') (A') (A') (A') (A') (A') (A') (A') (A') (A')
                 (A') (A') (A') (A') (A') (A') (A') (A') (A') (A')
                 (A') (A') (A") (A') (A') (A') (A') (A") (A") (A')
                 (A') (A') (A') (A") (A") (A") (A")
       Virtual   (A") (A") (A") (A") (A') (A') (A') (A') (A") (A')
                 (A') (A") (A') (A') (A") (A') (A") (A') (A') (A')
                 (A") (A") (A') (A') (A') (A") (A') (A") (A') (A')
                 (A") (A') (A") (A') (A') (A') (A') (A') (A") (A')
                 (A") (A') (A') (A") (A") (A') (A") (A') (A") (A')
                 (A') (A') (A') (A') (A') (A") (A') (A') (A') (A')
                 (A') (A") (A') (A') (A') (A") (A') (A') (A') (A')
                 (A') (A') (A') (A') (A') (A') (A') (A') (A') (A')
                 (A') (A') (A') (A') (A') (A') (A') (A') (A') (A')
                 (A') (A') (A') (A') (A") (A') (A") (A") (A') (A")
                 (A') (A') (A') (A') (A") (A") (A') (A") (A") (A')
                 (A') (A') (A") (A') (A') (A") (A') (A") (A') (A")
                 (A") (A') (A") (A') (A') (A') (A") (A') (A') (A')
                 (A') (A') (A') (A') (A') (A') (A') (A') (A') (A')
                 (A') (A') (A') (A") (A') (A') (A') (A') (A') (A')
                 (A') (A') (A") (A') (A") (A') (A") (A") (A') (A")
                 (A") (A') (A') (A") (A") (A") (A') (A") (A') (A')
                 (A') (A') (A') (A") (A") (A') (A') (A') (A') (A")
                 (A') (A') (A') (A") (A') (A") (A') (A') (A") (A")
                 (A") (A') (A') (A") (A') (A") (A') (A') (A') (A')
                 (A") (A") (A") (A') (A') (A") (A') (A") (A') (A')
                 (A') (A") (A') (A") (A") (A') (A") (A') (A') (A")
                 (A') (A') (A') (A') (A") (A') (A') (A') (A") (A")
                 (A') (A') (A') (A") (A') (A') (A') (A") (A") (A')
                 (A") (A') (A') (A") (A') (A') (A') (A') (A') (A')
                 (A") (A') (A') (A') (A') (A") (A") (A") (A') (A')
                 (A') (A') (A') (A') (A') (A') (A') (A") (A') (A')
                 (A') (A") (A') (A") (A") (A") (A') (A") (A') (A")
                 (A') (A") (A") (A') (A") (A") (A') (A') (A') (A')
                 (A') (A') (A') (A') (A') (A') (A') (A') (A') (A')
                 (A') (A') (A') (A") (A') (A') (A') (A') (A') (A')
                 (A') (A') (A') (A') (A') (A') (A') (A') (A') (A')
                 (A') (A') (A') (A') (A') (A') (A') (A') (A') (A')
                 (A') (A')
     4 initial guesses have been made.
 Convergence on wavefunction:    0.001000000000000
 Iteration     1 Dimension     4 NMult     0 NNew      4
 CISAX will form     4 AO SS matrices at one time.
 Iteration     2 Dimension     6 NMult     4 NNew      2
 Iteration     3 Dimension     8 NMult     6 NNew      2
 Iteration     4 Dimension    10 NMult     8 NNew      2
 Iteration     5 Dimension    12 NMult    10 NNew      2
 Iteration     6 Dimension    14 NMult    12 NNew      2
 ***********************************************************************
 Excited states from <AA,BB:AA,BB> singles matrix:
 ***********************************************************************
 
 Ground to excited state transition densities written to RWF  633
 Ground to excited state transition electric dipole moments (Au):
       state          X           Y           Z        Dip. S.      Osc.
         1         0.0863     -0.6446     -0.0000      0.4230      0.0292
 Ground to excited state transition velocity dipole moments (Au):
       state          X           Y           Z        Dip. S.      Osc.
         1        -0.0087      0.0746     -0.0000      0.0056      0.0362
 Ground to excited state transition magnetic dipole moments (Au):
       state          X           Y           Z
         1         0.0000     -0.0000      0.1426
 Ground to excited state transition velocity quadrupole moments (Au):
       state          XX          YY          ZZ          XY          XZ          YZ
         1         0.2957      0.0353     -0.0099      0.0330     -0.0000      0.0000
 <0|del|b> * <b|rxdel|0> + <0|del|b> * <b|delr+rdel|0>
 Rotatory Strengths (R) in cgs (10**-40 erg-esu-cm/Gauss)
       state          XX          YY          ZZ    R(velocity)    E-M Angle
         1        -0.0000     -0.0000     -0.0000     -0.0000       90.00
 1/2[<0|r|b>*<b|rxdel|0> + (<0|rxdel|b>*<b|r|0>)*]
 Rotatory Strengths (R) in cgs (10**-40 erg-esu-cm/Gauss)
       state          XX          YY          ZZ     R(length)
         1        -0.0000     -0.0000      0.0000      0.0000
  1/2[<0|del|b>*<b|r|0> + (<0|r|b>*<b|del|0>)*] (Au)
       state          X           Y           Z        Dip. S.   Osc.(frdel)
         1        -0.0007     -0.0481      0.0000      0.0488      0.0325

 Excitation energies and oscillator strengths:
 
 Excited State   1:      Singlet-A'     2.8198 eV  439.69 nm  f=0.0292  <S**2>=0.000
      47 -> 48         0.70373
 This state for optimization and/or second-order correction.
 Total Energy, E(TD-HF/TD-DFT) =  -539.655152881    
 Copying the excited state density for this state as the 1-particle RhoCI density.
 SavETr:  write IOETrn=   770 NScale= 10 NData=  16 NLR=1 NState=    1 LETran=      28.

 **********************************************************************

            Population analysis using the SCF Density.

 **********************************************************************

 Orbital symmetries:
       Occupied  (A') (A') (A') (A') (A') (A') (A') (A') (A') (A')
                 (A') (A') (A') (A') (A') (A') (A') (A') (A') (A')
                 (A') (A') (A') (A') (A') (A') (A') (A') (A') (A')
                 (A') (A') (A") (A') (A') (A') (A') (A") (A") (A')
                 (A') (A') (A') (A") (A") (A") (A")
       Virtual   (A") (A") (A") (A") (A') (A') (A') (A') (A") (A')
                 (A') (A") (A') (A') (A") (A') (A") (A') (A') (A')
                 (A") (A") (A') (A') (A') (A") (A') (A") (A') (A')
                 (A") (A') (A") (A') (A') (A') (A') (A') (A") (A')
                 (A") (A') (A') (A") (A") (A') (A") (A') (A") (A')
                 (A') (A') (A') (A') (A') (A") (A') (A') (A') (A')
                 (A') (A") (A') (A') (A') (A") (A') (A') (A') (A')
                 (A') (A') (A') (A') (A') (A') (A') (A') (A') (A')
                 (A') (A') (A') (A') (A') (A') (A') (A') (A') (A')
                 (A') (A') (A') (A') (A") (A') (A") (A") (A') (A")
                 (A') (A') (A') (A') (A") (A") (A') (A") (A") (A')
                 (A') (A') (A") (A') (A') (A") (A') (A") (A') (A")
                 (A") (A') (A") (A') (A') (A') (A") (A') (A') (A')
                 (A') (A') (A') (A') (A') (A') (A') (A') (A') (A')
                 (A') (A') (A') (A") (A') (A') (A') (A') (A') (A')
                 (A') (A') (A") (A') (A") (A') (A") (A") (A') (A")
                 (A") (A') (A') (A") (A") (A") (A') (A") (A') (A')
                 (A') (A') (A') (A") (A") (A') (A') (A') (A') (A")
                 (A') (A') (A') (A") (A') (A") (A') (A') (A") (A")
                 (A") (A') (A') (A") (A') (A") (A') (A') (A') (A')
                 (A") (A") (A") (A') (A') (A") (A') (A") (A') (A')
                 (A') (A") (A') (A") (A") (A') (A") (A') (A') (A")
                 (A') (A') (A') (A') (A") (A') (A') (A') (A") (A")
                 (A') (A') (A') (A") (A') (A') (A') (A") (A") (A')
                 (A") (A') (A') (A") (A') (A') (A') (A') (A') (A')
                 (A") (A') (A') (A') (A') (A") (A") (A") (A') (A')
                 (A') (A') (A') (A') (A') (A') (A') (A") (A') (A')
                 (A') (A") (A') (A") (A") (A") (A') (A") (A') (A")
                 (A') (A") (A") (A') (A") (A") (A') (A') (A') (A')
                 (A') (A') (A') (A') (A') (A') (A') (A') (A') (A')
                 (A') (A') (A') (A") (A') (A') (A') (A') (A') (A')
                 (A') (A') (A') (A') (A') (A') (A') (A') (A') (A')
                 (A') (A') (A') (A') (A') (A') (A') (A') (A') (A')
                 (A') (A')
 The electronic state is 1-A'.
 Alpha  occ. eigenvalues --  -10.77656 -10.73464 -10.73011 -10.72516 -10.72346
 Alpha  occ. eigenvalues --  -10.71662 -10.71278 -10.71083 -10.70981 -10.70731
 Alpha  occ. eigenvalues --  -10.70142 -10.69847 -10.69802 -10.69414  -1.16449
 Alpha  occ. eigenvalues --   -1.12472  -1.06954  -1.05755  -1.01305  -1.00192
 Alpha  occ. eigenvalues --   -0.95783  -0.91070  -0.86412  -0.85894  -0.83805
 Alpha  occ. eigenvalues --   -0.78403  -0.76028  -0.74414  -0.69677  -0.69169
 Alpha  occ. eigenvalues --   -0.68508  -0.68157  -0.68108  -0.64771  -0.64242
 Alpha  occ. eigenvalues --   -0.63057  -0.61852  -0.60013  -0.59681  -0.59127
 Alpha  occ. eigenvalues --   -0.56877  -0.55212  -0.54787  -0.52447  -0.46620
 Alpha  occ. eigenvalues --   -0.46065  -0.44497
 Alpha virt. eigenvalues --   -0.26093  -0.14689  -0.14075  -0.12764  -0.11180
 Alpha virt. eigenvalues --   -0.10088  -0.09232  -0.07985  -0.07964  -0.07475
 Alpha virt. eigenvalues --   -0.07204  -0.07144  -0.05643  -0.05582  -0.05335
 Alpha virt. eigenvalues --   -0.03829  -0.03647  -0.03284  -0.03132  -0.02164
 Alpha virt. eigenvalues --   -0.01368  -0.00930   0.00189   0.00585   0.00654
 Alpha virt. eigenvalues --    0.01053   0.01513   0.01926   0.02207   0.02279
 Alpha virt. eigenvalues --    0.02453   0.02672   0.02760   0.03330   0.03354
 Alpha virt. eigenvalues --    0.04238   0.04518   0.04700   0.05032   0.05364
 Alpha virt. eigenvalues --    0.06035   0.06292   0.06594   0.07045   0.07254
 Alpha virt. eigenvalues --    0.07890   0.08147   0.08354   0.08558   0.08922
 Alpha virt. eigenvalues --    0.09462   0.09632   0.09984   0.10823   0.11029
 Alpha virt. eigenvalues --    0.11116   0.12145   0.12250   0.12920   0.12945
 Alpha virt. eigenvalues --    0.13392   0.13524   0.14024   0.14448   0.16138
 Alpha virt. eigenvalues --    0.16352   0.16362   0.17339   0.17643   0.17812
 Alpha virt. eigenvalues --    0.18118   0.18988   0.19253   0.19679   0.19754
 Alpha virt. eigenvalues --    0.21553   0.21580   0.22736   0.23108   0.23543
 Alpha virt. eigenvalues --    0.23839   0.24578   0.25366   0.26895   0.27637
 Alpha virt. eigenvalues --    0.28805   0.29357   0.29872   0.31380   0.35604
 Alpha virt. eigenvalues --    0.36599   0.38174   0.39259   0.41180   0.41394
 Alpha virt. eigenvalues --    0.41978   0.42173   0.42996   0.43669   0.44294
 Alpha virt. eigenvalues --    0.44663   0.45250   0.45985   0.46387   0.47937
 Alpha virt. eigenvalues --    0.48527   0.48858   0.49026   0.50424   0.51117
 Alpha virt. eigenvalues --    0.51560   0.51712   0.52121   0.52932   0.53982
 Alpha virt. eigenvalues --    0.54090   0.54656   0.55677   0.55779   0.57463
 Alpha virt. eigenvalues --    0.58240   0.58827   0.61442   0.62068   0.62474
 Alpha virt. eigenvalues --    0.63229   0.63506   0.64910   0.65222   0.67223
 Alpha virt. eigenvalues --    0.70394   0.70632   0.71012   0.72376   0.72834
 Alpha virt. eigenvalues --    0.75730   0.76038   0.76302   0.76930   0.77099
 Alpha virt. eigenvalues --    0.77690   0.78013   0.78232   0.79886   0.80387
 Alpha virt. eigenvalues --    0.81239   0.81687   0.82158   0.83041   0.85159
 Alpha virt. eigenvalues --    0.87162   0.88173   0.88596   0.89145   0.90358
 Alpha virt. eigenvalues --    0.91096   0.91266   0.93234   0.94629   0.96389
 Alpha virt. eigenvalues --    0.96724   1.00419   1.01281   1.01595   1.02758
 Alpha virt. eigenvalues --    1.03232   1.03795   1.04774   1.05440   1.08796
 Alpha virt. eigenvalues --    1.19509   1.23225   1.24027   1.25054   1.28194
 Alpha virt. eigenvalues --    1.29538   1.31907   1.34321   1.35780   1.35999
 Alpha virt. eigenvalues --    1.39144   1.40353   1.40954   1.42901   1.43450
 Alpha virt. eigenvalues --    1.43628   1.45167   1.45322   1.46261   1.46746
 Alpha virt. eigenvalues --    1.47658   1.48053   1.51729   1.53620   1.55314
 Alpha virt. eigenvalues --    1.55777   1.56330   1.56884   1.57946   1.61455
 Alpha virt. eigenvalues --    1.63218   1.63473   1.63785   1.66087   1.68256
 Alpha virt. eigenvalues --    1.68319   1.68761   1.69687   1.74384   1.76047
 Alpha virt. eigenvalues --    1.77114   1.78107   1.79996   1.79997   1.80897
 Alpha virt. eigenvalues --    1.83149   1.83220   1.83582   1.83700   1.84191
 Alpha virt. eigenvalues --    1.84512   1.85840   1.86105   1.88199   1.91360
 Alpha virt. eigenvalues --    1.91869   1.94236   1.95405   1.97563   1.98291
 Alpha virt. eigenvalues --    1.99704   2.02466   2.04461   2.07227   2.11799
 Alpha virt. eigenvalues --    2.12078   2.14132   2.15210   2.19088   2.21226
 Alpha virt. eigenvalues --    2.22849   2.28579   2.30141   2.34619   2.34894
 Alpha virt. eigenvalues --    2.36169   2.38594   2.39633   2.42209   2.44668
 Alpha virt. eigenvalues --    2.46151   2.46548   2.49187   2.53067   2.53913
 Alpha virt. eigenvalues --    2.54267   2.56727   2.57893   2.58301   2.59615
 Alpha virt. eigenvalues --    2.59802   2.61423   2.61909   2.63396   2.63857
 Alpha virt. eigenvalues --    2.64870   2.65102   2.65110   2.65546   2.67722
 Alpha virt. eigenvalues --    2.69131   2.70952   2.71352   2.73349   2.74813
 Alpha virt. eigenvalues --    2.76304   2.78829   2.79731   2.82647   2.83066
 Alpha virt. eigenvalues --    2.85025   2.86287   2.92117   2.96981   2.99194
 Alpha virt. eigenvalues --    3.00359   3.04945   3.10974   3.11396   3.13281
 Alpha virt. eigenvalues --    3.20682   3.23762   3.26565   3.28369   3.30570
 Alpha virt. eigenvalues --    3.33038   3.33845   3.43223   3.46064   3.46412
 Alpha virt. eigenvalues --    3.48083   3.50748   3.56523   3.65890   3.66018
 Alpha virt. eigenvalues --    3.68404   3.94125   3.94526   3.95187   3.96167
 Alpha virt. eigenvalues --    4.03939   4.06598   4.07684   4.12490   4.35455
 Alpha virt. eigenvalues --    4.61256   4.69233   4.72014  23.45287  23.60340
 Alpha virt. eigenvalues --   23.81526  23.84903  23.86691  23.89723  23.91501
 Alpha virt. eigenvalues --   23.92522  23.97776  23.99781  24.00772  24.01085
 Alpha virt. eigenvalues --   24.09560  24.11755
          Condensed to atoms (all electrons):
               1          2          3          4          5          6
     1  C    8.749491   0.285842  -0.555162   2.130359  -0.003741  -0.097056
     2  C    0.285842   7.109353   0.387532  -1.108768  -0.016110  -0.013385
     3  C   -0.555162   0.387532   6.607343   0.742503  -0.117136   0.016951
     4  C    2.130359  -1.108768   0.742503  11.692228  -0.403003  -0.134579
     5  C   -0.003741  -0.016110  -0.117136  -0.403003  10.562645   0.812645
     6  C   -0.097056  -0.013385   0.016951  -0.134579   0.812645   6.569585
     7  C   -0.025426   0.000980  -0.015455  -0.012734  -1.099425   0.312121
     8  C    0.403371  -0.008611  -0.095765  -0.066903   1.932711  -0.522249
     9  C   -1.224368  -0.830943   0.289733  -0.206191  -0.196482   0.300305
    10  C   -1.324888   0.265161  -0.347832  -2.687814  -2.491019  -0.349930
    11  C    0.157188  -0.744968   0.892332  -0.904279  -1.231061  -0.140252
    12  C   -2.044599   1.221860  -1.317904  -1.510436  -0.493338  -0.238417
    13  C    0.116695  -0.208112  -0.206619  -1.717152   0.331994   1.098844
    14  C   -1.071751  -0.226467  -0.155916  -0.206450  -1.909812  -1.494318
    15  H    0.369574  -0.109028  -0.003228   0.031426   0.005235   0.001000
    16  H   -0.020497   0.378101  -0.016913   0.011551  -0.001422  -0.000309
    17  H   -0.025288  -0.016201   0.372522  -0.066310   0.000371   0.000382
    18  H    0.051996   0.002106  -0.084698   0.461477   0.006276  -0.005137
    19  H   -0.049617  -0.007289   0.049716  -0.081911  -0.057663   0.052492
    20  H    0.007220   0.001927  -0.005048   0.005483   0.456188  -0.084331
    21  H   -0.001403  -0.000392   0.000418   0.000245  -0.071022   0.377733
    22  H    0.000684   0.000362  -0.000347  -0.001638   0.015178  -0.016561
    23  H    0.006306  -0.002643   0.001187   0.006007   0.024675   0.000566
    24  H    0.029428   0.014476  -0.002008  -0.014732  -0.009815  -0.001058
    25  H    0.029428   0.014476  -0.002008  -0.014732  -0.009815  -0.001058
               7          8          9         10         11         12
     1  C   -0.025426   0.403371  -1.224368  -1.324888   0.157188  -2.044599
     2  C    0.000980  -0.008611  -0.830943   0.265161  -0.744968   1.221860
     3  C   -0.015455  -0.095765   0.289733  -0.347832   0.892332  -1.317904
     4  C   -0.012734  -0.066903  -0.206191  -2.687814  -0.904279  -1.510436
     5  C   -1.099425   1.932711  -0.196482  -2.491019  -1.231061  -0.493338
     6  C    0.312121  -0.522249   0.300305  -0.349930  -0.140252  -0.238417
     7  C    7.198683   0.292406  -0.795114   0.238969  -0.294030  -0.154521
     8  C    0.292406   8.499292  -1.059659  -1.269113   0.317392  -1.088713
     9  C   -0.795114  -1.059659   9.615801   0.261156   1.455200  -1.915984
    10  C    0.238969  -1.269113   0.261156   9.128699  -0.322873   2.351608
    11  C   -0.294030   0.317392   1.455200  -0.322873  14.641447  -3.388979
    12  C   -0.154521  -1.088713  -1.915984   2.351608  -3.388979  15.693893
    13  C   -1.041172   0.414752   1.730474  -0.526386   1.041309  -4.647940
    14  C    1.534246  -2.240952  -2.001600   2.527025  -4.895152   3.118105
    15  H   -0.002591   0.005152   0.094970  -0.011156  -0.033617  -0.024753
    16  H    0.000366   0.000739   0.004204  -0.008576   0.028513  -0.033055
    17  H   -0.000408  -0.001231  -0.006323   0.020363  -0.026614   0.091881
    18  H    0.002215   0.007138  -0.025461   0.014265  -0.009200  -0.058106
    19  H   -0.007976  -0.044251   0.075718   0.421822   0.076592  -0.068017
    20  H    0.003373   0.049403  -0.023791   0.009113  -0.011436  -0.015411
    21  H   -0.016182  -0.025656  -0.005216   0.020319  -0.006270   0.005092
    22  H    0.380393  -0.018889   0.002290  -0.009805   0.002739  -0.009121
    23  H   -0.104621   0.366887   0.088781  -0.008157   0.001932   0.005256
    24  H    0.014459   0.035770   0.356484   0.005350   0.015118  -0.061460
    25  H    0.014459   0.035770   0.356484   0.005350   0.015118  -0.061460
              13         14         15         16         17         18
     1  C    0.116695  -1.071751   0.369574  -0.020497  -0.025288   0.051996
     2  C   -0.208112  -0.226467  -0.109028   0.378101  -0.016201   0.002106
     3  C   -0.206619  -0.155916  -0.003228  -0.016913   0.372522  -0.084698
     4  C   -1.717152  -0.206450   0.031426   0.011551  -0.066310   0.461477
     5  C    0.331994  -1.909812   0.005235  -0.001422   0.000371   0.006276
     6  C    1.098844  -1.494318   0.001000  -0.000309   0.000382  -0.005137
     7  C   -1.041172   1.534246  -0.002591   0.000366  -0.000408   0.002215
     8  C    0.414752  -2.240952   0.005152   0.000739  -0.001231   0.007138
     9  C    1.730474  -2.001600   0.094970   0.004204  -0.006323  -0.025461
    10  C   -0.526386   2.527025  -0.011156  -0.008576   0.020363   0.014265
    11  C    1.041309  -4.895152  -0.033617   0.028513  -0.026614  -0.009200
    12  C   -4.647940   3.118105  -0.024753  -0.033055   0.091881  -0.058106
    13  C   14.263665  -4.066682   0.001710   0.003326  -0.006359  -0.011561
    14  C   -4.066682  16.549860   0.007568  -0.008963   0.005499  -0.013772
    15  H    0.001710   0.007568   0.436615  -0.008633   0.001320   0.000241
    16  H    0.003326  -0.008963  -0.008633   0.418459  -0.006284   0.001818
    17  H   -0.006359   0.005499   0.001320  -0.006284   0.420151  -0.009585
    18  H   -0.011561  -0.013772   0.000241   0.001818  -0.009585   0.454529
    19  H    0.077771  -0.061874   0.000270  -0.000505   0.001325  -0.006533
    20  H   -0.001745  -0.054013  -0.000103   0.000013  -0.000133   0.001252
    21  H   -0.027422   0.093654   0.000014  -0.000007   0.000010  -0.000154
    22  H    0.024030  -0.031672  -0.000127   0.000008  -0.000007   0.000018
    23  H   -0.029640  -0.025011   0.000571  -0.000127   0.000014  -0.000122
    24  H    0.011974  -0.058488  -0.000794   0.000634  -0.000146   0.000203
    25  H    0.011974  -0.058488  -0.000794   0.000634  -0.000146   0.000203
              19         20         21         22         23         24
     1  C   -0.049617   0.007220  -0.001403   0.000684   0.006306   0.029428
     2  C   -0.007289   0.001927  -0.000392   0.000362  -0.002643   0.014476
     3  C    0.049716  -0.005048   0.000418  -0.000347   0.001187  -0.002008
     4  C   -0.081911   0.005483   0.000245  -0.001638   0.006007  -0.014732
     5  C   -0.057663   0.456188  -0.071022   0.015178   0.024675  -0.009815
     6  C    0.052492  -0.084331   0.377733  -0.016561   0.000566  -0.001058
     7  C   -0.007976   0.003373  -0.016182   0.380393  -0.104621   0.014459
     8  C   -0.044251   0.049403  -0.025656  -0.018889   0.366887   0.035770
     9  C    0.075718  -0.023791  -0.005216   0.002290   0.088781   0.356484
    10  C    0.421822   0.009113   0.020319  -0.009805  -0.008157   0.005350
    11  C    0.076592  -0.011436  -0.006270   0.002739   0.001932   0.015118
    12  C   -0.068017  -0.015411   0.005092  -0.009121   0.005256  -0.061460
    13  C    0.077771  -0.001745  -0.027422   0.024030  -0.029640   0.011974
    14  C   -0.061874  -0.054013   0.093654  -0.031672  -0.025011  -0.058488
    15  H    0.000270  -0.000103   0.000014  -0.000127   0.000571  -0.000794
    16  H   -0.000505   0.000013  -0.000007   0.000008  -0.000127   0.000634
    17  H    0.001325  -0.000133   0.000010  -0.000007   0.000014  -0.000146
    18  H   -0.006533   0.001252  -0.000154   0.000018  -0.000122   0.000203
    19  H    0.442819  -0.005847   0.001518  -0.000572   0.000338   0.000598
    20  H   -0.005847   0.453119  -0.011051   0.002014   0.000106   0.000160
    21  H    0.001518  -0.011051   0.424885  -0.006951   0.001596  -0.000136
    22  H   -0.000572   0.002014  -0.006951   0.420447  -0.009397   0.000627
    23  H    0.000338   0.000106   0.001596  -0.009397   0.441783  -0.001022
    24  H    0.000598   0.000160  -0.000136   0.000627  -0.001022   0.494004
    25  H    0.000598   0.000160  -0.000136   0.000627  -0.001022  -0.079687
              25
     1  C    0.029428
     2  C    0.014476
     3  C   -0.002008
     4  C   -0.014732
     5  C   -0.009815
     6  C   -0.001058
     7  C    0.014459
     8  C    0.035770
     9  C    0.356484
    10  C    0.005350
    11  C    0.015118
    12  C   -0.061460
    13  C    0.011974
    14  C   -0.058488
    15  H   -0.000794
    16  H    0.000634
    17  H   -0.000146
    18  H    0.000203
    19  H    0.000598
    20  H    0.000160
    21  H   -0.000136
    22  H    0.000627
    23  H   -0.001022
    24  H   -0.079687
    25  H    0.494004
 Mulliken charges:
               1
     1  C    0.106211
     2  C   -0.389256
     3  C   -0.434199
     4  C    0.056355
     5  C   -0.037057
     6  C   -0.443985
     7  C   -0.423016
     8  C    0.081207
     9  C   -0.340469
    10  C    0.088345
    11  C   -0.636151
    12  C    0.644519
    13  C   -0.637728
    14  C    0.745426
    15  H    0.239159
    16  H    0.256925
    17  H    0.251197
    18  H    0.220592
    19  H    0.190476
    20  H    0.223379
    21  H    0.246516
    22  H    0.255670
    23  H    0.235760
    24  H    0.250062
    25  H    0.250062
 Sum of Mulliken charges =   1.00000
 Mulliken charges with hydrogens summed into heavy atoms:
               1
     1  C    0.345370
     2  C   -0.132331
     3  C   -0.183002
     4  C    0.276947
     5  C    0.186322
     6  C   -0.197469
     7  C   -0.167347
     8  C    0.316967
     9  C    0.159655
    10  C    0.278821
    11  C   -0.636151
    12  C    0.644519
    13  C   -0.637728
    14  C    0.745426
 Electronic spatial extent (au):  <R**2>=           2855.9506
 Charge=              1.0000 electrons
 Dipole moment (field-independent basis, Debye):
    X=              0.2987    Y=              0.1886    Z=             -0.0000  Tot=              0.3532
 Quadrupole moment (field-independent basis, Debye-Ang):
   XX=            -31.1150   YY=            -56.2691   ZZ=            -84.1398
   XY=             -0.3087   XZ=              0.0000   YZ=              0.0000
 Traceless Quadrupole moment (field-independent basis, Debye-Ang):
   XX=             26.0597   YY=              0.9055   ZZ=            -26.9652
   XY=             -0.3087   XZ=              0.0000   YZ=              0.0000
 Octapole moment (field-independent basis, Debye-Ang**2):
  XXX=              6.0307  YYY=              5.2120  ZZZ=             -0.0000  XYY=             -0.1359
  XXY=             -5.1521  XXZ=             -0.0000  XZZ=              0.1657  YZZ=             -3.0858
  YYZ=             -0.0000  XYZ=             -0.0000
 Hexadecapole moment (field-independent basis, Debye-Ang**3):
 XXXX=          -2122.3750 YYYY=           -609.3639 ZZZZ=            -99.3231 XXXY=             -6.4504
 XXXZ=              0.0000 YYYX=             -2.7177 YYYZ=              0.0000 ZZZX=              0.0000
 ZZZY=              0.0000 XXYY=           -507.7790 XXZZ=           -590.7627 YYZZ=           -145.7104
 XXYZ=             -0.0000 YYXZ=             -0.0000 ZZXY=             -0.4728
 N-N= 7.812035360325D+02 E-N=-2.798749902006D+03  KE= 5.375094911964D+02
 Symmetry A'   KE= 5.228608878622D+02
 Symmetry A"   KE= 1.464860333425D+01
 Unable to Open any file for archive entry.
 1\1\GINC-GADI-CPU-CLX-2072\SP\RM062X TD-FC\6-311++G(d,p)\C14H11(1+)\TS
 1578\28-Jul-2022\0\\#n M062X/6-311++G(d,p) TD(NStates=1) EmpiricalDisp
 ersion=GD3 SP\\SP_-2\\1,1\C,0,0.,2.491055,1.359831\C,0,0.,3.708708,0.6
 74189\C,0,0.,3.686861,-0.71003\C,0,0.,2.457956,-1.404138\C,0,0.,-2.468
 356,-1.410938\C,0,0.,-3.680861,-0.71763\C,0,0.,-3.694308,0.669789\C,0,
 0.,-2.494255,1.361031\C,0,0.,0.0064,1.453369\C,0,0.,0.0038,-1.429189\C
 ,0,0.,1.257255,0.683865\C,0,0.,1.230271,-0.741404\C,0,0.,-1.266855,0.6
 70265\C,0,0.,-1.244671,-0.720204\H,0,0.,2.507671,2.443647\H,0,0.,4.649
 953,1.204089\H,0,0.,4.617862,-1.259949\H,0,0.,2.44475,-2.487259\H,0,0.
 ,-0.014,-2.510266\H,0,0.,-2.49035,-2.492859\H,0,0.,-4.600662,-1.284749
 \H,0,0.,-4.623553,1.219289\H,0,0.,-2.468471,2.443647\H,0,-0.859585,0.0
 244,2.145787\H,0,0.859585,0.0244,2.145787\\Version=ES64L-G16RevC.01\St
 ate=1-A'\HF=-539.7587784\RMSD=5.286e-09\PG=CS [SG(C14H9),X(H2)]\\@
 The archive entry for this job was punched.


 THERE IS NOTHING NOBLE IN BEING SUPERIOR TO SOME OTHER MAN.
 TRUE NOBILITY IS BEING SUPERIOR TO YOUR FORMER SELF.

                                                   -- HINDU PROVERB
 Job cpu time:       0 days  0 hours 51 minutes 33.7 seconds.
 Elapsed time:       0 days  0 hours  1 minutes  4.6 seconds.
 File lengths (MBytes):  RWF=    460 Int=      0 D2E=      0 Chk=     15 Scr=      1
 Normal termination of Gaussian 16 at Thu Jul 28 13:57:07 2022.
