 Entering Gaussian System, Link 0=g16
 Initial command:
 /apps/gaussian/g16c01/g16/l1.exe "/jobfs/53005151.gadi-pbs/Gau-4187791.inp" -scrdir="/jobfs/53005151.gadi-pbs/"
 Entering Link 1 = /apps/gaussian/g16c01/g16/l1.exe PID=   4187792.
  
 Copyright (c) 1988-2019, Gaussian, Inc.  All Rights Reserved.
  
 This is part of the Gaussian(R) 16 program.  It is based on
 the Gaussian(R) 09 system (copyright 2009, Gaussian, Inc.),
 the Gaussian(R) 03 system (copyright 2003, Gaussian, Inc.),
 the Gaussian(R) 98 system (copyright 1998, Gaussian, Inc.),
 the Gaussian(R) 94 system (copyright 1995, Gaussian, Inc.),
 the Gaussian 92(TM) system (copyright 1992, Gaussian, Inc.),
 the Gaussian 90(TM) system (copyright 1990, Gaussian, Inc.),
 the Gaussian 88(TM) system (copyright 1988, Gaussian, Inc.),
 the Gaussian 86(TM) system (copyright 1986, Carnegie Mellon
 University), and the Gaussian 82(TM) system (copyright 1983,
 Carnegie Mellon University). Gaussian is a federally registered
 trademark of Gaussian, Inc.
  
 This software contains proprietary and confidential information,
 including trade secrets, belonging to Gaussian, Inc.
  
 This software is provided under written license and may be
 used, copied, transmitted, or stored only in accord with that
 written license.
  
 The following legend is applicable only to US Government
 contracts under FAR:
  
                    RESTRICTED RIGHTS LEGEND
  
 Use, reproduction and disclosure by the US Government is
 subject to restrictions as set forth in subparagraphs (a)
 and (c) of the Commercial Computer Software - Restricted
 Rights clause in FAR 52.227-19.
  
 Gaussian, Inc.
 340 Quinnipiac St., Bldg. 40, Wallingford CT 06492
  
  
 ---------------------------------------------------------------
 Warning -- This program may not be used in any manner that
 competes with the business of Gaussian, Inc. or will provide
 assistance to any competitor of Gaussian, Inc.  The licensee
 of this program is prohibited from giving any competitor of
 Gaussian, Inc. access to this program.  By using this program,
 the user acknowledges that Gaussian, Inc. is engaged in the
 business of creating and licensing software in the field of
 computational chemistry and represents and warrants to the
 licensee that it is not a competitor of Gaussian, Inc. and that
 it will not use this program in any manner prohibited above.
 ---------------------------------------------------------------
  

 Cite this work as:
 Gaussian 16, Revision C.01,
 M. J. Frisch, G. W. Trucks, H. B. Schlegel, G. E. Scuseria, 
 M. A. Robb, J. R. Cheeseman, G. Scalmani, V. Barone, 
 G. A. Petersson, H. Nakatsuji, X. Li, M. Caricato, A. V. Marenich, 
 J. Bloino, B. G. Janesko, R. Gomperts, B. Mennucci, H. P. Hratchian, 
 J. V. Ortiz, A. F. Izmaylov, J. L. Sonnenberg, D. Williams-Young, 
 F. Ding, F. Lipparini, F. Egidi, J. Goings, B. Peng, A. Petrone, 
 T. Henderson, D. Ranasinghe, V. G. Zakrzewski, J. Gao, N. Rega, 
 G. Zheng, W. Liang, M. Hada, M. Ehara, K. Toyota, R. Fukuda, 
 J. Hasegawa, M. Ishida, T. Nakajima, Y. Honda, O. Kitao, H. Nakai, 
 T. Vreven, K. Throssell, J. A. Montgomery, Jr., J. E. Peralta, 
 F. Ogliaro, M. J. Bearpark, J. J. Heyd, E. N. Brothers, K. N. Kudin, 
 V. N. Staroverov, T. A. Keith, R. Kobayashi, J. Normand, 
 K. Raghavachari, A. P. Rendell, J. C. Burant, S. S. Iyengar, 
 J. Tomasi, M. Cossi, J. M. Millam, M. Klene, C. Adamo, R. Cammi, 
 J. W. Ochterski, R. L. Martin, K. Morokuma, O. Farkas, 
 J. B. Foresman, and D. J. Fox, Gaussian, Inc., Wallingford CT, 2019.
 
 ******************************************
 Gaussian 16:  ES64L-G16RevC.01  3-Jul-2019
                28-Jul-2022 
 ******************************************
 %NProcShared=48
 Will use up to   48 processors via shared memory.
 %mem = 190GB
 ---------------------------------------------------------------
 #n M062X/6-311++G(d,p) TD(NStates=1) EmpiricalDispersion=GD3 SP
 ---------------------------------------------------------------
 1/38=1,172=1/1;
 2/12=2,17=6,18=5,40=1/2;
 3/5=4,6=6,7=1111,11=9,25=1,30=1,74=-55,124=31/1,2,3,8;
 4//1;
 5/5=2,38=5/2;
 8/6=1,10=2,108=1/1;
 9/41=1,42=1,70=2/14;
 6/7=2,8=2,9=2,10=2/1;
 99/5=1,9=1/99;
 ----
 SP_6
 ----
 Symbolic Z-matrix:
 Charge =  1 Multiplicity = 1
 C                     0.        2.47826   1.35983 
 C                     0.        3.69431   0.66779 
 C                     0.        3.67966  -0.72283 
 C                     0.        2.47396  -1.41054 
 C                     0.       -2.45236  -1.40454 
 C                     0.       -3.68806  -0.70483 
 C                     0.       -3.70871   0.67619 
 C                     0.       -2.50706   1.36103 
 C                     0.        0.        1.45337 
 C                     0.        0.027    -1.42919 
 C                     0.        1.26446   0.69267 
 C                     0.        1.23747  -0.7422 
 C                     0.       -1.25965   0.66147 
 C                     0.       -1.23747  -0.7194 
 H                     0.        2.50367   2.44365 
 H                     0.        4.63555   1.19849 
 H                     0.        4.61706  -1.26155 
 H                     0.        2.45195  -2.49366 
 H                     0.        0.006    -2.51027 
 H                     0.       -2.48315  -2.48646 
 H                     0.       -4.60146  -1.28315 
 H                     0.       -4.63795   1.22489 
 H                     0.       -2.47247   2.44365 
 H                    -0.85959  -0.0108    2.14579 
 H                     0.85959  -0.0108    2.14579 
 
                          Input orientation:                          
 ---------------------------------------------------------------------
 Center     Atomic      Atomic             Coordinates (Angstroms)
 Number     Number       Type             X           Y           Z
 ---------------------------------------------------------------------
      1          6           0        0.000000    2.478255    1.359831
      2          6           0        0.000000    3.694308    0.667789
      3          6           0        0.000000    3.679661   -0.722830
      4          6           0        0.000000    2.473956   -1.410538
      5          6           0        0.000000   -2.452356   -1.404538
      6          6           0        0.000000   -3.688061   -0.704830
      7          6           0        0.000000   -3.708708    0.676189
      8          6           0        0.000000   -2.507055    1.361031
      9          6           0        0.000000    0.000000    1.453369
     10          6           0        0.000000    0.027000   -1.429189
     11          6           0        0.000000    1.264455    0.692665
     12          6           0        0.000000    1.237471   -0.742204
     13          6           0        0.000000   -1.259655    0.661465
     14          6           0        0.000000   -1.237471   -0.719404
     15          1           0        0.000000    2.503671    2.443647
     16          1           0        0.000000    4.635553    1.198489
     17          1           0        0.000000    4.617062   -1.261549
     18          1           0        0.000000    2.451950   -2.493659
     19          1           0        0.000000    0.006000   -2.510266
     20          1           0        0.000000   -2.483150   -2.486459
     21          1           0        0.000000   -4.601462   -1.283149
     22          1           0        0.000000   -4.637953    1.224889
     23          1           0        0.000000   -2.472471    2.443647
     24          1           0       -0.859585   -0.010800    2.145787
     25          1           0        0.859585   -0.010800    2.145787
 ---------------------------------------------------------------------
                    Distance matrix (angstroms):
                    1          2          3          4          5
     1  C    0.000000
     2  C    1.399181   0.000000
     3  C    2.404340   1.390696   0.000000
     4  C    2.770372   2.410125   1.388044   0.000000
     5  C    5.652668   6.486603   6.169794   4.926316   0.000000
     6  C    6.502790   7.508892   7.367744   6.202296   1.420056
     7  C    6.224619   7.403021   7.519658   6.525317   2.430606
     8  C    4.985310   6.239991   6.528241   5.700181   2.766110
     9  C    2.480020   3.776910   4.275014   3.784498   3.765857
    10  C    3.713123   4.224508   3.720333   2.447027   2.479479
    11  C    1.385071   2.429980   2.799437   2.426181   4.267663
    12  C    2.440921   2.832689   2.442267   1.405548   3.748801
    13  C    3.802589   4.953967   5.129631   4.270017   2.385562
    14  C    4.257915   5.123158   4.917133   3.775229   1.394760
    15  H    1.084114   2.138057   3.377799   3.854300   6.274610
    16  H    2.163323   1.080548   2.145972   3.388145   7.550775
    17  H    3.383213   2.138649   1.081175   2.148279   7.070864
    18  H    3.853580   3.396794   2.154788   1.083345   5.023784
    19  H    4.592352   4.868639   4.085427   2.701890   2.695579
    20  H    6.277698   6.936157   6.410197   5.072525   1.082359
    21  H    7.556966   8.522087   8.300058   7.076565   2.152532
    22  H    7.117487   8.350864   8.542617   7.584506   3.419170
    23  H    5.067972   6.417385   6.919198   6.270716   3.848238
    24  H    2.748092   4.080587   4.752615   4.422708   4.393733
    25  H    2.748092   4.080587   4.752615   4.422708   4.393733
                    6          7          8          9         10
     6  C    0.000000
     7  C    1.381173   0.000000
     8  C    2.379613   1.383105   0.000000
     9  C    4.273127   3.789264   2.508755   0.000000
    10  C    3.785020   4.288138   3.769186   2.882684   0.000000
    11  C    5.145912   4.973190   3.830274   1.475641   2.456330
    12  C    4.925674   5.145535   4.294773   2.520293   1.391829
    13  C    2.786381   2.449097   1.430175   1.487899   2.454855
    14  C    2.450633   2.838079   2.437222   2.500455   1.450063
    15  H    6.946255   6.458913   5.126347   2.692400   4.597038
    16  H    8.538453   8.360591   7.144457   4.642555   5.305040
    17  H    8.323761   8.548291   7.591506   5.356122   4.593122
    18  H    6.395283   6.928322   6.280953   4.646621   2.648297
    19  H    4.111652   4.894134   4.615451   3.963640   1.081281
    20  H    2.150817   3.391804   3.847564   4.657068   2.723724
    21  H    1.081089   2.153141   3.373163   5.353689   4.630765
    22  H    2.150839   1.079152   2.135243   4.643577   5.367114
    23  H    3.374991   2.156894   1.083168   2.663412   4.609362
    24  H    4.731506   4.071011   2.754273   1.103832   3.677060
    25  H    4.731506   4.071011   2.754273   1.103832   3.677060
                   11         12         13         14         15
    11  C    0.000000
    12  C    1.435123   0.000000
    13  C    2.524303   2.864599   0.000000
    14  C    2.872903   2.475047   1.381047   0.000000
    15  H    2.145133   3.428252   4.163988   4.899085   0.000000
    16  H    3.408836   3.913215   5.919618   6.178246   2.468874
    17  H    3.880583   3.419262   6.183347   5.879581   4.265548
    18  H    3.400412   2.131327   4.871429   4.093874   4.937577
    19  H    3.441290   2.154661   3.414932   2.180231   5.547938
    20  H    4.914405   4.109190   3.377331   2.161990   7.012441
    21  H    6.189735   5.863937   3.866419   3.410901   8.023212
    22  H    5.926355   6.195971   3.424959   3.917085   7.244872
    23  H    4.126809   4.890124   2.155712   3.395603   4.976142
    24  H    2.115827   3.261527   2.121730   3.233099   2.673980
    25  H    2.115827   3.261527   2.121730   3.233099   2.673980
                   16         17         18         19         20
    16  H    0.000000
    17  H    2.460107   0.000000
    18  H    4.289531   2.491145   0.000000
    19  H    5.931916   4.777153   2.446006   0.000000
    20  H    8.015908   7.205096   4.935105   2.489264   0.000000
    21  H    9.564569   9.218549   7.156532   4.768073   2.436227
    22  H    9.273544   9.583198   8.005893   5.959671   4.291536
    23  H    7.216261   7.999372   6.973300   5.539321   4.930118
    24  H    4.819217   5.810846   5.322451   4.734765   5.320630
    25  H    4.819217   5.810846   5.322451   4.734765   5.320630
                   21         22         23         24         25
    21  H    0.000000
    22  H    2.508303   0.000000
    23  H    4.292040   2.484891   0.000000
    24  H    5.794020   4.795569   2.624392   0.000000
    25  H    5.794020   4.795569   2.624392   1.719170   0.000000
 Stoichiometry    C14H11(1+)
 Framework group  CS[SG(C14H9),X(H2)]
 Deg. of freedom    46
 Full point group                 CS      NOp   2
 Largest Abelian subgroup         CS      NOp   2
 Largest concise Abelian subgroup CS      NOp   2
                         Standard orientation:                         
 ---------------------------------------------------------------------
 Center     Atomic      Atomic             Coordinates (Angstroms)
 Number     Number       Type             X           Y           Z
 ---------------------------------------------------------------------
      1          6           0       -2.356024   -1.561922    0.000000
      2          6           0       -2.308641   -2.960300    0.000000
      3          6           0       -1.070621   -3.593815    0.000000
      4          6           0        0.098773   -2.846029    0.000000
      5          6           0        2.383649    1.518364    0.000000
      6          6           0        2.338614    2.937706    0.000000
      7          6           0        1.125501    3.598006    0.000000
      8          6           0       -0.039472    2.852475    0.000000
      9          6           0       -1.286727    0.675733    0.000000
     10          6           0        1.252849   -0.688241    0.000000
     11          6           0       -1.201054   -0.797419    0.000000
     12          6           0        0.081879   -1.440583    0.000000
     13          6           0        0.000000    1.422846    0.000000
     14          6           0        1.212266    0.761254    0.000000
     15          1           0       -3.327417   -1.080570    0.000000
     16          1           0       -3.216081   -3.546933    0.000000
     17          1           0       -1.029443   -4.674206    0.000000
     18          1           0        1.067965   -3.330077    0.000000
     19          1           0        2.219764   -1.172229    0.000000
     20          1           0        3.355864    1.042655    0.000000
     21          1           0        3.275270    3.477549    0.000000
     22          1           0        1.071695    4.675816    0.000000
     23          1           0       -1.014064    3.325152    0.000000
     24          1           0       -1.894752    1.007193    0.859585
     25          1           0       -1.894752    1.007193   -0.859585
 ---------------------------------------------------------------------
 Rotational constants (GHZ):           2.1361809           0.4446163           0.3688184
 Standard basis: 6-311++G(d,p) (5D, 7F)
 There are   299 symmetry adapted cartesian basis functions of A'  symmetry.
 There are   100 symmetry adapted cartesian basis functions of A"  symmetry.
 There are   285 symmetry adapted basis functions of A'  symmetry.
 There are   100 symmetry adapted basis functions of A"  symmetry.
   385 basis functions,   603 primitive gaussians,   399 cartesian basis functions
    47 alpha electrons       47 beta electrons
       nuclear repulsion energy       781.2231700969 Hartrees.
 NAtoms=   25 NActive=   25 NUniq=   24 SFac= 1.09D+00 NAtFMM=   60 NAOKFM=F Big=F
 Integral buffers will be    131072 words long.
 Regular integral format.
 Two-electron integral symmetry is turned on.
 Nuclear repulsion after empirical dispersion term =      781.2221906069 Hartrees.
 One-electron integrals computed using PRISM.
 NBasis=   385 RedAO= T EigKep=  1.10D-06  NBF=   285   100
 NBsUse=   379 1.00D-06 EigRej=  8.38D-07 NBFU=   279   100
 ExpMin= 3.60D-02 ExpMax= 4.56D+03 ExpMxC= 6.82D+02 IAcc=3 IRadAn=         5 AccDes= 0.00D+00
 Harris functional with IExCor= 1009 and IRadAn=       5 diagonalized for initial guess.
 HarFok:  IExCor= 1009 AccDes= 0.00D+00 IRadAn=         5 IDoV= 1 UseB2=F ITyADJ=14
 ICtDFT=  3500011 ScaDFX=  1.000000  1.000000  1.000000  1.000000
 FoFCou: FMM=F IPFlag=           0 FMFlag=      100000 FMFlg1=           0
         NFxFlg=           0 DoJE=T BraDBF=F KetDBF=T FulRan=T
         wScrn=  0.000000 ICntrl=       500 IOpCl=  0 I1Cent=   200000004 NGrid=           0
         NMat0=    1 NMatS0=      1 NMatT0=    0 NMatD0=    1 NMtDS0=    0 NMtDT0=    0
 Petite list used in FoFCou.
 Initial guess orbital symmetries:
       Occupied  (A') (A') (A') (A') (A') (A') (A') (A') (A') (A')
                 (A') (A') (A') (A') (A') (A') (A') (A') (A') (A')
                 (A') (A') (A') (A') (A') (A') (A') (A') (A') (A')
                 (A') (A') (A") (A') (A') (A') (A') (A') (A') (A")
                 (A") (A') (A') (A") (A") (A") (A")
       Virtual   (A") (A") (A") (A") (A") (A') (A') (A') (A') (A")
                 (A") (A') (A') (A') (A") (A') (A') (A') (A') (A")
                 (A') (A") (A') (A') (A') (A") (A') (A") (A') (A')
                 (A') (A') (A') (A") (A') (A') (A") (A') (A') (A')
                 (A") (A') (A') (A") (A') (A') (A') (A') (A') (A")
                 (A') (A") (A') (A") (A') (A') (A') (A") (A") (A')
                 (A') (A') (A') (A') (A') (A') (A") (A') (A') (A")
                 (A') (A') (A') (A') (A') (A') (A') (A') (A') (A')
                 (A') (A') (A') (A') (A') (A') (A') (A') (A') (A')
                 (A') (A') (A') (A') (A') (A') (A') (A") (A') (A")
                 (A') (A') (A") (A") (A') (A") (A") (A') (A') (A")
                 (A") (A') (A') (A') (A") (A') (A') (A") (A") (A')
                 (A") (A") (A') (A') (A') (A") (A') (A') (A') (A")
                 (A') (A') (A') (A') (A') (A') (A") (A') (A') (A')
                 (A') (A') (A') (A') (A') (A') (A') (A') (A') (A")
                 (A") (A') (A") (A") (A') (A') (A') (A") (A") (A')
                 (A") (A') (A") (A") (A") (A') (A') (A') (A') (A')
                 (A') (A") (A") (A') (A') (A') (A') (A') (A') (A")
                 (A') (A') (A') (A') (A') (A") (A") (A') (A") (A")
                 (A') (A") (A') (A") (A') (A') (A') (A") (A') (A')
                 (A") (A") (A") (A') (A') (A") (A') (A") (A') (A')
                 (A") (A") (A') (A") (A') (A") (A') (A') (A') (A")
                 (A') (A') (A') (A') (A") (A') (A') (A') (A") (A")
                 (A') (A') (A') (A") (A') (A') (A") (A') (A") (A')
                 (A") (A') (A') (A') (A') (A") (A') (A') (A') (A")
                 (A') (A') (A') (A") (A") (A') (A') (A") (A') (A')
                 (A') (A") (A') (A") (A') (A') (A') (A") (A') (A")
                 (A') (A') (A') (A') (A") (A') (A") (A') (A") (A')
                 (A") (A') (A") (A") (A") (A') (A') (A') (A') (A')
                 (A') (A') (A') (A') (A') (A') (A') (A') (A') (A')
                 (A') (A') (A') (A') (A") (A') (A') (A') (A') (A')
                 (A') (A') (A') (A') (A') (A') (A') (A') (A') (A')
                 (A') (A') (A') (A') (A') (A') (A') (A') (A') (A')
                 (A') (A')
 The electronic state of the initial guess is 1-A'.
 Requested convergence on RMS density matrix=1.00D-08 within 128 cycles.
 Requested convergence on MAX density matrix=1.00D-06.
 Requested convergence on             energy=1.00D-06.
 No special actions if energy rises.
 SCF Done:  E(RM062X) =  -539.757030895     A.U. after   15 cycles
            NFock= 15  Conv=0.64D-08     -V/T= 2.0042
 DoSCS=F DFT=T ScalE2(SS,OS)=  1.000000  1.000000
 ExpMin= 3.60D-02 ExpMax= 4.56D+03 ExpMxC= 6.82D+02 IAcc=3 IRadAn=         5 AccDes= 0.00D+00
 HarFok:  IExCor=  205 AccDes= 0.00D+00 IRadAn=         5 IDoV=-2 UseB2=F ITyADJ=14
 ICtDFT= 12500011 ScaDFX=  1.000000  1.000000  1.000000  1.000000
 Range of M.O.s used for correlation:    15   379
 NBasis=   385 NAE=    47 NBE=    47 NFC=    14 NFV=     0
 NROrb=    365 NOA=    33 NOB=    33 NVA=   332 NVB=   332

 **** Warning!!: The largest alpha MO coefficient is  0.14790053D+03

 Orbital symmetries:
       Occupied  (A') (A') (A') (A') (A') (A') (A') (A') (A') (A')
                 (A') (A') (A') (A') (A') (A') (A') (A') (A') (A')
                 (A') (A') (A') (A') (A') (A') (A') (A') (A') (A')
                 (A') (A") (A') (A') (A') (A') (A') (A") (A") (A')
                 (A') (A') (A') (A") (A") (A") (A")
       Virtual   (A") (A") (A") (A") (A') (A') (A') (A') (A") (A')
                 (A') (A") (A') (A') (A") (A') (A") (A') (A') (A')
                 (A") (A") (A') (A') (A') (A") (A') (A") (A') (A')
                 (A") (A') (A") (A') (A') (A') (A') (A') (A") (A')
                 (A") (A') (A') (A") (A") (A') (A") (A') (A") (A')
                 (A') (A') (A') (A') (A') (A") (A') (A') (A') (A')
                 (A') (A") (A') (A') (A') (A") (A') (A') (A') (A')
                 (A') (A') (A') (A') (A') (A') (A') (A') (A') (A')
                 (A') (A') (A') (A') (A') (A') (A') (A') (A') (A')
                 (A') (A') (A') (A') (A") (A') (A") (A") (A') (A")
                 (A') (A') (A') (A') (A") (A") (A') (A") (A") (A')
                 (A') (A') (A") (A') (A") (A') (A') (A") (A') (A")
                 (A") (A') (A") (A') (A') (A') (A") (A') (A') (A')
                 (A') (A') (A') (A') (A') (A') (A') (A') (A') (A')
                 (A') (A') (A') (A") (A') (A') (A') (A') (A') (A')
                 (A') (A') (A") (A') (A") (A') (A") (A") (A') (A")
                 (A") (A') (A') (A") (A") (A") (A') (A") (A') (A')
                 (A') (A') (A') (A") (A") (A') (A') (A') (A') (A")
                 (A') (A') (A') (A") (A") (A') (A') (A') (A") (A")
                 (A") (A') (A') (A") (A') (A") (A') (A') (A') (A')
                 (A") (A") (A") (A') (A") (A') (A') (A") (A') (A')
                 (A') (A") (A') (A") (A") (A') (A") (A') (A') (A")
                 (A') (A') (A') (A') (A") (A') (A') (A') (A") (A")
                 (A') (A') (A') (A") (A') (A') (A') (A") (A") (A')
                 (A") (A') (A') (A") (A') (A') (A') (A') (A') (A')
                 (A") (A') (A') (A') (A') (A") (A") (A") (A') (A')
                 (A') (A') (A') (A') (A') (A') (A') (A") (A') (A')
                 (A') (A") (A') (A") (A") (A") (A') (A") (A') (A")
                 (A') (A") (A") (A') (A") (A") (A') (A') (A') (A')
                 (A') (A') (A') (A') (A') (A') (A') (A') (A') (A')
                 (A') (A') (A') (A") (A') (A') (A') (A') (A') (A')
                 (A') (A') (A') (A') (A') (A') (A') (A') (A') (A')
                 (A') (A') (A') (A') (A') (A') (A') (A') (A') (A')
                 (A') (A')
     4 initial guesses have been made.
 Convergence on wavefunction:    0.001000000000000
 Iteration     1 Dimension     4 NMult     0 NNew      4
 CISAX will form     4 AO SS matrices at one time.
 Iteration     2 Dimension     6 NMult     4 NNew      2
 Iteration     3 Dimension     8 NMult     6 NNew      2
 Iteration     4 Dimension    10 NMult     8 NNew      2
 Iteration     5 Dimension    12 NMult    10 NNew      2
 Iteration     6 Dimension    14 NMult    12 NNew      2
 ***********************************************************************
 Excited states from <AA,BB:AA,BB> singles matrix:
 ***********************************************************************
 
 Ground to excited state transition densities written to RWF  633
 Ground to excited state transition electric dipole moments (Au):
       state          X           Y           Z        Dip. S.      Osc.
         1         0.5417     -0.2393      0.0000      0.3508      0.0238
 Ground to excited state transition velocity dipole moments (Au):
       state          X           Y           Z        Dip. S.      Osc.
         1        -0.0627      0.0255      0.0000      0.0046      0.0300
 Ground to excited state transition magnetic dipole moments (Au):
       state          X           Y           Z
         1         0.0000      0.0000      0.0299
 Ground to excited state transition velocity quadrupole moments (Au):
       state          XX          YY          ZZ          XY          XZ          YZ
         1        -0.1161     -0.1876      0.0092     -0.1227     -0.0000     -0.0000
 <0|del|b> * <b|rxdel|0> + <0|del|b> * <b|delr+rdel|0>
 Rotatory Strengths (R) in cgs (10**-40 erg-esu-cm/Gauss)
       state          XX          YY          ZZ    R(velocity)    E-M Angle
         1         0.0000      0.0000     -0.0000     -0.0000       90.00
 1/2[<0|r|b>*<b|rxdel|0> + (<0|rxdel|b>*<b|r|0>)*]
 Rotatory Strengths (R) in cgs (10**-40 erg-esu-cm/Gauss)
       state          XX          YY          ZZ     R(length)
         1        -0.0000      0.0000     -0.0000     -0.0000
  1/2[<0|del|b>*<b|r|0> + (<0|r|b>*<b|del|0>)*] (Au)
       state          X           Y           Z        Dip. S.   Osc.(frdel)
         1        -0.0340     -0.0061      0.0000      0.0401      0.0267

 Excitation energies and oscillator strengths:
 
 Excited State   1:      Singlet-A'     2.7701 eV  447.58 nm  f=0.0238  <S**2>=0.000
      47 -> 48         0.70366
 This state for optimization and/or second-order correction.
 Total Energy, E(TD-HF/TD-DFT) =  -539.655231046    
 Copying the excited state density for this state as the 1-particle RhoCI density.
 SavETr:  write IOETrn=   770 NScale= 10 NData=  16 NLR=1 NState=    1 LETran=      28.

 **********************************************************************

            Population analysis using the SCF Density.

 **********************************************************************

 Orbital symmetries:
       Occupied  (A') (A') (A') (A') (A') (A') (A') (A') (A') (A')
                 (A') (A') (A') (A') (A') (A') (A') (A') (A') (A')
                 (A') (A') (A') (A') (A') (A') (A') (A') (A') (A')
                 (A') (A") (A') (A') (A') (A') (A') (A") (A") (A')
                 (A') (A') (A') (A") (A") (A") (A")
       Virtual   (A") (A") (A") (A") (A') (A') (A') (A') (A") (A')
                 (A') (A") (A') (A') (A") (A') (A") (A') (A') (A')
                 (A") (A") (A') (A') (A') (A") (A') (A") (A') (A')
                 (A") (A') (A") (A') (A') (A') (A') (A') (A") (A')
                 (A") (A') (A') (A") (A") (A') (A") (A') (A") (A')
                 (A') (A') (A') (A') (A') (A") (A') (A') (A') (A')
                 (A') (A") (A') (A') (A') (A") (A') (A') (A') (A')
                 (A') (A') (A') (A') (A') (A') (A') (A') (A') (A')
                 (A') (A') (A') (A') (A') (A') (A') (A') (A') (A')
                 (A') (A') (A') (A') (A") (A') (A") (A") (A') (A")
                 (A') (A') (A') (A') (A") (A") (A') (A") (A") (A')
                 (A') (A') (A") (A') (A") (A') (A') (A") (A') (A")
                 (A") (A') (A") (A') (A') (A') (A") (A') (A') (A')
                 (A') (A') (A') (A') (A') (A') (A') (A') (A') (A')
                 (A') (A') (A') (A") (A') (A') (A') (A') (A') (A')
                 (A') (A') (A") (A') (A") (A') (A") (A") (A') (A")
                 (A") (A') (A') (A") (A") (A") (A') (A") (A') (A')
                 (A') (A') (A') (A") (A") (A') (A') (A') (A') (A")
                 (A') (A') (A') (A") (A") (A') (A') (A') (A") (A")
                 (A") (A') (A') (A") (A') (A") (A') (A') (A') (A')
                 (A") (A") (A") (A') (A") (A') (A') (A") (A') (A')
                 (A') (A") (A') (A") (A") (A') (A") (A') (A') (A")
                 (A') (A') (A') (A') (A") (A') (A') (A') (A") (A")
                 (A') (A') (A') (A") (A') (A') (A') (A") (A") (A')
                 (A") (A') (A') (A") (A') (A') (A') (A') (A') (A')
                 (A") (A') (A') (A') (A') (A") (A") (A") (A') (A')
                 (A') (A') (A') (A') (A') (A') (A') (A") (A') (A')
                 (A') (A") (A') (A") (A") (A") (A') (A") (A') (A")
                 (A') (A") (A") (A') (A") (A") (A') (A') (A') (A')
                 (A') (A') (A') (A') (A') (A') (A') (A') (A') (A')
                 (A') (A') (A') (A") (A') (A') (A') (A') (A') (A')
                 (A') (A') (A') (A') (A') (A') (A') (A') (A') (A')
                 (A') (A') (A') (A') (A') (A') (A') (A') (A') (A')
                 (A') (A')
 The electronic state is 1-A'.
 Alpha  occ. eigenvalues --  -10.77592 -10.73738 -10.72738 -10.72695 -10.72065
 Alpha  occ. eigenvalues --  -10.71923 -10.71890 -10.70972 -10.70816 -10.70270
 Alpha  occ. eigenvalues --  -10.70162 -10.69998 -10.69672 -10.69270  -1.16480
 Alpha  occ. eigenvalues --   -1.12460  -1.06976  -1.05819  -1.01266  -1.00203
 Alpha  occ. eigenvalues --   -0.95754  -0.91089  -0.86399  -0.85884  -0.83787
 Alpha  occ. eigenvalues --   -0.78389  -0.76065  -0.74404  -0.69881  -0.69169
 Alpha  occ. eigenvalues --   -0.68404  -0.68105  -0.68039  -0.65011  -0.64155
 Alpha  occ. eigenvalues --   -0.62890  -0.61814  -0.60197  -0.59504  -0.59269
 Alpha  occ. eigenvalues --   -0.56801  -0.55361  -0.54513  -0.52463  -0.46870
 Alpha  occ. eigenvalues --   -0.46089  -0.44237
 Alpha virt. eigenvalues --   -0.26110  -0.14659  -0.14072  -0.12754  -0.11187
 Alpha virt. eigenvalues --   -0.10092  -0.09249  -0.07975  -0.07938  -0.07478
 Alpha virt. eigenvalues --   -0.07208  -0.07136  -0.05643  -0.05579  -0.05346
 Alpha virt. eigenvalues --   -0.03838  -0.03655  -0.03273  -0.03133  -0.02160
 Alpha virt. eigenvalues --   -0.01360  -0.00937   0.00187   0.00574   0.00652
 Alpha virt. eigenvalues --    0.01059   0.01510   0.01902   0.02172   0.02297
 Alpha virt. eigenvalues --    0.02454   0.02679   0.02801   0.03256   0.03413
 Alpha virt. eigenvalues --    0.04232   0.04537   0.04727   0.05040   0.05370
 Alpha virt. eigenvalues --    0.06036   0.06291   0.06593   0.07048   0.07261
 Alpha virt. eigenvalues --    0.07890   0.08085   0.08351   0.08632   0.08909
 Alpha virt. eigenvalues --    0.09478   0.09601   0.09943   0.10788   0.11004
 Alpha virt. eigenvalues --    0.11127   0.12123   0.12236   0.12748   0.12989
 Alpha virt. eigenvalues --    0.13450   0.13531   0.13995   0.14483   0.15945
 Alpha virt. eigenvalues --    0.16371   0.16472   0.17340   0.17610   0.17873
 Alpha virt. eigenvalues --    0.18125   0.19034   0.19439   0.19619   0.19756
 Alpha virt. eigenvalues --    0.21543   0.21605   0.22684   0.23132   0.23562
 Alpha virt. eigenvalues --    0.23883   0.24552   0.25405   0.26917   0.27646
 Alpha virt. eigenvalues --    0.28779   0.29375   0.29926   0.31372   0.35560
 Alpha virt. eigenvalues --    0.36736   0.38167   0.39237   0.41145   0.41315
 Alpha virt. eigenvalues --    0.41963   0.42198   0.42990   0.43734   0.44347
 Alpha virt. eigenvalues --    0.44493   0.45249   0.46087   0.46373   0.47933
 Alpha virt. eigenvalues --    0.48459   0.48848   0.48985   0.50487   0.51085
 Alpha virt. eigenvalues --    0.51446   0.51866   0.52143   0.52901   0.54089
 Alpha virt. eigenvalues --    0.54093   0.54571   0.55691   0.55899   0.57491
 Alpha virt. eigenvalues --    0.58233   0.58865   0.61462   0.62148   0.62475
 Alpha virt. eigenvalues --    0.63209   0.63517   0.64898   0.65177   0.67266
 Alpha virt. eigenvalues --    0.70430   0.70544   0.71115   0.72407   0.72869
 Alpha virt. eigenvalues --    0.75759   0.76005   0.76241   0.76840   0.77177
 Alpha virt. eigenvalues --    0.77676   0.78065   0.78264   0.79899   0.80408
 Alpha virt. eigenvalues --    0.81166   0.81716   0.82270   0.83016   0.85187
 Alpha virt. eigenvalues --    0.87188   0.88219   0.88524   0.89155   0.90525
 Alpha virt. eigenvalues --    0.91094   0.91209   0.93260   0.94650   0.96486
 Alpha virt. eigenvalues --    0.96646   1.00397   1.01227   1.01526   1.02918
 Alpha virt. eigenvalues --    1.03146   1.03836   1.04831   1.05529   1.08837
 Alpha virt. eigenvalues --    1.19487   1.23201   1.23995   1.25257   1.28051
 Alpha virt. eigenvalues --    1.29732   1.31748   1.34332   1.35855   1.36008
 Alpha virt. eigenvalues --    1.39151   1.40257   1.40826   1.42979   1.43526
 Alpha virt. eigenvalues --    1.43591   1.44653   1.45969   1.46181   1.46703
 Alpha virt. eigenvalues --    1.47781   1.48041   1.51741   1.53636   1.55371
 Alpha virt. eigenvalues --    1.55787   1.56260   1.56754   1.57958   1.61480
 Alpha virt. eigenvalues --    1.63079   1.63239   1.64066   1.66080   1.68248
 Alpha virt. eigenvalues --    1.68265   1.68754   1.69695   1.74402   1.76047
 Alpha virt. eigenvalues --    1.77147   1.78308   1.79920   1.80074   1.80767
 Alpha virt. eigenvalues --    1.82977   1.83215   1.83680   1.83985   1.84227
 Alpha virt. eigenvalues --    1.84388   1.85716   1.86245   1.88257   1.91383
 Alpha virt. eigenvalues --    1.91895   1.94366   1.95292   1.97579   1.98315
 Alpha virt. eigenvalues --    1.99770   2.02443   2.04441   2.07320   2.11765
 Alpha virt. eigenvalues --    2.12161   2.14229   2.15247   2.19134   2.21263
 Alpha virt. eigenvalues --    2.22888   2.28523   2.30147   2.34665   2.34844
 Alpha virt. eigenvalues --    2.36226   2.38481   2.39752   2.42159   2.44682
 Alpha virt. eigenvalues --    2.46187   2.46519   2.49016   2.53247   2.54081
 Alpha virt. eigenvalues --    2.54231   2.56765   2.57937   2.58378   2.59493
 Alpha virt. eigenvalues --    2.59924   2.61433   2.61865   2.63505   2.63904
 Alpha virt. eigenvalues --    2.64867   2.64962   2.65117   2.65688   2.67711
 Alpha virt. eigenvalues --    2.69103   2.70910   2.71314   2.73400   2.74819
 Alpha virt. eigenvalues --    2.76290   2.78655   2.79709   2.82904   2.83134
 Alpha virt. eigenvalues --    2.85004   2.86285   2.92158   2.97019   2.99107
 Alpha virt. eigenvalues --    3.00476   3.04860   3.10554   3.11413   3.13436
 Alpha virt. eigenvalues --    3.20188   3.23091   3.26381   3.28917   3.30766
 Alpha virt. eigenvalues --    3.32594   3.34785   3.43373   3.46166   3.46539
 Alpha virt. eigenvalues --    3.48155   3.50413   3.56483   3.65873   3.66244
 Alpha virt. eigenvalues --    3.68765   3.93966   3.94232   3.95364   3.96267
 Alpha virt. eigenvalues --    4.03880   4.06714   4.07404   4.12432   4.35320
 Alpha virt. eigenvalues --    4.60959   4.69232   4.71646  23.45215  23.60008
 Alpha virt. eigenvalues --   23.80196  23.82538  23.85802  23.89173  23.93270
 Alpha virt. eigenvalues --   23.94644  23.97588  23.99186  24.01966  24.03612
 Alpha virt. eigenvalues --   24.10526  24.11920
          Condensed to atoms (all electrons):
               1          2          3          4          5          6
     1  C    8.624737   0.379044  -0.604314   2.040561   0.007118  -0.091737
     2  C    0.379044   7.146443   0.434603  -1.099401  -0.025173  -0.013135
     3  C   -0.604314   0.434603   6.643076   0.723753  -0.113313   0.016868
     4  C    2.040561  -1.099401   0.723753  12.148043  -0.426522  -0.147174
     5  C    0.007118  -0.025173  -0.113313  -0.426522  10.340032   0.862550
     6  C   -0.091737  -0.013135   0.016868  -0.147174   0.862550   6.577246
     7  C   -0.031810  -0.000313  -0.015024   0.009185  -1.156667   0.228711
     8  C    0.406378  -0.000749  -0.101914  -0.092324   2.080195  -0.440293
     9  C   -1.192400  -0.883281   0.291293  -0.044649  -0.305412   0.307497
    10  C   -1.287942   0.221700  -0.300575  -2.810744  -2.400338  -0.405511
    11  C    0.192660  -0.664772   0.809612  -1.002520  -1.159190  -0.089345
    12  C   -1.934100   1.081621  -1.315181  -1.609745  -0.427037  -0.303957
    13  C    0.129242  -0.194086  -0.246182  -1.756999   0.356350   1.193011
    14  C   -1.137486  -0.271821  -0.100359  -0.335143  -1.939296  -1.570416
    15  H    0.369262  -0.109137  -0.004493   0.030935   0.005545   0.001044
    16  H   -0.020989   0.380018  -0.019431   0.013283  -0.001470  -0.000319
    17  H   -0.022041  -0.019947   0.375718  -0.066944   0.000268   0.000386
    18  H    0.050972   0.002074  -0.084710   0.470079   0.005963  -0.005169
    19  H   -0.047909  -0.007170   0.049151  -0.091731  -0.051190   0.053316
    20  H    0.007055   0.001928  -0.005153   0.005357   0.452193  -0.084054
    21  H   -0.001372  -0.000399   0.000416   0.000291  -0.070484   0.373511
    22  H    0.000496   0.000334  -0.000336  -0.001516   0.013183  -0.014630
    23  H    0.006899  -0.002398   0.001150   0.005269   0.025916   0.002632
    24  H    0.032519   0.015243  -0.001914  -0.014283  -0.010099  -0.001158
    25  H    0.032519   0.015243  -0.001914  -0.014283  -0.010099  -0.001158
               7          8          9         10         11         12
     1  C   -0.031810   0.406378  -1.192400  -1.287942   0.192660  -1.934100
     2  C   -0.000313  -0.000749  -0.883281   0.221700  -0.664772   1.081621
     3  C   -0.015024  -0.101914   0.291293  -0.300575   0.809612  -1.315181
     4  C    0.009185  -0.092324  -0.044649  -2.810744  -1.002520  -1.609745
     5  C   -1.156667   2.080195  -0.305412  -2.400338  -1.159190  -0.427037
     6  C    0.228711  -0.440293   0.307497  -0.405511  -0.089345  -0.303957
     7  C    7.227996   0.128873  -0.784953   0.299883  -0.342767  -0.080134
     8  C    0.128873   8.701791  -1.051579  -1.328414   0.349289  -1.053900
     9  C   -0.784953  -1.051579   9.666048   0.248451   1.428877  -2.059576
    10  C    0.299883  -1.328414   0.248451   9.114541  -0.229147   2.351682
    11  C   -0.342767   0.349289   1.428877  -0.229147  14.746506  -3.541692
    12  C   -0.080134  -1.053900  -2.059576   2.351682  -3.541692  15.904835
    13  C   -1.121318   0.431261   1.658610  -0.602819   1.002947  -4.561347
    14  C    1.779840  -2.523826  -1.849399   2.587981  -4.927596   3.122397
    15  H   -0.002694   0.004699   0.094027  -0.010203  -0.034577  -0.017801
    16  H    0.000387   0.000941   0.003698  -0.008930   0.028525  -0.032647
    17  H   -0.000398  -0.001269  -0.005788   0.019614  -0.024122   0.087303
    18  H    0.002276   0.007139  -0.024015   0.010421  -0.010688  -0.054736
    19  H   -0.008509  -0.045233   0.075411   0.421457   0.076110  -0.083998
    20  H    0.003114   0.051483  -0.024846   0.011271  -0.011374  -0.010693
    21  H   -0.010492  -0.030604  -0.005739   0.020522  -0.006235   0.004952
    22  H    0.378771  -0.018117   0.002253  -0.009123   0.002243  -0.008165
    23  H   -0.106962   0.368330   0.090829  -0.009117   0.006022   0.003673
    24  H    0.013459   0.033051   0.355769   0.005253   0.021725  -0.061087
    25  H    0.013459   0.033051   0.355769   0.005253   0.021725  -0.061087
              13         14         15         16         17         18
     1  C    0.129242  -1.137486   0.369262  -0.020989  -0.022041   0.050972
     2  C   -0.194086  -0.271821  -0.109137   0.380018  -0.019947   0.002074
     3  C   -0.246182  -0.100359  -0.004493  -0.019431   0.375718  -0.084710
     4  C   -1.756999  -0.335143   0.030935   0.013283  -0.066944   0.470079
     5  C    0.356350  -1.939296   0.005545  -0.001470   0.000268   0.005963
     6  C    1.193011  -1.570416   0.001044  -0.000319   0.000386  -0.005169
     7  C   -1.121318   1.779840  -0.002694   0.000387  -0.000398   0.002276
     8  C    0.431261  -2.523826   0.004699   0.000941  -0.001269   0.007139
     9  C    1.658610  -1.849399   0.094027   0.003698  -0.005788  -0.024015
    10  C   -0.602819   2.587981  -0.010203  -0.008930   0.019614   0.010421
    11  C    1.002947  -4.927596  -0.034577   0.028525  -0.024122  -0.010688
    12  C   -4.561347   3.122397  -0.017801  -0.032647   0.087303  -0.054736
    13  C   14.107886  -3.811735  -0.000971   0.003649  -0.006376  -0.011708
    14  C   -3.811735  16.439709   0.007998  -0.009753   0.005487  -0.020077
    15  H   -0.000971   0.007998   0.433698  -0.008551   0.001398   0.000292
    16  H    0.003649  -0.009753  -0.008551   0.415878  -0.006463   0.001859
    17  H   -0.006376   0.005487   0.001398  -0.006463   0.418740  -0.009604
    18  H   -0.011708  -0.020077   0.000292   0.001859  -0.009604   0.452005
    19  H    0.081292  -0.045662   0.000319  -0.000522   0.001467  -0.006308
    20  H    0.000471  -0.060638  -0.000109   0.000015  -0.000145   0.001243
    21  H   -0.029301   0.099516   0.000016  -0.000007   0.000010  -0.000143
    22  H    0.022881  -0.030543  -0.000127   0.000008  -0.000007   0.000016
    23  H   -0.029577  -0.033495   0.000561  -0.000129   0.000012  -0.000118
    24  H    0.005118  -0.057911  -0.000837   0.000630  -0.000142   0.000180
    25  H    0.005118  -0.057911  -0.000837   0.000630  -0.000142   0.000180
              19         20         21         22         23         24
     1  C   -0.047909   0.007055  -0.001372   0.000496   0.006899   0.032519
     2  C   -0.007170   0.001928  -0.000399   0.000334  -0.002398   0.015243
     3  C    0.049151  -0.005153   0.000416  -0.000336   0.001150  -0.001914
     4  C   -0.091731   0.005357   0.000291  -0.001516   0.005269  -0.014283
     5  C   -0.051190   0.452193  -0.070484   0.013183   0.025916  -0.010099
     6  C    0.053316  -0.084054   0.373511  -0.014630   0.002632  -0.001158
     7  C   -0.008509   0.003114  -0.010492   0.378771  -0.106962   0.013459
     8  C   -0.045233   0.051483  -0.030604  -0.018117   0.368330   0.033051
     9  C    0.075411  -0.024846  -0.005739   0.002253   0.090829   0.355769
    10  C    0.421457   0.011271   0.020522  -0.009123  -0.009117   0.005253
    11  C    0.076110  -0.011374  -0.006235   0.002243   0.006022   0.021725
    12  C   -0.083998  -0.010693   0.004952  -0.008165   0.003673  -0.061087
    13  C    0.081292   0.000471  -0.029301   0.022881  -0.029577   0.005118
    14  C   -0.045662  -0.060638   0.099516  -0.030543  -0.033495  -0.057911
    15  H    0.000319  -0.000109   0.000016  -0.000127   0.000561  -0.000837
    16  H   -0.000522   0.000015  -0.000007   0.000008  -0.000129   0.000630
    17  H    0.001467  -0.000145   0.000010  -0.000007   0.000012  -0.000142
    18  H   -0.006308   0.001243  -0.000143   0.000016  -0.000118   0.000180
    19  H    0.443302  -0.006139   0.001378  -0.000554   0.000301   0.000595
    20  H   -0.006139   0.455701  -0.010966   0.001984   0.000033   0.000184
    21  H    0.001378  -0.010966   0.425659  -0.006679   0.001513  -0.000140
    22  H   -0.000554   0.001984  -0.006679   0.422963  -0.009538   0.000635
    23  H    0.000301   0.000033   0.001513  -0.009538   0.445134  -0.000967
    24  H    0.000595   0.000184  -0.000140   0.000635  -0.000967   0.493984
    25  H    0.000595   0.000184  -0.000140   0.000635  -0.000967  -0.079660
              25
     1  C    0.032519
     2  C    0.015243
     3  C   -0.001914
     4  C   -0.014283
     5  C   -0.010099
     6  C   -0.001158
     7  C    0.013459
     8  C    0.033051
     9  C    0.355769
    10  C    0.005253
    11  C    0.021725
    12  C   -0.061087
    13  C    0.005118
    14  C   -0.057911
    15  H   -0.000837
    16  H    0.000630
    17  H   -0.000142
    18  H    0.000180
    19  H    0.000595
    20  H    0.000184
    21  H   -0.000140
    22  H    0.000635
    23  H   -0.000967
    24  H   -0.079660
    25  H    0.493984
 Mulliken charges:
               1
     1  C    0.092638
     2  C   -0.386469
     3  C   -0.430828
     4  C    0.067222
     5  C   -0.053022
     6  C   -0.448714
     7  C   -0.423913
     8  C    0.091740
     9  C   -0.346894
    10  C    0.084832
    11  C   -0.642216
    12  C    0.660423
    13  C   -0.625418
    14  C    0.740140
    15  H    0.240543
    16  H    0.259690
    17  H    0.252985
    18  H    0.222578
    19  H    0.190230
    20  H    0.221899
    21  H    0.244919
    22  H    0.252933
    23  H    0.234994
    24  H    0.249854
    25  H    0.249854
 Sum of Mulliken charges =   1.00000
 Mulliken charges with hydrogens summed into heavy atoms:
               1
     1  C    0.333181
     2  C   -0.126780
     3  C   -0.177843
     4  C    0.289800
     5  C    0.168878
     6  C   -0.203794
     7  C   -0.170979
     8  C    0.326734
     9  C    0.152814
    10  C    0.275062
    11  C   -0.642216
    12  C    0.660423
    13  C   -0.625418
    14  C    0.740140
 Electronic spatial extent (au):  <R**2>=           2855.9232
 Charge=              1.0000 electrons
 Dipole moment (field-independent basis, Debye):
    X=             -0.2627    Y=             -0.8879    Z=             -0.0000  Tot=              0.9259
 Quadrupole moment (field-independent basis, Debye-Ang):
   XX=            -50.6729   YY=            -36.6419   ZZ=            -84.1329
   XY=             10.4928   XZ=              0.0000   YZ=              0.0000
 Traceless Quadrupole moment (field-independent basis, Debye-Ang):
   XX=              6.4763   YY=             20.5073   ZZ=            -26.9836
   XY=             10.4928   XZ=              0.0000   YZ=              0.0000
 Octapole moment (field-independent basis, Debye-Ang**2):
  XXX=             -2.0625  YYY=             -4.3464  ZZZ=              0.0000  XYY=             -4.4425
  XXY=             -8.0003  XXZ=              0.0000  XZZ=             -3.2364  YZZ=              0.4857
  YYZ=             -0.0000  XYZ=             -0.0000
 Hexadecapole moment (field-independent basis, Debye-Ang**3):
 XXXX=           -981.6729 YYYY=          -1860.3692 ZZZZ=            -99.3069 XXXY=           -343.6824
 XXXZ=              0.0000 YYYX=           -271.5714 YYYZ=              0.0000 ZZZX=              0.0000
 ZZZY=             -0.0000 XXYY=           -452.1077 XXZZ=           -241.0643 YYZZ=           -495.3422
 XXYZ=             -0.0000 YYXZ=             -0.0000 ZZXY=           -182.5767
 N-N= 7.812221906069D+02 E-N=-2.798798148828D+03  KE= 5.375208824585D+02
 Symmetry A'   KE= 5.228686033825D+02
 Symmetry A"   KE= 1.465227907604D+01
 Unable to Open any file for archive entry.
 1\1\GINC-GADI-CPU-CLX-2072\SP\RM062X TD-FC\6-311++G(d,p)\C14H11(1+)\TS
 1578\28-Jul-2022\0\\#n M062X/6-311++G(d,p) TD(NStates=1) EmpiricalDisp
 ersion=GD3 SP\\SP_6\\1,1\C,0,0.,2.478255,1.359831\C,0,0.,3.694308,0.66
 7789\C,0,0.,3.679661,-0.72283\C,0,0.,2.473956,-1.410538\C,0,0.,-2.4523
 56,-1.404538\C,0,0.,-3.688061,-0.70483\C,0,0.,-3.708708,0.676189\C,0,0
 .,-2.507055,1.361031\C,0,0.,0.,1.453369\C,0,0.,0.027,-1.429189\C,0,0.,
 1.264455,0.692665\C,0,0.,1.237471,-0.742204\C,0,0.,-1.259655,0.661465\
 C,0,0.,-1.237471,-0.719404\H,0,0.,2.503671,2.443647\H,0,0.,4.635553,1.
 198489\H,0,0.,4.617062,-1.261549\H,0,0.,2.45195,-2.493659\H,0,0.,0.006
 ,-2.510266\H,0,0.,-2.48315,-2.486459\H,0,0.,-4.601462,-1.283149\H,0,0.
 ,-4.637953,1.224889\H,0,0.,-2.472471,2.443647\H,0,-0.859585,-0.0108,2.
 145787\H,0,0.859585,-0.0108,2.145787\\Version=ES64L-G16RevC.01\State=1
 -A'\HF=-539.7570309\RMSD=6.387e-09\PG=CS [SG(C14H9),X(H2)]\\@
 The archive entry for this job was punched.


 IF YOU GIVE A BOY AND A PIG EVERYTHING THEY WANT,
 YOU'LL GET A BAD BOY AND A GOOD PIG.
 Job cpu time:       0 days  0 hours 52 minutes 16.8 seconds.
 Elapsed time:       0 days  0 hours  1 minutes  5.5 seconds.
 File lengths (MBytes):  RWF=    460 Int=      0 D2E=      0 Chk=     15 Scr=      1
 Normal termination of Gaussian 16 at Thu Jul 28 14:27:31 2022.
