 Entering Gaussian System, Link 0=g16
 Initial command:
 /apps/gaussian/g16c01/g16/l1.exe "/jobfs/53005151.gadi-pbs/Gau-4174181.inp" -scrdir="/jobfs/53005151.gadi-pbs/"
 Entering Link 1 = /apps/gaussian/g16c01/g16/l1.exe PID=   4174182.
  
 Copyright (c) 1988-2019, Gaussian, Inc.  All Rights Reserved.
  
 This is part of the Gaussian(R) 16 program.  It is based on
 the Gaussian(R) 09 system (copyright 2009, Gaussian, Inc.),
 the Gaussian(R) 03 system (copyright 2003, Gaussian, Inc.),
 the Gaussian(R) 98 system (copyright 1998, Gaussian, Inc.),
 the Gaussian(R) 94 system (copyright 1995, Gaussian, Inc.),
 the Gaussian 92(TM) system (copyright 1992, Gaussian, Inc.),
 the Gaussian 90(TM) system (copyright 1990, Gaussian, Inc.),
 the Gaussian 88(TM) system (copyright 1988, Gaussian, Inc.),
 the Gaussian 86(TM) system (copyright 1986, Carnegie Mellon
 University), and the Gaussian 82(TM) system (copyright 1983,
 Carnegie Mellon University). Gaussian is a federally registered
 trademark of Gaussian, Inc.
  
 This software contains proprietary and confidential information,
 including trade secrets, belonging to Gaussian, Inc.
  
 This software is provided under written license and may be
 used, copied, transmitted, or stored only in accord with that
 written license.
  
 The following legend is applicable only to US Government
 contracts under FAR:
  
                    RESTRICTED RIGHTS LEGEND
  
 Use, reproduction and disclosure by the US Government is
 subject to restrictions as set forth in subparagraphs (a)
 and (c) of the Commercial Computer Software - Restricted
 Rights clause in FAR 52.227-19.
  
 Gaussian, Inc.
 340 Quinnipiac St., Bldg. 40, Wallingford CT 06492
  
  
 ---------------------------------------------------------------
 Warning -- This program may not be used in any manner that
 competes with the business of Gaussian, Inc. or will provide
 assistance to any competitor of Gaussian, Inc.  The licensee
 of this program is prohibited from giving any competitor of
 Gaussian, Inc. access to this program.  By using this program,
 the user acknowledges that Gaussian, Inc. is engaged in the
 business of creating and licensing software in the field of
 computational chemistry and represents and warrants to the
 licensee that it is not a competitor of Gaussian, Inc. and that
 it will not use this program in any manner prohibited above.
 ---------------------------------------------------------------
  

 Cite this work as:
 Gaussian 16, Revision C.01,
 M. J. Frisch, G. W. Trucks, H. B. Schlegel, G. E. Scuseria, 
 M. A. Robb, J. R. Cheeseman, G. Scalmani, V. Barone, 
 G. A. Petersson, H. Nakatsuji, X. Li, M. Caricato, A. V. Marenich, 
 J. Bloino, B. G. Janesko, R. Gomperts, B. Mennucci, H. P. Hratchian, 
 J. V. Ortiz, A. F. Izmaylov, J. L. Sonnenberg, D. Williams-Young, 
 F. Ding, F. Lipparini, F. Egidi, J. Goings, B. Peng, A. Petrone, 
 T. Henderson, D. Ranasinghe, V. G. Zakrzewski, J. Gao, N. Rega, 
 G. Zheng, W. Liang, M. Hada, M. Ehara, K. Toyota, R. Fukuda, 
 J. Hasegawa, M. Ishida, T. Nakajima, Y. Honda, O. Kitao, H. Nakai, 
 T. Vreven, K. Throssell, J. A. Montgomery, Jr., J. E. Peralta, 
 F. Ogliaro, M. J. Bearpark, J. J. Heyd, E. N. Brothers, K. N. Kudin, 
 V. N. Staroverov, T. A. Keith, R. Kobayashi, J. Normand, 
 K. Raghavachari, A. P. Rendell, J. C. Burant, S. S. Iyengar, 
 J. Tomasi, M. Cossi, J. M. Millam, M. Klene, C. Adamo, R. Cammi, 
 J. W. Ochterski, R. L. Martin, K. Morokuma, O. Farkas, 
 J. B. Foresman, and D. J. Fox, Gaussian, Inc., Wallingford CT, 2019.
 
 ******************************************
 Gaussian 16:  ES64L-G16RevC.01  3-Jul-2019
                28-Jul-2022 
 ******************************************
 %NProcShared=48
 Will use up to   48 processors via shared memory.
 %mem = 190GB
 ---------------------------------------------------------------
 #n M062X/6-311++G(d,p) TD(NStates=1) EmpiricalDispersion=GD3 SP
 ---------------------------------------------------------------
 1/38=1,172=1/1;
 2/12=2,17=6,18=5,40=1/2;
 3/5=4,6=6,7=1111,11=9,25=1,30=1,74=-55,124=31/1,2,3,8;
 4//1;
 5/5=2,38=5/2;
 8/6=1,10=2,108=1/1;
 9/41=1,42=1,70=2/14;
 6/7=2,8=2,9=2,10=2/1;
 99/5=1,9=1/99;
 -----
 SP_-2
 -----
 Symbolic Z-matrix:
 Charge =  1 Multiplicity = 1
 C                     0.        2.50066   1.36103 
 C                     0.        3.70151   0.67299 
 C                     0.        3.68446  -0.71123 
 C                     0.        2.46036  -1.40774 
 C                     0.       -2.46596  -1.40734 
 C                     0.       -3.68326  -0.71643 
 C                     0.       -3.70151   0.67099 
 C                     0.       -2.48466   1.35983 
 C                     0.       -0.0032    1.45337 
 C                     0.       -0.0154   -1.42919 
 C                     0.        1.26326   0.66587 
 C                     0.        1.24107  -0.7198 
 C                     0.       -1.26086   0.68827 
 C                     0.       -1.23387  -0.7418 
 H                     0.        2.47047   2.44365 
 H                     0.        4.63075   1.22209 
 H                     0.        4.60106  -1.28395 
 H                     0.        2.48675  -2.48966 
 H                     0.        0.004    -2.51027 
 H                     0.       -2.44835  -2.49046 
 H                     0.       -4.61746  -1.26075 
 H                     0.       -4.64275   1.20129 
 H                     0.       -2.50567   2.44365 
 H                    -0.85959  -0.0068    2.14579 
 H                     0.85959  -0.0068    2.14579 
 
                          Input orientation:                          
 ---------------------------------------------------------------------
 Center     Atomic      Atomic             Coordinates (Angstroms)
 Number     Number       Type             X           Y           Z
 ---------------------------------------------------------------------
      1          6           0        0.000000    2.500655    1.361031
      2          6           0        0.000000    3.701508    0.672989
      3          6           0        0.000000    3.684461   -0.711230
      4          6           0        0.000000    2.460356   -1.407738
      5          6           0        0.000000   -2.465956   -1.407338
      6          6           0        0.000000   -3.683261   -0.716430
      7          6           0        0.000000   -3.701508    0.670989
      8          6           0        0.000000   -2.484655    1.359831
      9          6           0        0.000000   -0.003200    1.453369
     10          6           0        0.000000   -0.015400   -1.429189
     11          6           0        0.000000    1.263255    0.665865
     12          6           0        0.000000    1.241071   -0.719804
     13          6           0        0.000000   -1.260855    0.688265
     14          6           0        0.000000   -1.233871   -0.741804
     15          1           0        0.000000    2.470471    2.443647
     16          1           0        0.000000    4.630753    1.222089
     17          1           0        0.000000    4.601062   -1.283949
     18          1           0        0.000000    2.486750   -2.489659
     19          1           0        0.000000    0.004000   -2.510266
     20          1           0        0.000000   -2.448350   -2.490459
     21          1           0        0.000000   -4.617462   -1.260749
     22          1           0        0.000000   -4.642753    1.201289
     23          1           0        0.000000   -2.505671    2.443647
     24          1           0       -0.859585   -0.006800    2.145787
     25          1           0        0.859585   -0.006800    2.145787
 ---------------------------------------------------------------------
                    Distance matrix (angstroms):
                    1          2          3          4          5
     1  C    0.000000
     2  C    1.383998   0.000000
     3  C    2.386559   1.384324   0.000000
     4  C    2.769062   2.422784   1.408388   0.000000
     5  C    5.686044   6.508869   6.189685   4.926312   0.000000
     6  C    6.523547   7.514340   7.367724   6.182389   1.399709
     7  C    6.240431   7.403016   7.514191   6.503051   2.417857
     8  C    4.985310   6.224176   6.507479   5.666796   2.767232
     9  C    2.505557   3.786008   4.276018   3.775585   3.774760
    10  C    3.757108   4.270194   3.768877   2.475849   2.450653
    11  C    1.419301   2.438263   2.785432   2.394343   4.266753
    12  C    2.432370   2.827300   2.443405   1.399968   3.770246
    13  C    3.821200   4.962387   5.139527   4.270906   2.417400
    14  C    4.285860   5.134161   4.918427   3.753769   1.400346
    15  H    1.083037   2.156544   3.380388   3.851398   6.260862
    16  H    2.134625   1.079355   2.152485   3.409782   7.568168
    17  H    3.377518   2.153788   1.080817   2.144282   7.068095
    18  H    3.850715   3.387917   2.144137   1.082243   5.069587
    19  H    4.606542   4.879004   4.096623   2.692444   2.705020
    20  H    6.271094   6.915790   6.385689   5.026697   1.083264
    21  H    7.585600   8.540761   8.320090   7.079344   2.156494
    22  H    7.145194   8.360968   8.544017   7.567112   3.397555
    23  H    5.122046   6.454789   6.947732   6.284472   3.851190
    24  H    2.764427   4.081613   4.746245   4.410588   4.405795
    25  H    2.764427   4.081613   4.746245   4.410588   4.405795
                    6          7          8          9         10
     6  C    0.000000
     7  C    1.387539   0.000000
     8  C    2.397398   1.398297   0.000000
     9  C    4.272104   3.780159   2.483217   0.000000
    10  C    3.736473   4.242421   3.725031   2.882584   0.000000
    11  C    5.136026   4.964766   3.811616   1.491332   2.454427
    12  C    4.924333   5.134529   4.266839   2.504175   1.442895
    13  C    2.800218   2.440714   1.395954   1.472101   2.456577
    14  C    2.449521   2.843451   2.445676   2.516612   1.398989
    15  H    6.917695   6.421498   5.072271   2.664526   4.602001
    16  H    8.537018   8.350466   7.116741   4.639721   5.349394
    17  H    8.303739   8.529622   7.562867   5.356504   4.618746
    18  H    6.419765   6.948686   6.287562   4.663402   2.717600
    19  H    4.100456   4.883766   4.601201   3.963642   1.081251
    20  H    2.161524   3.400759   3.850461   4.640317   2.654344
    21  H    1.081210   2.137892   3.378802   5.353303   4.605144
    22  H    2.144358   1.080352   2.163914   4.646396   5.322763
    23  H    3.372359   2.138304   1.084020   2.691284   4.604379
    24  H    4.737883   4.069986   2.737952   1.103785   3.676876
    25  H    4.737883   4.069986   2.737952   1.103785   3.676876
                   11         12         13         14         15
    11  C    0.000000
    12  C    1.385847   0.000000
    13  C    2.524209   2.870939   0.000000
    14  C    2.866561   2.475040   1.430324   0.000000
    15  H    2.148925   3.393943   4.123610   4.885616   0.000000
    16  H    3.413126   3.906519   5.915743   6.184714   2.481738
    17  H    3.865583   3.407022   6.184796   5.860065   4.293529
    18  H    3.384416   2.164279   4.913628   4.110720   4.933333
    19  H    3.416655   2.176258   3.439543   2.158653   5.533962
    20  H    4.872206   4.092316   3.393292   2.129026   6.967080
    21  H    6.188269   5.883454   3.881426   3.423155   7.997584
    22  H    5.930228   6.189506   3.420589   3.923785   7.220901
    23  H    4.167171   4.903621   2.151960   3.429952   4.976142
    24  H    2.131219   3.241555   2.106160   3.253117   2.639030
    25  H    2.131219   3.241555   2.106160   3.253117   2.639030
                   16         17         18         19         20
    16  H    0.000000
    17  H    2.506214   0.000000
    18  H    4.286470   2.433938   0.000000
    19  H    5.944520   4.757818   2.482836   0.000000
    20  H    7.993542   7.151914   4.935100   2.452430   0.000000
    21  H    9.575697   9.218553   7.209719   4.787401   2.493438
    22  H    9.273529   9.572070   8.028257   5.947096   4.294695
    23  H    7.240218   8.025000   7.018673   5.553351   4.934439
    24  H    4.806142   5.808129   5.333295   4.734747   5.309880
    25  H    4.806142   5.808129   5.333295   4.734747   5.309880
                   21         22         23         24         25
    21  H    0.000000
    22  H    2.462168   0.000000
    23  H    4.264060   2.471957   0.000000
    24  H    5.796687   4.808640   2.659316   0.000000
    25  H    5.796687   4.808640   2.659316   1.719170   0.000000
 Stoichiometry    C14H11(1+)
 Framework group  CS[SG(C14H9),X(H2)]
 Deg. of freedom    46
 Full point group                 CS      NOp   2
 Largest Abelian subgroup         CS      NOp   2
 Largest concise Abelian subgroup CS      NOp   2
                         Standard orientation:                         
 ---------------------------------------------------------------------
 Center     Atomic      Atomic             Coordinates (Angstroms)
 Number     Number       Type             X           Y           Z
 ---------------------------------------------------------------------
      1          6           0        0.038070    2.846971    0.000000
      2          6           0       -1.130492    3.588532    0.000000
      3          6           0       -2.347110    2.928082    0.000000
      4          6           0       -2.392566    1.520428    0.000000
      5          6           0       -0.095402   -2.837506    0.000000
      6          6           0        1.083365   -3.592285    0.000000
      7          6           0        2.319269   -2.961567    0.000000
      8          6           0        2.361325   -1.563903    0.000000
      9          6           0        1.287138    0.674957    0.000000
     10          6           0       -1.257263   -0.679780    0.000000
     11          6           0        0.000000    1.428181    0.000000
     12          6           0       -1.215506    0.762511    0.000000
     13          6           0        1.196640   -0.794360    0.000000
     14          6           0       -0.081069   -1.437233    0.000000
     15          1           0        1.009892    3.325019    0.000000
     16          1           0       -1.077969    4.666608    0.000000
     17          1           0       -3.281122    3.471944    0.000000
     18          1           0       -3.362006    1.039351    0.000000
     19          1           0       -2.222696   -1.166651    0.000000
     20          1           0       -1.061807   -3.326918    0.000000
     21          1           0        1.037382   -4.672517    0.000000
     22          1           0        3.227245   -3.547008    0.000000
     23          1           0        3.329934   -1.077184    0.000000
     24          1           0        1.901372    0.994600    0.859585
     25          1           0        1.901372    0.994600   -0.859585
 ---------------------------------------------------------------------
 Rotational constants (GHZ):           2.1361712           0.4446240           0.3688234
 Standard basis: 6-311++G(d,p) (5D, 7F)
 There are   299 symmetry adapted cartesian basis functions of A'  symmetry.
 There are   100 symmetry adapted cartesian basis functions of A"  symmetry.
 There are   285 symmetry adapted basis functions of A'  symmetry.
 There are   100 symmetry adapted basis functions of A"  symmetry.
   385 basis functions,   603 primitive gaussians,   399 cartesian basis functions
    47 alpha electrons       47 beta electrons
       nuclear repulsion energy       781.2090079941 Hartrees.
 NAtoms=   25 NActive=   25 NUniq=   24 SFac= 1.09D+00 NAtFMM=   60 NAOKFM=F Big=F
 Integral buffers will be    131072 words long.
 Regular integral format.
 Two-electron integral symmetry is turned on.
 Nuclear repulsion after empirical dispersion term =      781.2080284944 Hartrees.
 One-electron integrals computed using PRISM.
 NBasis=   385 RedAO= T EigKep=  1.10D-06  NBF=   285   100
 NBsUse=   379 1.00D-06 EigRej=  8.37D-07 NBFU=   279   100
 ExpMin= 3.60D-02 ExpMax= 4.56D+03 ExpMxC= 6.82D+02 IAcc=3 IRadAn=         5 AccDes= 0.00D+00
 Harris functional with IExCor= 1009 and IRadAn=       5 diagonalized for initial guess.
 HarFok:  IExCor= 1009 AccDes= 0.00D+00 IRadAn=         5 IDoV= 1 UseB2=F ITyADJ=14
 ICtDFT=  3500011 ScaDFX=  1.000000  1.000000  1.000000  1.000000
 FoFCou: FMM=F IPFlag=           0 FMFlag=      100000 FMFlg1=           0
         NFxFlg=           0 DoJE=T BraDBF=F KetDBF=T FulRan=T
         wScrn=  0.000000 ICntrl=       500 IOpCl=  0 I1Cent=   200000004 NGrid=           0
         NMat0=    1 NMatS0=      1 NMatT0=    0 NMatD0=    1 NMtDS0=    0 NMtDT0=    0
 Petite list used in FoFCou.
 Initial guess orbital symmetries:
       Occupied  (A') (A') (A') (A') (A') (A') (A') (A') (A') (A')
                 (A') (A') (A') (A') (A') (A') (A') (A') (A') (A')
                 (A') (A') (A') (A') (A') (A') (A') (A') (A') (A')
                 (A') (A') (A") (A') (A') (A') (A') (A') (A') (A")
                 (A") (A') (A') (A") (A") (A") (A")
       Virtual   (A") (A") (A") (A") (A") (A') (A') (A') (A') (A")
                 (A") (A') (A') (A') (A") (A') (A') (A') (A') (A")
                 (A') (A") (A') (A') (A') (A") (A') (A") (A') (A')
                 (A') (A') (A') (A") (A') (A') (A") (A') (A') (A")
                 (A') (A') (A') (A") (A') (A') (A') (A') (A') (A")
                 (A') (A") (A') (A") (A') (A') (A') (A") (A") (A')
                 (A') (A') (A') (A') (A') (A') (A") (A') (A') (A")
                 (A') (A') (A') (A') (A') (A') (A') (A') (A') (A')
                 (A') (A') (A') (A') (A') (A') (A') (A') (A') (A')
                 (A') (A') (A') (A') (A') (A') (A') (A") (A') (A")
                 (A') (A') (A") (A") (A') (A") (A") (A') (A') (A")
                 (A") (A') (A') (A') (A") (A') (A') (A") (A") (A')
                 (A") (A") (A') (A') (A') (A") (A') (A') (A') (A")
                 (A') (A') (A') (A') (A') (A') (A") (A') (A') (A')
                 (A') (A') (A') (A') (A') (A') (A') (A') (A') (A")
                 (A") (A') (A") (A") (A') (A') (A') (A") (A") (A')
                 (A") (A') (A") (A") (A") (A') (A') (A') (A') (A')
                 (A') (A") (A") (A') (A') (A') (A') (A') (A') (A")
                 (A') (A') (A') (A') (A') (A") (A") (A') (A") (A")
                 (A') (A") (A') (A") (A') (A') (A') (A") (A') (A')
                 (A") (A") (A") (A') (A') (A") (A') (A") (A') (A')
                 (A") (A") (A') (A") (A') (A") (A') (A') (A') (A")
                 (A') (A') (A') (A') (A") (A') (A') (A') (A") (A")
                 (A') (A') (A') (A") (A') (A') (A") (A') (A") (A')
                 (A") (A') (A') (A') (A') (A") (A') (A') (A') (A")
                 (A') (A') (A') (A") (A") (A') (A') (A") (A') (A')
                 (A') (A") (A') (A") (A') (A') (A') (A") (A') (A")
                 (A') (A') (A') (A') (A") (A') (A") (A') (A") (A')
                 (A") (A') (A") (A") (A") (A') (A') (A') (A') (A')
                 (A') (A') (A') (A') (A') (A') (A') (A') (A') (A')
                 (A') (A') (A') (A') (A") (A') (A') (A') (A') (A')
                 (A') (A') (A') (A') (A') (A') (A') (A') (A') (A')
                 (A') (A') (A') (A') (A') (A') (A') (A') (A') (A')
                 (A') (A')
 The electronic state of the initial guess is 1-A'.
 Requested convergence on RMS density matrix=1.00D-08 within 128 cycles.
 Requested convergence on MAX density matrix=1.00D-06.
 Requested convergence on             energy=1.00D-06.
 No special actions if energy rises.
 SCF Done:  E(RM062X) =  -539.758446448     A.U. after   15 cycles
            NFock= 15  Conv=0.46D-08     -V/T= 2.0042
 DoSCS=F DFT=T ScalE2(SS,OS)=  1.000000  1.000000
 ExpMin= 3.60D-02 ExpMax= 4.56D+03 ExpMxC= 6.82D+02 IAcc=3 IRadAn=         5 AccDes= 0.00D+00
 HarFok:  IExCor=  205 AccDes= 0.00D+00 IRadAn=         5 IDoV=-2 UseB2=F ITyADJ=14
 ICtDFT= 12500011 ScaDFX=  1.000000  1.000000  1.000000  1.000000
 Range of M.O.s used for correlation:    15   379
 NBasis=   385 NAE=    47 NBE=    47 NFC=    14 NFV=     0
 NROrb=    365 NOA=    33 NOB=    33 NVA=   332 NVB=   332

 **** Warning!!: The largest alpha MO coefficient is  0.14608565D+03

 Orbital symmetries:
       Occupied  (A') (A') (A') (A') (A') (A') (A') (A') (A') (A')
                 (A') (A') (A') (A') (A') (A') (A') (A') (A') (A')
                 (A') (A') (A') (A') (A') (A') (A') (A') (A') (A')
                 (A') (A") (A') (A') (A') (A') (A') (A") (A") (A')
                 (A') (A') (A') (A") (A") (A") (A")
       Virtual   (A") (A") (A") (A") (A') (A') (A') (A') (A") (A')
                 (A') (A") (A') (A') (A") (A') (A") (A') (A') (A')
                 (A") (A") (A') (A') (A') (A") (A') (A") (A') (A')
                 (A") (A') (A") (A') (A') (A') (A') (A') (A") (A')
                 (A") (A') (A') (A") (A") (A') (A") (A') (A") (A')
                 (A') (A') (A') (A') (A') (A") (A') (A') (A') (A')
                 (A') (A") (A') (A') (A') (A") (A') (A') (A') (A')
                 (A') (A') (A') (A') (A') (A') (A') (A') (A') (A')
                 (A') (A') (A') (A') (A') (A') (A') (A') (A') (A')
                 (A') (A') (A') (A') (A") (A') (A") (A") (A') (A")
                 (A') (A') (A') (A') (A") (A") (A') (A") (A") (A')
                 (A') (A') (A") (A') (A') (A") (A') (A") (A') (A")
                 (A") (A') (A") (A') (A') (A') (A") (A') (A') (A')
                 (A') (A') (A') (A') (A') (A') (A') (A') (A') (A')
                 (A') (A') (A') (A") (A') (A') (A') (A') (A') (A')
                 (A') (A') (A") (A') (A") (A') (A") (A") (A') (A")
                 (A") (A') (A') (A") (A") (A") (A') (A") (A') (A')
                 (A') (A') (A') (A") (A") (A') (A') (A') (A') (A")
                 (A') (A') (A') (A") (A') (A") (A') (A') (A") (A")
                 (A") (A') (A') (A") (A') (A") (A') (A') (A') (A')
                 (A") (A") (A") (A') (A') (A") (A') (A") (A') (A')
                 (A') (A") (A') (A") (A") (A') (A") (A') (A') (A")
                 (A') (A') (A') (A') (A") (A') (A') (A') (A") (A")
                 (A') (A') (A') (A") (A') (A') (A') (A") (A") (A')
                 (A") (A') (A') (A") (A') (A') (A') (A') (A') (A')
                 (A") (A') (A') (A') (A') (A") (A") (A") (A') (A')
                 (A') (A') (A') (A') (A') (A') (A') (A") (A') (A')
                 (A') (A") (A') (A") (A") (A") (A') (A") (A') (A")
                 (A') (A") (A") (A') (A") (A") (A') (A') (A') (A')
                 (A') (A') (A') (A') (A') (A') (A') (A') (A') (A')
                 (A') (A') (A') (A") (A') (A') (A') (A') (A') (A')
                 (A') (A') (A') (A') (A') (A') (A') (A') (A') (A')
                 (A') (A') (A') (A') (A') (A') (A') (A') (A') (A')
                 (A') (A')
     4 initial guesses have been made.
 Convergence on wavefunction:    0.001000000000000
 Iteration     1 Dimension     4 NMult     0 NNew      4
 CISAX will form     4 AO SS matrices at one time.
 Iteration     2 Dimension     6 NMult     4 NNew      2
 Iteration     3 Dimension     8 NMult     6 NNew      2
 Iteration     4 Dimension    10 NMult     8 NNew      2
 Iteration     5 Dimension    12 NMult    10 NNew      2
 Iteration     6 Dimension    14 NMult    12 NNew      2
 ***********************************************************************
 Excited states from <AA,BB:AA,BB> singles matrix:
 ***********************************************************************
 
 Ground to excited state transition densities written to RWF  633
 Ground to excited state transition electric dipole moments (Au):
       state          X           Y           Z        Dip. S.      Osc.
         1         0.5863      0.2348     -0.0000      0.3989      0.0275
 Ground to excited state transition velocity dipole moments (Au):
       state          X           Y           Z        Dip. S.      Osc.
         1        -0.0679     -0.0267     -0.0000      0.0053      0.0343
 Ground to excited state transition magnetic dipole moments (Au):
       state          X           Y           Z
         1        -0.0000      0.0000     -0.0442
 Ground to excited state transition velocity quadrupole moments (Au):
       state          XX          YY          ZZ          XY          XZ          YZ
         1         0.0970      0.2281     -0.0097     -0.1110      0.0000      0.0000
 <0|del|b> * <b|rxdel|0> + <0|del|b> * <b|delr+rdel|0>
 Rotatory Strengths (R) in cgs (10**-40 erg-esu-cm/Gauss)
       state          XX          YY          ZZ    R(velocity)    E-M Angle
         1         0.0000     -0.0000      0.0000      0.0000       90.00
 1/2[<0|r|b>*<b|rxdel|0> + (<0|rxdel|b>*<b|r|0>)*]
 Rotatory Strengths (R) in cgs (10**-40 erg-esu-cm/Gauss)
       state          XX          YY          ZZ     R(length)
         1         0.0000     -0.0000     -0.0000      0.0000
  1/2[<0|del|b>*<b|r|0> + (<0|r|b>*<b|del|0>)*] (Au)
       state          X           Y           Z        Dip. S.   Osc.(frdel)
         1        -0.0398     -0.0063      0.0000      0.0461      0.0307

 Excitation energies and oscillator strengths:
 
 Excited State   1:      Singlet-A'     2.8104 eV  441.16 nm  f=0.0275  <S**2>=0.000
      47 -> 48         0.70380
 This state for optimization and/or second-order correction.
 Total Energy, E(TD-HF/TD-DFT) =  -539.655165522    
 Copying the excited state density for this state as the 1-particle RhoCI density.
 SavETr:  write IOETrn=   770 NScale= 10 NData=  16 NLR=1 NState=    1 LETran=      28.

 **********************************************************************

            Population analysis using the SCF Density.

 **********************************************************************

 Orbital symmetries:
       Occupied  (A') (A') (A') (A') (A') (A') (A') (A') (A') (A')
                 (A') (A') (A') (A') (A') (A') (A') (A') (A') (A')
                 (A') (A') (A') (A') (A') (A') (A') (A') (A') (A')
                 (A') (A") (A') (A') (A') (A') (A') (A") (A") (A')
                 (A') (A') (A') (A") (A") (A") (A")
       Virtual   (A") (A") (A") (A") (A') (A') (A') (A') (A") (A')
                 (A') (A") (A') (A') (A") (A') (A") (A') (A') (A')
                 (A") (A") (A') (A') (A') (A") (A') (A") (A') (A')
                 (A") (A') (A") (A') (A') (A') (A') (A') (A") (A')
                 (A") (A') (A') (A") (A") (A') (A") (A') (A") (A')
                 (A') (A') (A') (A') (A') (A") (A') (A') (A') (A')
                 (A') (A") (A') (A') (A') (A") (A') (A') (A') (A')
                 (A') (A') (A') (A') (A') (A') (A') (A') (A') (A')
                 (A') (A') (A') (A') (A') (A') (A') (A') (A') (A')
                 (A') (A') (A') (A') (A") (A') (A") (A") (A') (A")
                 (A') (A') (A') (A') (A") (A") (A') (A") (A") (A')
                 (A') (A') (A") (A') (A') (A") (A') (A") (A') (A")
                 (A") (A') (A") (A') (A') (A') (A") (A') (A') (A')
                 (A') (A') (A') (A') (A') (A') (A') (A') (A') (A')
                 (A') (A') (A') (A") (A') (A') (A') (A') (A') (A')
                 (A') (A') (A") (A') (A") (A') (A") (A") (A') (A")
                 (A") (A') (A') (A") (A") (A") (A') (A") (A') (A')
                 (A') (A') (A') (A") (A") (A') (A') (A') (A') (A")
                 (A') (A') (A') (A") (A') (A") (A') (A') (A") (A")
                 (A") (A') (A') (A") (A') (A") (A') (A') (A') (A')
                 (A") (A") (A") (A') (A') (A") (A') (A") (A') (A')
                 (A') (A") (A') (A") (A") (A') (A") (A') (A') (A")
                 (A') (A') (A') (A') (A") (A') (A') (A') (A") (A")
                 (A') (A') (A') (A") (A') (A') (A') (A") (A") (A')
                 (A") (A') (A') (A") (A') (A') (A') (A') (A') (A')
                 (A") (A') (A') (A') (A') (A") (A") (A") (A') (A')
                 (A') (A') (A') (A') (A') (A') (A') (A") (A') (A')
                 (A') (A") (A') (A") (A") (A") (A') (A") (A') (A")
                 (A') (A") (A") (A') (A") (A") (A') (A') (A') (A')
                 (A') (A') (A') (A') (A') (A') (A') (A') (A') (A')
                 (A') (A') (A') (A") (A') (A') (A') (A') (A') (A')
                 (A') (A') (A') (A') (A') (A') (A') (A') (A') (A')
                 (A') (A') (A') (A') (A') (A') (A') (A') (A') (A')
                 (A') (A')
 The electronic state is 1-A'.
 Alpha  occ. eigenvalues --  -10.77632 -10.73603 -10.72854 -10.72631 -10.72209
 Alpha  occ. eigenvalues --  -10.71796 -10.71582 -10.70975 -10.70952 -10.70442
 Alpha  occ. eigenvalues --  -10.70206 -10.69924 -10.69737 -10.69342  -1.16457
 Alpha  occ. eigenvalues --   -1.12465  -1.06966  -1.05777  -1.01287  -1.00177
 Alpha  occ. eigenvalues --   -0.95786  -0.91081  -0.86404  -0.85891  -0.83797
 Alpha  occ. eigenvalues --   -0.78402  -0.76036  -0.74414  -0.69772  -0.69156
 Alpha  occ. eigenvalues --   -0.68469  -0.68108  -0.68107  -0.64862  -0.64185
 Alpha  occ. eigenvalues --   -0.63004  -0.61851  -0.60066  -0.59629  -0.59190
 Alpha  occ. eigenvalues --   -0.56840  -0.55283  -0.54673  -0.52455  -0.46685
 Alpha  occ. eigenvalues --   -0.46068  -0.44432
 Alpha virt. eigenvalues --   -0.26100  -0.14672  -0.14077  -0.12761  -0.11182
 Alpha virt. eigenvalues --   -0.10089  -0.09238  -0.07982  -0.07956  -0.07476
 Alpha virt. eigenvalues --   -0.07205  -0.07140  -0.05643  -0.05581  -0.05339
 Alpha virt. eigenvalues --   -0.03832  -0.03650  -0.03279  -0.03132  -0.02163
 Alpha virt. eigenvalues --   -0.01365  -0.00931   0.00189   0.00580   0.00654
 Alpha virt. eigenvalues --    0.01056   0.01512   0.01913   0.02195   0.02287
 Alpha virt. eigenvalues --    0.02454   0.02675   0.02777   0.03294   0.03383
 Alpha virt. eigenvalues --    0.04237   0.04528   0.04712   0.05035   0.05365
 Alpha virt. eigenvalues --    0.06035   0.06292   0.06595   0.07045   0.07256
 Alpha virt. eigenvalues --    0.07889   0.08119   0.08353   0.08590   0.08917
 Alpha virt. eigenvalues --    0.09473   0.09617   0.09970   0.10810   0.11020
 Alpha virt. eigenvalues --    0.11121   0.12140   0.12243   0.12846   0.12962
 Alpha virt. eigenvalues --    0.13420   0.13528   0.14011   0.14474   0.16046
 Alpha virt. eigenvalues --    0.16363   0.16426   0.17341   0.17639   0.17847
 Alpha virt. eigenvalues --    0.18122   0.19015   0.19319   0.19663   0.19732
 Alpha virt. eigenvalues --    0.21550   0.21592   0.22716   0.23116   0.23551
 Alpha virt. eigenvalues --    0.23849   0.24567   0.25381   0.26904   0.27641
 Alpha virt. eigenvalues --    0.28791   0.29366   0.29895   0.31376   0.35580
 Alpha virt. eigenvalues --    0.36668   0.38168   0.39248   0.41173   0.41364
 Alpha virt. eigenvalues --    0.41971   0.42196   0.42992   0.43701   0.44312
 Alpha virt. eigenvalues --    0.44573   0.45249   0.46046   0.46372   0.47940
 Alpha virt. eigenvalues --    0.48505   0.48859   0.49004   0.50446   0.51101
 Alpha virt. eigenvalues --    0.51566   0.51722   0.52130   0.52930   0.54021
 Alpha virt. eigenvalues --    0.54086   0.54611   0.55689   0.55822   0.57471
 Alpha virt. eigenvalues --    0.58238   0.58833   0.61446   0.62103   0.62470
 Alpha virt. eigenvalues --    0.63225   0.63512   0.64909   0.65197   0.67222
 Alpha virt. eigenvalues --    0.70420   0.70602   0.71045   0.72382   0.72845
 Alpha virt. eigenvalues --    0.75766   0.76017   0.76254   0.76896   0.77139
 Alpha virt. eigenvalues --    0.77674   0.78030   0.78243   0.79889   0.80398
 Alpha virt. eigenvalues --    0.81200   0.81713   0.82187   0.83030   0.85166
 Alpha virt. eigenvalues --    0.87181   0.88193   0.88598   0.89137   0.90420
 Alpha virt. eigenvalues --    0.91096   0.91225   0.93239   0.94641   0.96447
 Alpha virt. eigenvalues --    0.96668   1.00417   1.01253   1.01568   1.02829
 Alpha virt. eigenvalues --    1.03183   1.03893   1.04792   1.05398   1.08808
 Alpha virt. eigenvalues --    1.19493   1.23241   1.23995   1.25263   1.28019
 Alpha virt. eigenvalues --    1.29677   1.31793   1.34330   1.35816   1.36004
 Alpha virt. eigenvalues --    1.39154   1.40334   1.40893   1.42947   1.43507
 Alpha virt. eigenvalues --    1.43585   1.44961   1.45577   1.46219   1.46728
 Alpha virt. eigenvalues --    1.47716   1.48031   1.51728   1.53624   1.55344
 Alpha virt. eigenvalues --    1.55779   1.56298   1.56816   1.57950   1.61464
 Alpha virt. eigenvalues --    1.63197   1.63315   1.63919   1.66086   1.68253
 Alpha virt. eigenvalues --    1.68290   1.68757   1.69683   1.74389   1.76044
 Alpha virt. eigenvalues --    1.77131   1.78199   1.79966   1.80087   1.80776
 Alpha virt. eigenvalues --    1.83074   1.83220   1.83671   1.83800   1.84204
 Alpha virt. eigenvalues --    1.84436   1.85836   1.86124   1.88214   1.91367
 Alpha virt. eigenvalues --    1.91870   1.94316   1.95326   1.97564   1.98299
 Alpha virt. eigenvalues --    1.99733   2.02455   2.04435   2.07269   2.11788
 Alpha virt. eigenvalues --    2.12107   2.14162   2.15223   2.19110   2.21242
 Alpha virt. eigenvalues --    2.22872   2.28569   2.30128   2.34660   2.34879
 Alpha virt. eigenvalues --    2.36189   2.38541   2.39690   2.42185   2.44692
 Alpha virt. eigenvalues --    2.46174   2.46533   2.49106   2.53155   2.53995
 Alpha virt. eigenvalues --    2.54239   2.56741   2.57907   2.58329   2.59561
 Alpha virt. eigenvalues --    2.59861   2.61432   2.61885   2.63448   2.63883
 Alpha virt. eigenvalues --    2.64865   2.65028   2.65117   2.65611   2.67715
 Alpha virt. eigenvalues --    2.69123   2.70933   2.71327   2.73371   2.74817
 Alpha virt. eigenvalues --    2.76298   2.78779   2.79727   2.82739   2.83086
 Alpha virt. eigenvalues --    2.85013   2.86286   2.92135   2.96991   2.99150
 Alpha virt. eigenvalues --    3.00416   3.04908   3.11023   3.11362   3.13203
 Alpha virt. eigenvalues --    3.20460   3.23572   3.26505   3.28617   3.30709
 Alpha virt. eigenvalues --    3.32695   3.34280   3.43234   3.46087   3.46436
 Alpha virt. eigenvalues --    3.48123   3.50590   3.56496   3.65904   3.66101
 Alpha virt. eigenvalues --    3.68554   3.94098   3.94393   3.95279   3.96204
 Alpha virt. eigenvalues --    4.03912   4.06674   4.07554   4.12468   4.35410
 Alpha virt. eigenvalues --    4.61141   4.69288   4.71877  23.45265  23.60210
 Alpha virt. eigenvalues --   23.81042  23.83867  23.86392  23.89455  23.92357
 Alpha virt. eigenvalues --   23.93586  23.98378  23.99537  24.00263  24.02062
 Alpha virt. eigenvalues --   24.09828  24.11703
          Condensed to atoms (all electrons):
               1          2          3          4          5          6
     1  C    8.593963   0.215560  -0.483966   2.006275  -0.078266  -0.098776
     2  C    0.215560   7.207595   0.273244  -1.126160  -0.002443  -0.015255
     3  C   -0.483966   0.273244   6.570682   0.836739  -0.140569   0.016897
     4  C    2.006275  -1.126160   0.836739  10.448910  -0.413174  -0.115037
     5  C   -0.078266  -0.002443  -0.140569  -0.413174  11.916480   0.733145
     6  C   -0.098776  -0.015255   0.016897  -0.115037   0.733145   6.623201
     7  C   -0.004894   0.000444  -0.013283  -0.021013  -1.103011   0.412544
     8  C    0.404287  -0.028719  -0.094354   0.002272   2.086510  -0.580791
     9  C   -1.057397  -0.787602   0.303482  -0.254110  -0.129970   0.290196
    10  C   -1.298470   0.268515  -0.377458  -2.446792  -2.751493  -0.324331
    11  C    0.420466  -1.080701   1.146044   0.344742  -1.739404  -0.226751
    12  C   -2.372482   1.651488  -1.529021  -1.921752  -0.268865  -0.128065
    13  C    0.329019  -0.316595  -0.115412  -1.196360  -0.952207   0.850066
    14  C   -1.068721  -0.118826  -0.270758  -0.458424  -1.555273  -1.313479
    15  H    0.367567  -0.105638   0.001531   0.025336   0.005674   0.001167
    16  H   -0.018550   0.379632  -0.015571   0.014171  -0.001582  -0.000341
    17  H   -0.028023  -0.013470   0.375649  -0.070766   0.000274   0.000417
    18  H    0.050449   0.003255  -0.084177   0.454090   0.005431  -0.005092
    19  H   -0.044814  -0.008190   0.052829  -0.054426  -0.086781   0.049359
    20  H    0.007147   0.002236  -0.005142   0.006144   0.465557  -0.084694
    21  H   -0.001249  -0.000403   0.000383   0.000319  -0.066593   0.374147
    22  H    0.000836   0.000376  -0.000314  -0.001449   0.012394  -0.018148
    23  H    0.004924  -0.002648   0.001021   0.005407   0.031249  -0.003893
    24  H    0.034411   0.013972  -0.001110  -0.009971  -0.014548  -0.001965
    25  H    0.034411   0.013972  -0.001110  -0.009971  -0.014548  -0.001965
               7          8          9         10         11         12
     1  C   -0.004894   0.404287  -1.057397  -1.298470   0.420466  -2.372482
     2  C    0.000444  -0.028719  -0.787602   0.268515  -1.080701   1.651488
     3  C   -0.013283  -0.094354   0.303482  -0.377458   1.146044  -1.529021
     4  C   -0.021013   0.002272  -0.254110  -2.446792   0.344742  -1.921752
     5  C   -1.103011   2.086510  -0.129970  -2.751493  -1.739404  -0.268865
     6  C    0.412544  -0.580791   0.290196  -0.324331  -0.226751  -0.128065
     7  C    7.124835   0.334478  -0.855052   0.243146  -0.200075  -0.250040
     8  C    0.334478   8.686306  -1.210201  -1.306610   0.121162  -1.104281
     9  C   -0.855052  -1.210201   9.636866   0.257122   1.699798  -1.927092
    10  C    0.243146  -1.306610   0.257122   9.124739  -0.564003   2.555790
    11  C   -0.200075   0.121162   1.699798  -0.564003  14.192693  -3.944395
    12  C   -0.250040  -1.104281  -1.927092   2.555790  -3.944395  16.492910
    13  C   -0.704539   0.172197   1.448596  -0.273744   1.025081  -4.914328
    14  C    1.148457  -1.984038  -1.989156   2.348709  -4.609314   3.121285
    15  H   -0.002530   0.006602   0.089730  -0.008659  -0.029589  -0.029183
    16  H    0.000349   0.000586   0.002302  -0.009484   0.023548  -0.031210
    17  H   -0.000396  -0.001387  -0.005501   0.020461  -0.028511   0.096702
    18  H    0.001923   0.007142  -0.024359   0.010214  -0.000671  -0.057217
    19  H   -0.007192  -0.048794   0.075662   0.421707   0.079606  -0.053779
    20  H    0.002084   0.051495  -0.024791   0.012406  -0.011658  -0.016869
    21  H   -0.018176  -0.023567  -0.006066   0.019983  -0.006366   0.005486
    22  H    0.379077  -0.020778   0.004002  -0.008761   0.003486  -0.009362
    23  H   -0.108987   0.369442   0.094437  -0.010716   0.000306   0.007812
    24  H    0.014883   0.030998   0.356163   0.005322   0.008614  -0.058303
    25  H    0.014883   0.030998   0.356163   0.005322   0.008614  -0.058303
              13         14         15         16         17         18
     1  C    0.329019  -1.068721   0.367567  -0.018550  -0.028023   0.050449
     2  C   -0.316595  -0.118826  -0.105638   0.379632  -0.013470   0.003255
     3  C   -0.115412  -0.270758   0.001531  -0.015571   0.375649  -0.084177
     4  C   -1.196360  -0.458424   0.025336   0.014171  -0.070766   0.454090
     5  C   -0.952207  -1.555273   0.005674  -0.001582   0.000274   0.005431
     6  C    0.850066  -1.313479   0.001167  -0.000341   0.000417  -0.005092
     7  C   -0.704539   1.148457  -0.002530   0.000349  -0.000396   0.001923
     8  C    0.172197  -1.984038   0.006602   0.000586  -0.001387   0.007142
     9  C    1.448596  -1.989156   0.089730   0.002302  -0.005501  -0.024359
    10  C   -0.273744   2.348709  -0.008659  -0.009484   0.020461   0.010214
    11  C    1.025081  -4.609314  -0.029589   0.023548  -0.028511  -0.000671
    12  C   -4.914328   3.121285  -0.029183  -0.031210   0.096702  -0.057217
    13  C   14.691522  -3.464642   0.003870   0.002496  -0.006262  -0.011410
    14  C   -3.464642  15.792452   0.004527  -0.008656   0.005036  -0.013038
    15  H    0.003870   0.004527   0.443424  -0.009473   0.001556   0.000073
    16  H    0.002496  -0.008656  -0.009473   0.421728  -0.006826   0.001998
    17  H   -0.006262   0.005036   0.001556  -0.006826   0.425299  -0.011014
    18  H   -0.011410  -0.013038   0.000073   0.001998  -0.011014   0.454401
    19  H    0.076306  -0.076042   0.000317  -0.000562   0.001445  -0.005975
    20  H   -0.009987  -0.056237  -0.000120   0.000017  -0.000148   0.001246
    21  H   -0.025408   0.089592   0.000013  -0.000007   0.000010  -0.000139
    22  H    0.028617  -0.032949  -0.000128   0.000008  -0.000007   0.000014
    23  H   -0.034103  -0.021264   0.000567  -0.000127   0.000015  -0.000106
    24  H    0.018487  -0.061350  -0.000996   0.000632  -0.000138   0.000172
    25  H    0.018487  -0.061350  -0.000996   0.000632  -0.000138   0.000172
              19         20         21         22         23         24
     1  C   -0.044814   0.007147  -0.001249   0.000836   0.004924   0.034411
     2  C   -0.008190   0.002236  -0.000403   0.000376  -0.002648   0.013972
     3  C    0.052829  -0.005142   0.000383  -0.000314   0.001021  -0.001110
     4  C   -0.054426   0.006144   0.000319  -0.001449   0.005407  -0.009971
     5  C   -0.086781   0.465557  -0.066593   0.012394   0.031249  -0.014548
     6  C    0.049359  -0.084694   0.374147  -0.018148  -0.003893  -0.001965
     7  C   -0.007192   0.002084  -0.018176   0.379077  -0.108987   0.014883
     8  C   -0.048794   0.051495  -0.023567  -0.020778   0.369442   0.030998
     9  C    0.075662  -0.024791  -0.006066   0.004002   0.094437   0.356163
    10  C    0.421707   0.012406   0.019983  -0.008761  -0.010716   0.005322
    11  C    0.079606  -0.011658  -0.006366   0.003486   0.000306   0.008614
    12  C   -0.053779  -0.016869   0.005486  -0.009362   0.007812  -0.058303
    13  C    0.076306  -0.009987  -0.025408   0.028617  -0.034103   0.018487
    14  C   -0.076042  -0.056237   0.089592  -0.032949  -0.021264  -0.061350
    15  H    0.000317  -0.000120   0.000013  -0.000128   0.000567  -0.000996
    16  H   -0.000562   0.000017  -0.000007   0.000008  -0.000127   0.000632
    17  H    0.001445  -0.000148   0.000010  -0.000007   0.000015  -0.000138
    18  H   -0.005975   0.001246  -0.000139   0.000014  -0.000106   0.000172
    19  H    0.442949  -0.006403   0.001393  -0.000513   0.000293   0.000598
    20  H   -0.006403   0.453234  -0.009595   0.001837   0.000270   0.000191
    21  H    0.001393  -0.009595   0.419451  -0.006383   0.001360  -0.000145
    22  H   -0.000513   0.001837  -0.006383   0.417176  -0.008599   0.000633
    23  H    0.000293   0.000270   0.001360  -0.008599   0.435117  -0.000818
    24  H    0.000598   0.000191  -0.000145   0.000633  -0.000818   0.494045
    25  H    0.000598   0.000191  -0.000145   0.000633  -0.000818  -0.079691
              25
     1  C    0.034411
     2  C    0.013972
     3  C   -0.001110
     4  C   -0.009971
     5  C   -0.014548
     6  C   -0.001965
     7  C    0.014883
     8  C    0.030998
     9  C    0.356163
    10  C    0.005322
    11  C    0.008614
    12  C   -0.058303
    13  C    0.018487
    14  C   -0.061350
    15  H   -0.000996
    16  H    0.000632
    17  H   -0.000138
    18  H    0.000172
    19  H    0.000598
    20  H    0.000191
    21  H   -0.000145
    22  H    0.000633
    23  H   -0.000818
    24  H   -0.079691
    25  H    0.494045
 Mulliken charges:
               1
     1  C    0.086293
     2  C   -0.423639
     3  C   -0.446258
     4  C   -0.045001
     5  C    0.062014
     6  C   -0.432554
     7  C   -0.387912
     8  C    0.099045
     9  C   -0.343222
    10  C    0.087084
    11  C   -0.632723
    12  C    0.743074
    13  C   -0.639746
    14  C    0.653461
    15  H    0.235360
    16  H    0.254293
    17  H    0.245722
    18  H    0.222617
    19  H    0.190410
    20  H    0.221588
    21  H    0.252102
    22  H    0.258303
    23  H    0.239858
    24  H    0.249916
    25  H    0.249916
 Sum of Mulliken charges =   1.00000
 Mulliken charges with hydrogens summed into heavy atoms:
               1
     1  C    0.321653
     2  C   -0.169346
     3  C   -0.200536
     4  C    0.177617
     5  C    0.283603
     6  C   -0.180452
     7  C   -0.129610
     8  C    0.338903
     9  C    0.156609
    10  C    0.277494
    11  C   -0.632723
    12  C    0.743074
    13  C   -0.639746
    14  C    0.653461
 Electronic spatial extent (au):  <R**2>=           2855.9257
 Charge=              1.0000 electrons
 Dipole moment (field-independent basis, Debye):
    X=              0.1176    Y=             -0.6213    Z=              0.0000  Tot=              0.6324
 Quadrupole moment (field-independent basis, Debye-Ang):
   XX=            -50.5691   YY=            -36.7887   ZZ=            -84.1373
   XY=            -10.5438   XZ=              0.0000   YZ=              0.0000
 Traceless Quadrupole moment (field-independent basis, Debye-Ang):
   XX=              6.5959   YY=             20.3764   ZZ=            -26.9723
   XY=            -10.5438   XZ=              0.0000   YZ=              0.0000
 Octapole moment (field-independent basis, Debye-Ang**2):
  XXX=              0.9831  YYY=             -1.6640  ZZZ=              0.0000  XYY=              3.6298
  XXY=             -7.1378  XXZ=              0.0000  XZZ=              3.0201  YZZ=              0.8941
  YYZ=              0.0000  XYZ=              0.0000
 Hexadecapole moment (field-independent basis, Debye-Ang**3):
 XXXX=           -986.5751 YYYY=          -1856.2879 ZZZZ=            -99.3164 XXXY=            345.3337
 XXXZ=              0.0000 YYYX=            273.5057 YYYZ=             -0.0000 ZZZX=             -0.0000
 ZZZY=             -0.0000 XXYY=           -452.0137 XXZZ=           -242.2898 YYZZ=           -494.1603
 XXYZ=              0.0000 YYXZ=              0.0000 ZZXY=            183.4426
 N-N= 7.812080284944D+02 E-N=-2.798762726429D+03  KE= 5.375126468925D+02
 Symmetry A'   KE= 5.228627829648D+02
 Symmetry A"   KE= 1.464986392772D+01
 Unable to Open any file for archive entry.
 1\1\GINC-GADI-CPU-CLX-2072\SP\RM062X TD-FC\6-311++G(d,p)\C14H11(1+)\TS
 1578\28-Jul-2022\0\\#n M062X/6-311++G(d,p) TD(NStates=1) EmpiricalDisp
 ersion=GD3 SP\\SP_-2\\1,1\C,0,0.,2.500655,1.361031\C,0,0.,3.701508,0.6
 72989\C,0,0.,3.684461,-0.71123\C,0,0.,2.460356,-1.407738\C,0,0.,-2.465
 956,-1.407338\C,0,0.,-3.683261,-0.71643\C,0,0.,-3.701508,0.670989\C,0,
 0.,-2.484655,1.359831\C,0,0.,-0.0032,1.453369\C,0,0.,-0.0154,-1.429189
 \C,0,0.,1.263255,0.665865\C,0,0.,1.241071,-0.719804\C,0,0.,-1.260855,0
 .688265\C,0,0.,-1.233871,-0.741804\H,0,0.,2.470471,2.443647\H,0,0.,4.6
 30753,1.222089\H,0,0.,4.601062,-1.283949\H,0,0.,2.48675,-2.489659\H,0,
 0.,0.004,-2.510266\H,0,0.,-2.44835,-2.490459\H,0,0.,-4.617462,-1.26074
 9\H,0,0.,-4.642753,1.201289\H,0,0.,-2.505671,2.443647\H,0,-0.859585,-0
 .0068,2.145787\H,0,0.859585,-0.0068,2.145787\\Version=ES64L-G16RevC.01
 \State=1-A'\HF=-539.7584464\RMSD=4.626e-09\PG=CS [SG(C14H9),X(H2)]\\@
 The archive entry for this job was punched.


 SUPPORT THE RIGHT TO ARM BEARS!
 (ADD A CLAWS TO THE BILL OF RIGHTS)
 Job cpu time:       0 days  0 hours 54 minutes 21.6 seconds.
 Elapsed time:       0 days  0 hours  1 minutes  9.5 seconds.
 File lengths (MBytes):  RWF=    460 Int=      0 D2E=      0 Chk=     15 Scr=      1
 Normal termination of Gaussian 16 at Thu Jul 28 14:03:47 2022.
