 Entering Gaussian System, Link 0=g16
 Initial command:
 /apps/gaussian/g16c01/g16/l1.exe "/jobfs/53005151.gadi-pbs/Gau-4160567.inp" -scrdir="/jobfs/53005151.gadi-pbs/"
 Entering Link 1 = /apps/gaussian/g16c01/g16/l1.exe PID=   4160568.
  
 Copyright (c) 1988-2019, Gaussian, Inc.  All Rights Reserved.
  
 This is part of the Gaussian(R) 16 program.  It is based on
 the Gaussian(R) 09 system (copyright 2009, Gaussian, Inc.),
 the Gaussian(R) 03 system (copyright 2003, Gaussian, Inc.),
 the Gaussian(R) 98 system (copyright 1998, Gaussian, Inc.),
 the Gaussian(R) 94 system (copyright 1995, Gaussian, Inc.),
 the Gaussian 92(TM) system (copyright 1992, Gaussian, Inc.),
 the Gaussian 90(TM) system (copyright 1990, Gaussian, Inc.),
 the Gaussian 88(TM) system (copyright 1988, Gaussian, Inc.),
 the Gaussian 86(TM) system (copyright 1986, Carnegie Mellon
 University), and the Gaussian 82(TM) system (copyright 1983,
 Carnegie Mellon University). Gaussian is a federally registered
 trademark of Gaussian, Inc.
  
 This software contains proprietary and confidential information,
 including trade secrets, belonging to Gaussian, Inc.
  
 This software is provided under written license and may be
 used, copied, transmitted, or stored only in accord with that
 written license.
  
 The following legend is applicable only to US Government
 contracts under FAR:
  
                    RESTRICTED RIGHTS LEGEND
  
 Use, reproduction and disclosure by the US Government is
 subject to restrictions as set forth in subparagraphs (a)
 and (c) of the Commercial Computer Software - Restricted
 Rights clause in FAR 52.227-19.
  
 Gaussian, Inc.
 340 Quinnipiac St., Bldg. 40, Wallingford CT 06492
  
  
 ---------------------------------------------------------------
 Warning -- This program may not be used in any manner that
 competes with the business of Gaussian, Inc. or will provide
 assistance to any competitor of Gaussian, Inc.  The licensee
 of this program is prohibited from giving any competitor of
 Gaussian, Inc. access to this program.  By using this program,
 the user acknowledges that Gaussian, Inc. is engaged in the
 business of creating and licensing software in the field of
 computational chemistry and represents and warrants to the
 licensee that it is not a competitor of Gaussian, Inc. and that
 it will not use this program in any manner prohibited above.
 ---------------------------------------------------------------
  

 Cite this work as:
 Gaussian 16, Revision C.01,
 M. J. Frisch, G. W. Trucks, H. B. Schlegel, G. E. Scuseria, 
 M. A. Robb, J. R. Cheeseman, G. Scalmani, V. Barone, 
 G. A. Petersson, H. Nakatsuji, X. Li, M. Caricato, A. V. Marenich, 
 J. Bloino, B. G. Janesko, R. Gomperts, B. Mennucci, H. P. Hratchian, 
 J. V. Ortiz, A. F. Izmaylov, J. L. Sonnenberg, D. Williams-Young, 
 F. Ding, F. Lipparini, F. Egidi, J. Goings, B. Peng, A. Petrone, 
 T. Henderson, D. Ranasinghe, V. G. Zakrzewski, J. Gao, N. Rega, 
 G. Zheng, W. Liang, M. Hada, M. Ehara, K. Toyota, R. Fukuda, 
 J. Hasegawa, M. Ishida, T. Nakajima, Y. Honda, O. Kitao, H. Nakai, 
 T. Vreven, K. Throssell, J. A. Montgomery, Jr., J. E. Peralta, 
 F. Ogliaro, M. J. Bearpark, J. J. Heyd, E. N. Brothers, K. N. Kudin, 
 V. N. Staroverov, T. A. Keith, R. Kobayashi, J. Normand, 
 K. Raghavachari, A. P. Rendell, J. C. Burant, S. S. Iyengar, 
 J. Tomasi, M. Cossi, J. M. Millam, M. Klene, C. Adamo, R. Cammi, 
 J. W. Ochterski, R. L. Martin, K. Morokuma, O. Farkas, 
 J. B. Foresman, and D. J. Fox, Gaussian, Inc., Wallingford CT, 2019.
 
 ******************************************
 Gaussian 16:  ES64L-G16RevC.01  3-Jul-2019
                28-Jul-2022 
 ******************************************
 %NProcShared=48
 Will use up to   48 processors via shared memory.
 %mem = 190GB
 ---------------------------------------------------------------
 #n M062X/6-311++G(d,p) TD(NStates=1) EmpiricalDispersion=GD3 SP
 ---------------------------------------------------------------
 1/38=1,172=1/1;
 2/12=2,17=6,18=5,40=1/2;
 3/5=4,6=6,7=1111,11=9,25=1,30=1,74=-55,124=31/1,2,3,8;
 4//1;
 5/5=2,38=5/2;
 8/6=1,10=2,108=1/1;
 9/41=1,42=1,70=2/14;
 6/7=2,8=2,9=2,10=2/1;
 99/5=1,9=1/99;
 -----
 SP_-8
 -----
 Symbolic Z-matrix:
 Charge =  1 Multiplicity = 1
 C                     0.        2.50866   1.36083 
 C                     0.        3.71351   0.67799 
 C                     0.        3.69026  -0.70143 
 C                     0.        2.44796  -1.40234 
 C                     0.       -2.47836  -1.41274 
 C                     0.       -3.67746  -0.72623 
 C                     0.       -3.68951   0.66599 
 C                     0.       -2.47666   1.36003 
 C                     0.        0.0032    1.45337 
 C                     0.       -0.0296   -1.42919 
 C                     0.        1.25686   0.66227 
 C                     0.        1.23387  -0.7228 
 C                     0.       -1.26726   0.69187 
 C                     0.       -1.24107  -0.7388 
 H                     0.        2.47967   2.44365 
 H                     0.        4.64475   1.22329 
 H                     0.        4.60446  -1.27875 
 H                     0.        2.47435  -2.48446 
 H                     0.       -0.014    -2.51027 
 H                     0.       -2.46075  -2.49566 
 H                     0.       -4.61406  -1.26595 
 H                     0.       -4.62875   1.20009 
 H                     0.       -2.49647   2.44365 
 H                    -0.85959   0.0248    2.14579 
 H                     0.85959   0.0248    2.14579 
 
                          Input orientation:                          
 ---------------------------------------------------------------------
 Center     Atomic      Atomic             Coordinates (Angstroms)
 Number     Number       Type             X           Y           Z
 ---------------------------------------------------------------------
      1          6           0        0.000000    2.508655    1.360831
      2          6           0        0.000000    3.713508    0.677989
      3          6           0        0.000000    3.690261   -0.701430
      4          6           0        0.000000    2.447956   -1.402338
      5          6           0        0.000000   -2.478356   -1.412738
      6          6           0        0.000000   -3.677461   -0.726230
      7          6           0        0.000000   -3.689508    0.665989
      8          6           0        0.000000   -2.476655    1.360031
      9          6           0        0.000000    0.003200    1.453369
     10          6           0        0.000000   -0.029600   -1.429189
     11          6           0        0.000000    1.256855    0.662265
     12          6           0        0.000000    1.233871   -0.722804
     13          6           0        0.000000   -1.267255    0.691865
     14          6           0        0.000000   -1.241071   -0.738804
     15          1           0        0.000000    2.479671    2.443647
     16          1           0        0.000000    4.644753    1.223289
     17          1           0        0.000000    4.604462   -1.278749
     18          1           0        0.000000    2.474350   -2.484459
     19          1           0        0.000000   -0.014000   -2.510266
     20          1           0        0.000000   -2.460750   -2.495659
     21          1           0        0.000000   -4.614062   -1.265949
     22          1           0        0.000000   -4.628753    1.200089
     23          1           0        0.000000   -2.496471    2.443647
     24          1           0       -0.859585    0.024800    2.145787
     25          1           0        0.859585    0.024800    2.145787
 ---------------------------------------------------------------------
                    Distance matrix (angstroms):
                    1          2          3          4          5
     1  C    0.000000
     2  C    1.384899   0.000000
     3  C    2.376786   1.379615   0.000000
     4  C    2.763836   2.435032   1.426392   0.000000
     5  C    5.706397   6.535313   6.209492   4.926323   0.000000
     6  C    6.528695   7.523181   7.367764   6.162618   1.381719
     7  C    6.236989   7.403026   7.505386   6.476607   2.405825
     8  C    4.985310   6.227624   6.502344   5.646457   2.772770
     9  C    2.507163   3.790462   4.270548   3.759241   3.791133
    10  C    3.771863   4.295469   3.790382   2.477701   2.448811
    11  C    1.433526   2.456703   2.789467   2.383549   4.272872
    12  C    2.442664   2.847950   2.456483   1.391319   3.775796
    13  C    3.834711   4.980782   5.149586   4.264795   2.428193
    14  C    4.297547   5.153169   4.931474   3.748226   1.408922
    15  H    1.083204   2.154043   3.370020   3.846116   6.281221
    16  H    2.140522   1.079152   2.148394   3.423424   7.595217
    17  H    3.370429   2.150029   1.081231   2.160045   7.084085
    18  H    3.845443   3.396556   2.158155   1.082443   5.067335
    19  H    4.620517   4.905027   4.122310   2.699765   2.697706
    20  H    6.290270   6.942154   6.407355   5.028990   1.083064
    21  H    7.591645   8.551451   8.323489   7.063335   2.140745
    22  H    7.139218   8.358583   8.533567   7.540055   3.383943
    23  H    5.120916   6.456112   6.940257   6.264101   3.856428
    24  H    2.743096   4.062005   4.720290   4.381753   4.434837
    25  H    2.743096   4.062005   4.720290   4.381753   4.434837
                    6          7          8          9         10
     6  C    0.000000
     7  C    1.392271   0.000000
     8  C    2.407160   1.397393   0.000000
     9  C    4.277606   3.775720   2.481611   0.000000
    10  C    3.714975   4.217191   3.710502   2.882745   0.000000
    11  C    5.125953   4.946364   3.798154   1.482395   2.455432
    12  C    4.911333   5.115507   4.255139   2.500056   1.447528
    13  C    2.796442   2.422391   1.381700   1.481197   2.455740
    14  C    2.436422   2.822815   2.435524   2.520681   1.394379
    15  H    6.925200   6.420190   5.073400   2.667126   4.614683
    16  H    8.547507   8.352873   7.122721   4.647252   5.374497
    17  H    8.300333   8.518917   7.556810   5.351269   4.636503
    18  H    6.398136   6.922317   6.268377   4.648986   2.717234
    19  H    4.074768   4.857773   4.587360   3.963672   1.081190
    20  H    2.147386   3.392030   3.855723   4.654661   2.654778
    21  H    1.080980   2.141771   3.385894   5.358526   4.587367
    22  H    2.148409   1.080483   2.158033   4.638873   5.297670
    23  H    3.382729   2.140889   1.083797   2.688681   4.591766
    24  H    4.763833   4.089593   2.759271   1.103991   3.677268
    25  H    4.763833   4.089593   2.759271   1.103991   3.677268
                   11         12         13         14         15
    11  C    0.000000
    12  C    1.385260   0.000000
    13  C    2.524284   2.873486   0.000000
    14  C    2.864023   2.474994   1.430909   0.000000
    15  H    2.160695   3.402709   4.136205   4.896112   0.000000
    16  H    3.434036   3.927008   5.935845   6.204251   2.485328
    17  H    3.869626   3.416132   6.193576   5.870417   4.286137
    18  H    3.374043   2.154580   4.908018   4.105078   4.928109
    19  H    3.417605   2.179955   3.438647   2.154943   5.546138
    20  H    4.877814   4.097955   3.403636   2.138728   6.986022
    21  H    6.179456   5.873102   3.877390   3.413935   8.005133
    22  H    5.910130   6.169917   3.399700   3.903293   7.216379
    23  H    4.154609   4.893042   2.140026   3.421114   4.976142
    24  H    2.111323   3.229482   2.126542   3.265300   2.618014
    25  H    2.111323   3.229482   2.126542   3.265300   2.618014
                   16         17         18         19         20
    16  H    0.000000
    17  H    2.502362   0.000000
    18  H    4.296283   2.447675   0.000000
    19  H    5.970210   4.779835   2.488484   0.000000
    20  H    8.019897   7.169246   4.935113   2.446794   0.000000
    21  H    9.587594   9.218533   7.192381   4.765385   2.479705
    22  H    9.273535   9.560172   8.001873   5.921375   4.284716
    23  H    7.244747   8.017449   6.999664   5.541111   4.939435
    24  H    4.788930   5.782702   5.308329   4.734894   5.334779
    25  H    4.788930   5.782702   5.308329   4.734894   5.334779
                   21         22         23         24         25
    21  H    0.000000
    22  H    2.466082   0.000000
    23  H    4.271451   2.468413   0.000000
    24  H    5.822188   4.825846   2.680376   0.000000
    25  H    5.822188   4.825846   2.680376   1.719170   0.000000
 Stoichiometry    C14H11(1+)
 Framework group  CS[SG(C14H9),X(H2)]
 Deg. of freedom    46
 Full point group                 CS      NOp   2
 Largest Abelian subgroup         CS      NOp   2
 Largest concise Abelian subgroup CS      NOp   2
                         Standard orientation:                         
 ---------------------------------------------------------------------
 Center     Atomic      Atomic             Coordinates (Angstroms)
 Number     Number       Type             X           Y           Z
 ---------------------------------------------------------------------
      1          6           0        0.034446    2.853726    0.000000
      2          6           0       -1.131338    3.601316    0.000000
      3          6           0       -2.340857    2.937689    0.000000
      4          6           0       -2.381801    1.511885    0.000000
      5          6           0       -0.094441   -2.851215    0.000000
      6          6           0        1.071906   -3.592012    0.000000
      7          6           0        2.309202   -2.953642    0.000000
      8          6           0        2.357803   -1.557094    0.000000
      9          6           0        1.284313    0.680318    0.000000
     10          6           0       -1.250563   -0.692498    0.000000
     11          6           0        0.000000    1.420613    0.000000
     12          6           0       -1.214640    0.754585    0.000000
     13          6           0        1.202883   -0.798639    0.000000
     14          6           0       -0.075020   -1.442427    0.000000
     15          1           0        1.005913    3.332874    0.000000
     16          1           0       -1.083047    4.679387    0.000000
     17          1           0       -3.277789    3.477336    0.000000
     18          1           0       -3.351446    1.030769    0.000000
     19          1           0       -2.214252   -1.182676    0.000000
     20          1           0       -1.060697   -3.340478    0.000000
     21          1           0        1.031050   -4.672220    0.000000
     22          1           0        3.219574   -3.535593    0.000000
     23          1           0        3.325703   -1.069462    0.000000
     24          1           0        1.886817    1.022220    0.859585
     25          1           0        1.886817    1.022220   -0.859585
 ---------------------------------------------------------------------
 Rotational constants (GHZ):           2.1362439           0.4446096           0.3688157
 Standard basis: 6-311++G(d,p) (5D, 7F)
 There are   299 symmetry adapted cartesian basis functions of A'  symmetry.
 There are   100 symmetry adapted cartesian basis functions of A"  symmetry.
 There are   285 symmetry adapted basis functions of A'  symmetry.
 There are   100 symmetry adapted basis functions of A"  symmetry.
   385 basis functions,   603 primitive gaussians,   399 cartesian basis functions
    47 alpha electrons       47 beta electrons
       nuclear repulsion energy       781.2264096097 Hartrees.
 NAtoms=   25 NActive=   25 NUniq=   24 SFac= 1.09D+00 NAtFMM=   60 NAOKFM=F Big=F
 Integral buffers will be    131072 words long.
 Regular integral format.
 Two-electron integral symmetry is turned on.
 Nuclear repulsion after empirical dispersion term =      781.2254301689 Hartrees.
 One-electron integrals computed using PRISM.
 NBasis=   385 RedAO= T EigKep=  1.10D-06  NBF=   285   100
 NBsUse=   379 1.00D-06 EigRej=  8.38D-07 NBFU=   279   100
 ExpMin= 3.60D-02 ExpMax= 4.56D+03 ExpMxC= 6.82D+02 IAcc=3 IRadAn=         5 AccDes= 0.00D+00
 Harris functional with IExCor= 1009 and IRadAn=       5 diagonalized for initial guess.
 HarFok:  IExCor= 1009 AccDes= 0.00D+00 IRadAn=         5 IDoV= 1 UseB2=F ITyADJ=14
 ICtDFT=  3500011 ScaDFX=  1.000000  1.000000  1.000000  1.000000
 FoFCou: FMM=F IPFlag=           0 FMFlag=      100000 FMFlg1=           0
         NFxFlg=           0 DoJE=T BraDBF=F KetDBF=T FulRan=T
         wScrn=  0.000000 ICntrl=       500 IOpCl=  0 I1Cent=   200000004 NGrid=           0
         NMat0=    1 NMatS0=      1 NMatT0=    0 NMatD0=    1 NMtDS0=    0 NMtDT0=    0
 Petite list used in FoFCou.
 Initial guess orbital symmetries:
       Occupied  (A') (A') (A') (A') (A') (A') (A') (A') (A') (A')
                 (A') (A') (A') (A') (A') (A') (A') (A') (A') (A')
                 (A') (A') (A') (A') (A') (A') (A') (A') (A') (A')
                 (A') (A') (A") (A') (A') (A') (A') (A') (A") (A')
                 (A") (A') (A') (A") (A") (A") (A")
       Virtual   (A") (A") (A") (A") (A") (A') (A') (A') (A') (A")
                 (A") (A') (A') (A') (A") (A') (A') (A') (A') (A")
                 (A') (A") (A') (A') (A') (A") (A') (A") (A') (A')
                 (A') (A') (A') (A') (A") (A') (A") (A') (A') (A')
                 (A") (A') (A') (A") (A') (A') (A') (A') (A") (A')
                 (A') (A') (A") (A") (A') (A') (A') (A") (A") (A')
                 (A') (A') (A') (A') (A') (A') (A") (A') (A') (A")
                 (A') (A') (A') (A') (A') (A') (A') (A') (A') (A')
                 (A') (A') (A') (A') (A') (A') (A') (A') (A') (A')
                 (A') (A') (A') (A') (A') (A') (A') (A") (A') (A")
                 (A') (A') (A") (A") (A') (A") (A') (A") (A') (A")
                 (A") (A') (A') (A') (A") (A') (A') (A") (A") (A')
                 (A") (A") (A') (A') (A') (A") (A') (A') (A') (A")
                 (A') (A') (A') (A') (A') (A') (A") (A') (A') (A')
                 (A') (A') (A') (A') (A') (A') (A') (A') (A') (A")
                 (A") (A') (A") (A") (A') (A') (A') (A") (A") (A')
                 (A") (A') (A") (A") (A") (A') (A') (A') (A') (A')
                 (A') (A") (A") (A') (A') (A') (A') (A') (A') (A")
                 (A') (A') (A') (A') (A") (A') (A") (A') (A") (A")
                 (A') (A") (A') (A") (A') (A') (A') (A") (A') (A')
                 (A") (A") (A") (A') (A') (A") (A') (A") (A') (A')
                 (A") (A") (A') (A") (A') (A") (A') (A') (A') (A")
                 (A') (A') (A') (A') (A") (A') (A') (A') (A") (A")
                 (A') (A') (A') (A") (A') (A') (A") (A') (A") (A')
                 (A") (A') (A') (A') (A') (A") (A') (A') (A') (A")
                 (A') (A') (A') (A") (A") (A') (A') (A") (A') (A')
                 (A') (A") (A') (A") (A') (A') (A') (A") (A') (A")
                 (A') (A') (A') (A') (A") (A') (A") (A') (A") (A')
                 (A") (A') (A") (A") (A") (A') (A') (A') (A') (A')
                 (A') (A') (A') (A') (A') (A') (A') (A') (A') (A')
                 (A') (A') (A') (A') (A") (A') (A') (A') (A') (A')
                 (A') (A') (A') (A') (A') (A') (A') (A') (A') (A')
                 (A') (A') (A') (A') (A') (A') (A') (A') (A') (A')
                 (A') (A')
 The electronic state of the initial guess is 1-A'.
 Requested convergence on RMS density matrix=1.00D-08 within 128 cycles.
 Requested convergence on MAX density matrix=1.00D-06.
 Requested convergence on             energy=1.00D-06.
 No special actions if energy rises.
 SCF Done:  E(RM062X) =  -539.756930041     A.U. after   15 cycles
            NFock= 15  Conv=0.74D-08     -V/T= 2.0042
 DoSCS=F DFT=T ScalE2(SS,OS)=  1.000000  1.000000
 ExpMin= 3.60D-02 ExpMax= 4.56D+03 ExpMxC= 6.82D+02 IAcc=3 IRadAn=         5 AccDes= 0.00D+00
 HarFok:  IExCor=  205 AccDes= 0.00D+00 IRadAn=         5 IDoV=-2 UseB2=F ITyADJ=14
 ICtDFT= 12500011 ScaDFX=  1.000000  1.000000  1.000000  1.000000
 Range of M.O.s used for correlation:    15   379
 NBasis=   385 NAE=    47 NBE=    47 NFC=    14 NFV=     0
 NROrb=    365 NOA=    33 NOB=    33 NVA=   332 NVB=   332

 **** Warning!!: The largest alpha MO coefficient is  0.14312609D+03

 Orbital symmetries:
       Occupied  (A') (A') (A') (A') (A') (A') (A') (A') (A') (A')
                 (A') (A') (A') (A') (A') (A') (A') (A') (A') (A')
                 (A') (A') (A') (A') (A') (A') (A') (A') (A') (A')
                 (A') (A") (A') (A') (A') (A') (A') (A") (A") (A')
                 (A') (A') (A') (A") (A") (A") (A")
       Virtual   (A") (A") (A") (A") (A') (A') (A') (A') (A") (A')
                 (A') (A") (A') (A') (A") (A') (A") (A') (A') (A')
                 (A") (A") (A') (A') (A') (A") (A') (A") (A') (A')
                 (A") (A') (A") (A') (A') (A') (A') (A') (A") (A')
                 (A") (A') (A') (A") (A") (A') (A") (A') (A") (A')
                 (A') (A') (A') (A') (A') (A") (A') (A') (A') (A')
                 (A') (A") (A') (A') (A') (A") (A') (A') (A') (A')
                 (A') (A') (A') (A') (A') (A') (A') (A') (A') (A')
                 (A') (A') (A') (A') (A') (A') (A') (A') (A') (A')
                 (A') (A') (A') (A') (A") (A') (A") (A") (A') (A")
                 (A') (A') (A') (A') (A") (A") (A') (A") (A") (A')
                 (A') (A') (A") (A') (A") (A') (A') (A") (A') (A")
                 (A") (A') (A") (A') (A') (A') (A") (A') (A') (A')
                 (A') (A') (A') (A') (A') (A') (A') (A') (A') (A')
                 (A') (A') (A') (A") (A') (A') (A') (A') (A') (A')
                 (A') (A') (A") (A') (A") (A') (A") (A") (A') (A")
                 (A") (A') (A') (A") (A") (A") (A') (A") (A') (A')
                 (A') (A') (A') (A") (A") (A') (A') (A') (A') (A")
                 (A') (A') (A') (A") (A") (A') (A') (A') (A") (A")
                 (A") (A') (A') (A") (A') (A") (A') (A') (A') (A')
                 (A") (A") (A") (A') (A") (A') (A') (A") (A') (A')
                 (A') (A") (A') (A") (A") (A') (A") (A') (A') (A")
                 (A') (A') (A') (A') (A") (A') (A') (A') (A") (A")
                 (A') (A') (A') (A") (A') (A') (A') (A") (A") (A')
                 (A") (A') (A') (A") (A') (A') (A') (A') (A') (A')
                 (A") (A') (A') (A') (A') (A") (A") (A") (A') (A')
                 (A') (A') (A') (A') (A') (A') (A') (A") (A') (A')
                 (A') (A") (A') (A") (A") (A") (A') (A") (A') (A")
                 (A') (A") (A") (A') (A") (A") (A') (A') (A') (A')
                 (A') (A') (A') (A') (A') (A') (A') (A') (A') (A')
                 (A') (A') (A') (A") (A') (A') (A') (A') (A') (A')
                 (A') (A') (A') (A') (A') (A') (A') (A') (A') (A')
                 (A') (A') (A') (A') (A') (A') (A') (A') (A') (A')
                 (A') (A')
     4 initial guesses have been made.
 Convergence on wavefunction:    0.001000000000000
 Iteration     1 Dimension     4 NMult     0 NNew      4
 CISAX will form     4 AO SS matrices at one time.
 Iteration     2 Dimension     6 NMult     4 NNew      2
 Iteration     3 Dimension     8 NMult     6 NNew      2
 Iteration     4 Dimension    10 NMult     8 NNew      2
 Iteration     5 Dimension    12 NMult    10 NNew      2
 Iteration     6 Dimension    14 NMult    12 NNew      2
 ***********************************************************************
 Excited states from <AA,BB:AA,BB> singles matrix:
 ***********************************************************************
 
 Ground to excited state transition densities written to RWF  633
 Ground to excited state transition electric dipole moments (Au):
       state          X           Y           Z        Dip. S.      Osc.
         1        -0.5157     -0.2644      0.0000      0.3358      0.0226
 Ground to excited state transition velocity dipole moments (Au):
       state          X           Y           Z        Dip. S.      Osc.
         1         0.0597      0.0274      0.0000      0.0043      0.0285
 Ground to excited state transition magnetic dipole moments (Au):
       state          X           Y           Z
         1         0.0000     -0.0000     -0.0844
 Ground to excited state transition velocity quadrupole moments (Au):
       state          XX          YY          ZZ          XY          XZ          YZ
         1        -0.1265     -0.1674      0.0089      0.1288      0.0000     -0.0000
 <0|del|b> * <b|rxdel|0> + <0|del|b> * <b|delr+rdel|0>
 Rotatory Strengths (R) in cgs (10**-40 erg-esu-cm/Gauss)
       state          XX          YY          ZZ    R(velocity)    E-M Angle
         1        -0.0000     -0.0000      0.0000     -0.0000       90.00
 1/2[<0|r|b>*<b|rxdel|0> + (<0|rxdel|b>*<b|r|0>)*]
 Rotatory Strengths (R) in cgs (10**-40 erg-esu-cm/Gauss)
       state          XX          YY          ZZ     R(length)
         1         0.0000     -0.0000      0.0000      0.0000
  1/2[<0|del|b>*<b|r|0> + (<0|r|b>*<b|del|0>)*] (Au)
       state          X           Y           Z        Dip. S.   Osc.(frdel)
         1        -0.0308     -0.0073      0.0000      0.0381      0.0254

 Excitation energies and oscillator strengths:
 
 Excited State   1:      Singlet-A'     2.7482 eV  451.14 nm  f=0.0226  <S**2>=0.000
      47 -> 48         0.70365
 This state for optimization and/or second-order correction.
 Total Energy, E(TD-HF/TD-DFT) =  -539.655933724    
 Copying the excited state density for this state as the 1-particle RhoCI density.
 SavETr:  write IOETrn=   770 NScale= 10 NData=  16 NLR=1 NState=    1 LETran=      28.

 **********************************************************************

            Population analysis using the SCF Density.

 **********************************************************************

 Orbital symmetries:
       Occupied  (A') (A') (A') (A') (A') (A') (A') (A') (A') (A')
                 (A') (A') (A') (A') (A') (A') (A') (A') (A') (A')
                 (A') (A') (A') (A') (A') (A') (A') (A') (A') (A')
                 (A') (A") (A') (A') (A') (A') (A') (A") (A") (A')
                 (A') (A') (A') (A") (A") (A") (A")
       Virtual   (A") (A") (A") (A") (A') (A') (A') (A') (A") (A')
                 (A') (A") (A') (A') (A") (A') (A") (A') (A') (A')
                 (A") (A") (A') (A') (A') (A") (A') (A") (A') (A')
                 (A") (A') (A") (A') (A') (A') (A') (A') (A") (A')
                 (A") (A') (A') (A") (A") (A') (A") (A') (A") (A')
                 (A') (A') (A') (A') (A') (A") (A') (A') (A') (A')
                 (A') (A") (A') (A') (A') (A") (A') (A') (A') (A')
                 (A') (A') (A') (A') (A') (A') (A') (A') (A') (A')
                 (A') (A') (A') (A') (A') (A') (A') (A') (A') (A')
                 (A') (A') (A') (A') (A") (A') (A") (A") (A') (A")
                 (A') (A') (A') (A') (A") (A") (A') (A") (A") (A')
                 (A') (A') (A") (A') (A") (A') (A') (A") (A') (A")
                 (A") (A') (A") (A') (A') (A') (A") (A') (A') (A')
                 (A') (A') (A') (A') (A') (A') (A') (A') (A') (A')
                 (A') (A') (A') (A") (A') (A') (A') (A') (A') (A')
                 (A') (A') (A") (A') (A") (A') (A") (A") (A') (A")
                 (A") (A') (A') (A") (A") (A") (A') (A") (A') (A')
                 (A') (A') (A') (A") (A") (A') (A') (A') (A') (A")
                 (A') (A') (A') (A") (A") (A') (A') (A') (A") (A")
                 (A") (A') (A') (A") (A') (A") (A') (A') (A') (A')
                 (A") (A") (A") (A') (A") (A') (A') (A") (A') (A')
                 (A') (A") (A') (A") (A") (A') (A") (A') (A') (A")
                 (A') (A') (A') (A') (A") (A') (A') (A') (A") (A")
                 (A') (A') (A') (A") (A') (A') (A') (A") (A") (A')
                 (A") (A') (A') (A") (A') (A') (A') (A') (A') (A')
                 (A") (A') (A') (A') (A') (A") (A") (A") (A') (A')
                 (A') (A') (A') (A') (A') (A') (A') (A") (A') (A')
                 (A') (A") (A') (A") (A") (A") (A') (A") (A') (A")
                 (A') (A") (A") (A') (A") (A") (A') (A') (A') (A')
                 (A') (A') (A') (A') (A') (A') (A') (A') (A') (A')
                 (A') (A') (A') (A") (A') (A') (A') (A') (A') (A')
                 (A') (A') (A') (A') (A') (A') (A') (A') (A') (A')
                 (A') (A') (A') (A') (A') (A') (A') (A') (A') (A')
                 (A') (A')
 The electronic state is 1-A'.
 Alpha  occ. eigenvalues --  -10.77594 -10.73716 -10.72753 -10.72724 -10.72052
 Alpha  occ. eigenvalues --  -10.71901 -10.71862 -10.70975 -10.70860 -10.70236
 Alpha  occ. eigenvalues --  -10.70157 -10.69947 -10.69706 -10.69314  -1.16489
 Alpha  occ. eigenvalues --   -1.12462  -1.06963  -1.05816  -1.01274  -1.00244
 Alpha  occ. eigenvalues --   -0.95719  -0.91073  -0.86410  -0.85887  -0.83794
 Alpha  occ. eigenvalues --   -0.78375  -0.76081  -0.74396  -0.69840  -0.69199
 Alpha  occ. eigenvalues --   -0.68390  -0.68100  -0.68059  -0.65044  -0.64192
 Alpha  occ. eigenvalues --   -0.62859  -0.61787  -0.60249  -0.59450  -0.59246
 Alpha  occ. eigenvalues --   -0.56821  -0.55377  -0.54511  -0.52454  -0.46959
 Alpha  occ. eigenvalues --   -0.46097  -0.44147
 Alpha virt. eigenvalues --   -0.26108  -0.14660  -0.14076  -0.12758  -0.11187
 Alpha virt. eigenvalues --   -0.10091  -0.09250  -0.07972  -0.07937  -0.07479
 Alpha virt. eigenvalues --   -0.07208  -0.07136  -0.05644  -0.05577  -0.05345
 Alpha virt. eigenvalues --   -0.03839  -0.03656  -0.03271  -0.03133  -0.02160
 Alpha virt. eigenvalues --   -0.01358  -0.00941   0.00188   0.00580   0.00655
 Alpha virt. eigenvalues --    0.01061   0.01508   0.01914   0.02173   0.02301
 Alpha virt. eigenvalues --    0.02453   0.02677   0.02795   0.03251   0.03421
 Alpha virt. eigenvalues --    0.04231   0.04525   0.04724   0.05040   0.05373
 Alpha virt. eigenvalues --    0.06033   0.06293   0.06591   0.07050   0.07262
 Alpha virt. eigenvalues --    0.07893   0.08092   0.08355   0.08625   0.08912
 Alpha virt. eigenvalues --    0.09508   0.09576   0.09967   0.10812   0.10999
 Alpha virt. eigenvalues --    0.11127   0.12127   0.12241   0.12737   0.12996
 Alpha virt. eigenvalues --    0.13464   0.13530   0.13992   0.14427   0.15948
 Alpha virt. eigenvalues --    0.16367   0.16468   0.17342   0.17581   0.17846
 Alpha virt. eigenvalues --    0.18124   0.19058   0.19440   0.19611   0.19780
 Alpha virt. eigenvalues --    0.21543   0.21609   0.22677   0.23131   0.23571
 Alpha virt. eigenvalues --    0.23885   0.24547   0.25385   0.26931   0.27628
 Alpha virt. eigenvalues --    0.28808   0.29342   0.29917   0.31361   0.35661
 Alpha virt. eigenvalues --    0.36645   0.38178   0.39250   0.41118   0.41313
 Alpha virt. eigenvalues --    0.41959   0.42185   0.42986   0.43727   0.44354
 Alpha virt. eigenvalues --    0.44605   0.45206   0.46101   0.46288   0.47927
 Alpha virt. eigenvalues --    0.48447   0.48839   0.48997   0.50497   0.51115
 Alpha virt. eigenvalues --    0.51385   0.51928   0.52139   0.52862   0.54096
 Alpha virt. eigenvalues --    0.54099   0.54581   0.55681   0.55902   0.57502
 Alpha virt. eigenvalues --    0.58233   0.58880   0.61471   0.62209   0.62415
 Alpha virt. eigenvalues --    0.63192   0.63504   0.64917   0.65161   0.67327
 Alpha virt. eigenvalues --    0.70411   0.70520   0.71142   0.72443   0.72895
 Alpha virt. eigenvalues --    0.75732   0.76009   0.76284   0.76811   0.77166
 Alpha virt. eigenvalues --    0.77741   0.78038   0.78271   0.79902   0.80409
 Alpha virt. eigenvalues --    0.81184   0.81669   0.82297   0.83003   0.85212
 Alpha virt. eigenvalues --    0.87168   0.88219   0.88460   0.89170   0.90561
 Alpha virt. eigenvalues --    0.91086   0.91248   0.93249   0.94644   0.96457
 Alpha virt. eigenvalues --    0.96678   1.00368   1.01244   1.01563   1.02889
 Alpha virt. eigenvalues --    1.03160   1.03707   1.04822   1.05662   1.08832
 Alpha virt. eigenvalues --    1.19528   1.23172   1.24050   1.25084   1.28216
 Alpha virt. eigenvalues --    1.29678   1.31787   1.34312   1.35836   1.36006
 Alpha virt. eigenvalues --    1.39251   1.40111   1.40837   1.43011   1.43478
 Alpha virt. eigenvalues --    1.43591   1.44544   1.46112   1.46245   1.46673
 Alpha virt. eigenvalues --    1.47761   1.48059   1.51755   1.53643   1.55624
 Alpha virt. eigenvalues --    1.55787   1.56268   1.56632   1.57880   1.61475
 Alpha virt. eigenvalues --    1.63056   1.63277   1.64095   1.66088   1.68270
 Alpha virt. eigenvalues --    1.68308   1.68717   1.69736   1.74410   1.76023
 Alpha virt. eigenvalues --    1.77169   1.78253   1.79928   1.80004   1.80828
 Alpha virt. eigenvalues --    1.82961   1.83206   1.83636   1.84062   1.84217
 Alpha virt. eigenvalues --    1.84323   1.85645   1.86293   1.88289   1.91401
 Alpha virt. eigenvalues --    1.92021   1.94243   1.95259   1.97658   1.98246
 Alpha virt. eigenvalues --    1.99785   2.02425   2.04454   2.07328   2.11762
 Alpha virt. eigenvalues --    2.12163   2.14235   2.15257   2.19133   2.21274
 Alpha virt. eigenvalues --    2.22842   2.28519   2.30193   2.34629   2.34865
 Alpha virt. eigenvalues --    2.36262   2.38528   2.39734   2.42253   2.44643
 Alpha virt. eigenvalues --    2.46176   2.46515   2.49108   2.53150   2.53990
 Alpha virt. eigenvalues --    2.54244   2.56801   2.57918   2.58387   2.59487
 Alpha virt. eigenvalues --    2.59938   2.61527   2.61988   2.63569   2.63854
 Alpha virt. eigenvalues --    2.64823   2.64988   2.65110   2.65635   2.67794
 Alpha virt. eigenvalues --    2.68820   2.70915   2.71367   2.73396   2.74819
 Alpha virt. eigenvalues --    2.76291   2.78585   2.79693   2.83048   2.83147
 Alpha virt. eigenvalues --    2.84931   2.86287   2.92150   2.97041   2.99246
 Alpha virt. eigenvalues --    3.00343   3.04956   3.10279   3.11379   3.13614
 Alpha virt. eigenvalues --    3.20369   3.22873   3.26379   3.28828   3.30783
 Alpha virt. eigenvalues --    3.32632   3.34721   3.43585   3.46143   3.46689
 Alpha virt. eigenvalues --    3.48359   3.50130   3.56483   3.65821   3.66559
 Alpha virt. eigenvalues --    3.68373   3.93955   3.94210   3.95356   3.96306
 Alpha virt. eigenvalues --    4.03926   4.06801   4.07350   4.12461   4.35341
 Alpha virt. eigenvalues --    4.61009   4.69423   4.71415  23.45230  23.60095
 Alpha virt. eigenvalues --   23.80482  23.82440  23.85813  23.89042  23.92955
 Alpha virt. eigenvalues --   23.94919  23.96804  23.98554  24.02544  24.03871
 Alpha virt. eigenvalues --   24.11269  24.11669
          Condensed to atoms (all electrons):
               1          2          3          4          5          6
     1  C    8.744190   0.127231  -0.439643   2.097376  -0.079804  -0.102669
     2  C    0.127231   7.200325   0.234247  -1.143721   0.007887  -0.014739
     3  C   -0.439643   0.234247   6.580783   0.845379  -0.144016   0.016867
     4  C    2.097376  -1.143721   0.845379  10.396826  -0.400618  -0.113459
     5  C   -0.079804   0.007887  -0.144016  -0.400618  11.927006   0.721957
     6  C   -0.102669  -0.014739   0.016867  -0.113459   0.721957   6.639343
     7  C   -0.003535   0.000122  -0.013580  -0.029683  -1.075184   0.435240
     8  C    0.406859  -0.031300  -0.089837   0.001964   1.948900  -0.610895
     9  C   -1.098940  -0.777916   0.304781  -0.339127  -0.031417   0.291766
    10  C   -1.335855   0.310358  -0.416999  -2.404605  -2.785833  -0.295285
    11  C    0.389596  -1.098072   1.184963   0.170327  -1.708267  -0.243998
    12  C   -2.471914   1.738051  -1.541931  -1.799458  -0.388040  -0.105068
    13  C    0.306403  -0.327582  -0.093456  -1.250176  -0.787564   0.834596
    14  C   -1.037029  -0.086815  -0.301566  -0.350406  -1.601908  -1.331968
    15  H    0.368320  -0.107283   0.002205   0.026664   0.005153   0.001116
    16  H   -0.018041   0.377787  -0.014209   0.012443  -0.001479  -0.000328
    17  H   -0.030855  -0.009802   0.371915  -0.069149   0.000340   0.000410
    18  H    0.051746   0.003068  -0.084210   0.451401   0.005814  -0.005166
    19  H   -0.046301  -0.008465   0.053065  -0.054089  -0.089044   0.049540
    20  H    0.007203   0.002213  -0.005139   0.006115   0.469433  -0.084756
    21  H   -0.001305  -0.000393   0.000392   0.000237  -0.067292   0.377090
    22  H    0.000966   0.000391  -0.000328  -0.001530   0.014460  -0.019715
    23  H    0.004832  -0.002760   0.001090   0.005822   0.029115  -0.004164
    24  H    0.031471   0.013319  -0.001332  -0.010967  -0.013392  -0.001742
    25  H    0.031471   0.013319  -0.001332  -0.010967  -0.013392  -0.001742
               7          8          9         10         11         12
     1  C   -0.003535   0.406859  -1.098940  -1.335855   0.389596  -2.471914
     2  C    0.000122  -0.031300  -0.777916   0.310358  -1.098072   1.738051
     3  C   -0.013580  -0.089837   0.304781  -0.416999   1.184963  -1.541931
     4  C   -0.029683   0.001964  -0.339127  -2.404605   0.170327  -1.799458
     5  C   -1.075184   1.948900  -0.031417  -2.785833  -1.708267  -0.388040
     6  C    0.435240  -0.610895   0.291766  -0.295285  -0.243998  -0.105068
     7  C    7.154032   0.417694  -0.876230   0.206441  -0.198082  -0.273812
     8  C    0.417694   8.541261  -1.181668  -1.259574   0.159515  -1.150468
     9  C   -0.876230  -1.181668   9.654544   0.245990   1.623341  -1.799405
    10  C    0.206441  -1.259574   0.245990   9.137059  -0.606898   2.559618
    11  C   -0.198082   0.159515   1.623341  -0.606898  14.205844  -3.711817
    12  C   -0.273812  -1.150468  -1.799405   2.559618  -3.711817  16.250813
    13  C   -0.713059   0.249806   1.495421  -0.266881   1.039988  -4.913458
    14  C    1.084496  -1.899840  -2.085326   2.367038  -4.620217   3.098626
    15  H   -0.002394   0.006804   0.091792  -0.009743  -0.029387  -0.034367
    16  H    0.000331   0.000473   0.002725  -0.008977   0.023885  -0.031229
    17  H   -0.000403  -0.001336  -0.005991   0.020780  -0.029857   0.099551
    18  H    0.001955   0.007036  -0.025444   0.013365  -0.001513  -0.061061
    19  H   -0.007267  -0.046533   0.075270   0.421480   0.082067  -0.044125
    20  H    0.002384   0.049856  -0.023620   0.009716  -0.011984  -0.020903
    21  H   -0.020738  -0.021076  -0.005471   0.019592  -0.006351   0.005434
    22  H    0.380288  -0.020419   0.003527  -0.009378   0.003639  -0.009961
    23  H   -0.107642   0.368039   0.092413  -0.009485  -0.001682   0.007869
    24  H    0.015389   0.034159   0.355843   0.005281   0.004546  -0.058516
    25  H    0.015389   0.034159   0.355843   0.005281   0.004546  -0.058516
              13         14         15         16         17         18
     1  C    0.306403  -1.037029   0.368320  -0.018041  -0.030855   0.051746
     2  C   -0.327582  -0.086815  -0.107283   0.377787  -0.009802   0.003068
     3  C   -0.093456  -0.301566   0.002205  -0.014209   0.371915  -0.084210
     4  C   -1.250176  -0.350406   0.026664   0.012443  -0.069149   0.451401
     5  C   -0.787564  -1.601908   0.005153  -0.001479   0.000340   0.005814
     6  C    0.834596  -1.331968   0.001116  -0.000328   0.000410  -0.005166
     7  C   -0.713059   1.084496  -0.002394   0.000331  -0.000403   0.001955
     8  C    0.249806  -1.899840   0.006804   0.000473  -0.001336   0.007036
     9  C    1.495421  -2.085326   0.091792   0.002725  -0.005991  -0.025444
    10  C   -0.266881   2.367038  -0.009743  -0.008977   0.020780   0.013365
    11  C    1.039988  -4.620217  -0.029387   0.023885  -0.029857  -0.001513
    12  C   -4.913458   3.098626  -0.034367  -0.031229   0.099551  -0.061061
    13  C   14.710682  -3.714152   0.006292   0.002304  -0.006251  -0.011673
    14  C   -3.714152  16.036048   0.004053  -0.008035   0.005044  -0.009062
    15  H    0.006292   0.004053   0.444691  -0.009407   0.001459   0.000045
    16  H    0.002304  -0.008035  -0.009407   0.423021  -0.006531   0.001948
    17  H   -0.006251   0.005044   0.001459  -0.006531   0.425046  -0.010687
    18  H   -0.011673  -0.009062   0.000045   0.001948  -0.010687   0.456254
    19  H    0.076128  -0.086274   0.000284  -0.000540   0.001321  -0.006325
    20  H   -0.010439  -0.052178  -0.000114   0.000014  -0.000137   0.001253
    21  H   -0.023982   0.085926   0.000012  -0.000007   0.000010  -0.000150
    22  H    0.028152  -0.033058  -0.000129   0.000008  -0.000007   0.000016
    23  H   -0.033210  -0.016242   0.000566  -0.000126   0.000016  -0.000113
    24  H    0.022272  -0.060668  -0.000919   0.000637  -0.000143   0.000195
    25  H    0.022272  -0.060668  -0.000919   0.000637  -0.000143   0.000195
              19         20         21         22         23         24
     1  C   -0.046301   0.007203  -0.001305   0.000966   0.004832   0.031471
     2  C   -0.008465   0.002213  -0.000393   0.000391  -0.002760   0.013319
     3  C    0.053065  -0.005139   0.000392  -0.000328   0.001090  -0.001332
     4  C   -0.054089   0.006115   0.000237  -0.001530   0.005822  -0.010967
     5  C   -0.089044   0.469433  -0.067292   0.014460   0.029115  -0.013392
     6  C    0.049540  -0.084756   0.377090  -0.019715  -0.004164  -0.001742
     7  C   -0.007267   0.002384  -0.020738   0.380288  -0.107642   0.015389
     8  C   -0.046533   0.049856  -0.021076  -0.020419   0.368039   0.034159
     9  C    0.075270  -0.023620  -0.005471   0.003527   0.092413   0.355843
    10  C    0.421480   0.009716   0.019592  -0.009378  -0.009485   0.005281
    11  C    0.082067  -0.011984  -0.006351   0.003639  -0.001682   0.004546
    12  C   -0.044125  -0.020903   0.005434  -0.009961   0.007869  -0.058516
    13  C    0.076128  -0.010439  -0.023982   0.028152  -0.033210   0.022272
    14  C   -0.086274  -0.052178   0.085926  -0.033058  -0.016242  -0.060668
    15  H    0.000284  -0.000114   0.000012  -0.000129   0.000566  -0.000919
    16  H   -0.000540   0.000014  -0.000007   0.000008  -0.000126   0.000637
    17  H    0.001321  -0.000137   0.000010  -0.000007   0.000016  -0.000143
    18  H   -0.006325   0.001253  -0.000150   0.000016  -0.000113   0.000195
    19  H    0.443376  -0.006172   0.001522  -0.000538   0.000341   0.000595
    20  H   -0.006172   0.451233  -0.009817   0.001903   0.000278   0.000169
    21  H    0.001522  -0.009817   0.419325  -0.006609   0.001459  -0.000140
    22  H   -0.000538   0.001903  -0.006609   0.415743  -0.008632   0.000627
    23  H    0.000341   0.000278   0.001459  -0.008632   0.433946  -0.000880
    24  H    0.000595   0.000169  -0.000140   0.000627  -0.000880   0.493813
    25  H    0.000595   0.000169  -0.000140   0.000627  -0.000880  -0.079578
              25
     1  C    0.031471
     2  C    0.013319
     3  C   -0.001332
     4  C   -0.010967
     5  C   -0.013392
     6  C   -0.001742
     7  C    0.015389
     8  C    0.034159
     9  C    0.355843
    10  C    0.005281
    11  C    0.004546
    12  C   -0.058516
    13  C    0.022272
    14  C   -0.060668
    15  H   -0.000919
    16  H    0.000637
    17  H   -0.000143
    18  H    0.000195
    19  H    0.000595
    20  H    0.000169
    21  H   -0.000140
    22  H    0.000627
    23  H   -0.000880
    24  H   -0.079578
    25  H    0.493813
 Mulliken charges:
               1
     1  C    0.098227
     2  C   -0.419467
     3  C   -0.448108
     4  C   -0.036601
     5  C    0.057186
     6  C   -0.432232
     7  C   -0.392151
     8  C    0.086420
     9  C   -0.342702
    10  C    0.087514
    11  C   -0.624132
    12  C    0.714086
    13  C   -0.642436
    14  C    0.674182
    15  H    0.235206
    16  H    0.252696
    17  H    0.245401
    18  H    0.221113
    19  H    0.190093
    20  H    0.223320
    21  H    0.252472
    22  H    0.259956
    23  H    0.240032
    24  H    0.249962
    25  H    0.249962
 Sum of Mulliken charges =   1.00000
 Mulliken charges with hydrogens summed into heavy atoms:
               1
     1  C    0.333433
     2  C   -0.166771
     3  C   -0.202707
     4  C    0.184512
     5  C    0.280505
     6  C   -0.179760
     7  C   -0.132196
     8  C    0.326453
     9  C    0.157223
    10  C    0.277607
    11  C   -0.624132
    12  C    0.714086
    13  C   -0.642436
    14  C    0.674182
 Electronic spatial extent (au):  <R**2>=           2855.9366
 Charge=              1.0000 electrons
 Dipole moment (field-independent basis, Debye):
    X=              0.2671    Y=             -0.8886    Z=             -0.0000  Tot=              0.9279
 Quadrupole moment (field-independent basis, Debye-Ang):
   XX=            -50.7672   YY=            -36.5406   ZZ=            -84.1330
   XY=            -10.4278   XZ=              0.0000   YZ=             -0.0000
 Traceless Quadrupole moment (field-independent basis, Debye-Ang):
   XX=              6.3798   YY=             20.6063   ZZ=            -26.9861
   XY=            -10.4278   XZ=              0.0000   YZ=             -0.0000
 Octapole moment (field-independent basis, Debye-Ang**2):
  XXX=              2.3048  YYY=             -3.8560  ZZZ=              0.0000  XYY=              3.9432
  XXY=             -7.9320  XXZ=              0.0000  XZZ=              3.2829  YZZ=              0.4015
  YYZ=             -0.0000  XYZ=              0.0000
 Hexadecapole moment (field-independent basis, Debye-Ang**3):
 XXXX=           -983.4841 YYYY=          -1857.4729 ZZZZ=            -99.3099 XXXY=            344.6662
 XXXZ=              0.0000 YYYX=            272.2566 YYYZ=             -0.0000 ZZZX=              0.0000
 ZZZY=              0.0000 XXYY=           -452.5764 XXZZ=           -241.2028 YYZZ=           -495.1843
 XXYZ=              0.0000 YYXZ=              0.0000 ZZXY=            182.6737
 N-N= 7.812254301689D+02 E-N=-2.798805294205D+03  KE= 5.375220574168D+02
 Symmetry A'   KE= 5.228699963164D+02
 Symmetry A"   KE= 1.465206110051D+01
 Unable to Open any file for archive entry.
 1\1\GINC-GADI-CPU-CLX-2072\SP\RM062X TD-FC\6-311++G(d,p)\C14H11(1+)\TS
 1578\28-Jul-2022\0\\#n M062X/6-311++G(d,p) TD(NStates=1) EmpiricalDisp
 ersion=GD3 SP\\SP_-8\\1,1\C,0,0.,2.508655,1.360831\C,0,0.,3.713508,0.6
 77989\C,0,0.,3.690261,-0.70143\C,0,0.,2.447956,-1.402338\C,0,0.,-2.478
 356,-1.412738\C,0,0.,-3.677461,-0.72623\C,0,0.,-3.689508,0.665989\C,0,
 0.,-2.476655,1.360031\C,0,0.,0.0032,1.453369\C,0,0.,-0.0296,-1.429189\
 C,0,0.,1.256855,0.662265\C,0,0.,1.233871,-0.722804\C,0,0.,-1.267255,0.
 691865\C,0,0.,-1.241071,-0.738804\H,0,0.,2.479671,2.443647\H,0,0.,4.64
 4753,1.223289\H,0,0.,4.604462,-1.278749\H,0,0.,2.47435,-2.484459\H,0,0
 .,-0.014,-2.510266\H,0,0.,-2.46075,-2.495659\H,0,0.,-4.614062,-1.26594
 9\H,0,0.,-4.628753,1.200089\H,0,0.,-2.496471,2.443647\H,0,-0.859585,0.
 0248,2.145787\H,0,0.859585,0.0248,2.145787\\Version=ES64L-G16RevC.01\S
 tate=1-A'\HF=-539.75693\RMSD=7.362e-09\PG=CS [SG(C14H9),X(H2)]\\@
 The archive entry for this job was punched.


      LET US REMEMBER, PLEASE, THAT THE SEARCH FOR THE CONSTITUTION
      OF THE WORLD IS ONE OF THE GREATEST AND NOBLEST PROBLEMS PRESENTED 
      BY NATURE.

                                                  -- GALILEO
 Job cpu time:       0 days  0 hours 52 minutes 13.9 seconds.
 Elapsed time:       0 days  0 hours  1 minutes  5.4 seconds.
 File lengths (MBytes):  RWF=    460 Int=      0 D2E=      0 Chk=     15 Scr=      1
 Normal termination of Gaussian 16 at Thu Jul 28 13:39:27 2022.
