 Entering Gaussian System, Link 0=g16
 Initial command:
 /apps/gaussian/g16c01/g16/l1.exe "/jobfs/53005151.gadi-pbs/Gau-4146956.inp" -scrdir="/jobfs/53005151.gadi-pbs/"
 Entering Link 1 = /apps/gaussian/g16c01/g16/l1.exe PID=   4146957.
  
 Copyright (c) 1988-2019, Gaussian, Inc.  All Rights Reserved.
  
 This is part of the Gaussian(R) 16 program.  It is based on
 the Gaussian(R) 09 system (copyright 2009, Gaussian, Inc.),
 the Gaussian(R) 03 system (copyright 2003, Gaussian, Inc.),
 the Gaussian(R) 98 system (copyright 1998, Gaussian, Inc.),
 the Gaussian(R) 94 system (copyright 1995, Gaussian, Inc.),
 the Gaussian 92(TM) system (copyright 1992, Gaussian, Inc.),
 the Gaussian 90(TM) system (copyright 1990, Gaussian, Inc.),
 the Gaussian 88(TM) system (copyright 1988, Gaussian, Inc.),
 the Gaussian 86(TM) system (copyright 1986, Carnegie Mellon
 University), and the Gaussian 82(TM) system (copyright 1983,
 Carnegie Mellon University). Gaussian is a federally registered
 trademark of Gaussian, Inc.
  
 This software contains proprietary and confidential information,
 including trade secrets, belonging to Gaussian, Inc.
  
 This software is provided under written license and may be
 used, copied, transmitted, or stored only in accord with that
 written license.
  
 The following legend is applicable only to US Government
 contracts under FAR:
  
                    RESTRICTED RIGHTS LEGEND
  
 Use, reproduction and disclosure by the US Government is
 subject to restrictions as set forth in subparagraphs (a)
 and (c) of the Commercial Computer Software - Restricted
 Rights clause in FAR 52.227-19.
  
 Gaussian, Inc.
 340 Quinnipiac St., Bldg. 40, Wallingford CT 06492
  
  
 ---------------------------------------------------------------
 Warning -- This program may not be used in any manner that
 competes with the business of Gaussian, Inc. or will provide
 assistance to any competitor of Gaussian, Inc.  The licensee
 of this program is prohibited from giving any competitor of
 Gaussian, Inc. access to this program.  By using this program,
 the user acknowledges that Gaussian, Inc. is engaged in the
 business of creating and licensing software in the field of
 computational chemistry and represents and warrants to the
 licensee that it is not a competitor of Gaussian, Inc. and that
 it will not use this program in any manner prohibited above.
 ---------------------------------------------------------------
  

 Cite this work as:
 Gaussian 16, Revision C.01,
 M. J. Frisch, G. W. Trucks, H. B. Schlegel, G. E. Scuseria, 
 M. A. Robb, J. R. Cheeseman, G. Scalmani, V. Barone, 
 G. A. Petersson, H. Nakatsuji, X. Li, M. Caricato, A. V. Marenich, 
 J. Bloino, B. G. Janesko, R. Gomperts, B. Mennucci, H. P. Hratchian, 
 J. V. Ortiz, A. F. Izmaylov, J. L. Sonnenberg, D. Williams-Young, 
 F. Ding, F. Lipparini, F. Egidi, J. Goings, B. Peng, A. Petrone, 
 T. Henderson, D. Ranasinghe, V. G. Zakrzewski, J. Gao, N. Rega, 
 G. Zheng, W. Liang, M. Hada, M. Ehara, K. Toyota, R. Fukuda, 
 J. Hasegawa, M. Ishida, T. Nakajima, Y. Honda, O. Kitao, H. Nakai, 
 T. Vreven, K. Throssell, J. A. Montgomery, Jr., J. E. Peralta, 
 F. Ogliaro, M. J. Bearpark, J. J. Heyd, E. N. Brothers, K. N. Kudin, 
 V. N. Staroverov, T. A. Keith, R. Kobayashi, J. Normand, 
 K. Raghavachari, A. P. Rendell, J. C. Burant, S. S. Iyengar, 
 J. Tomasi, M. Cossi, J. M. Millam, M. Klene, C. Adamo, R. Cammi, 
 J. W. Ochterski, R. L. Martin, K. Morokuma, O. Farkas, 
 J. B. Foresman, and D. J. Fox, Gaussian, Inc., Wallingford CT, 2019.
 
 ******************************************
 Gaussian 16:  ES64L-G16RevC.01  3-Jul-2019
                28-Jul-2022 
 ******************************************
 %NProcShared=48
 Will use up to   48 processors via shared memory.
 %mem = 190GB
 ---------------------------------------------------------------
 #n M062X/6-311++G(d,p) TD(NStates=1) EmpiricalDispersion=GD3 SP
 ---------------------------------------------------------------
 1/38=1,172=1/1;
 2/12=2,17=6,18=5,40=1/2;
 3/5=4,6=6,7=1111,11=9,25=1,30=1,74=-55,124=31/1,2,3,8;
 4//1;
 5/5=2,38=5/2;
 8/6=1,10=2,108=1/1;
 9/41=1,42=1,70=2/14;
 6/7=2,8=2,9=2,10=2/1;
 99/5=1,9=1/99;
 ------
 SP_-14
 ------
 Symbolic Z-matrix:
 Charge =  1 Multiplicity = 1
 C                     0.        2.51666   1.36063 
 C                     0.        3.72551   0.68299 
 C                     0.        3.69606  -0.69163 
 C                     0.        2.43556  -1.39694 
 C                     0.       -2.49076  -1.41814 
 C                     0.       -3.67166  -0.73603 
 C                     0.       -3.67751   0.66099 
 C                     0.       -2.46866   1.36023 
 C                     0.        0.0096    1.45337 
 C                     0.       -0.0438   -1.42919 
 C                     0.        1.25046   0.65867 
 C                     0.        1.22667  -0.7258 
 C                     0.       -1.27366   0.69547 
 C                     0.       -1.24827  -0.7358 
 H                     0.        2.48887   2.44365 
 H                     0.        4.65875   1.22449 
 H                     0.        4.60786  -1.27355 
 H                     0.        2.46195  -2.47926 
 H                     0.       -0.032    -2.51027 
 H                     0.       -2.47315  -2.50086 
 H                     0.       -4.61066  -1.27115 
 H                     0.       -4.61475   1.19889 
 H                     0.       -2.48727   2.44365 
 H                    -0.85959   0.0564    2.14579 
 H                     0.85959   0.0564    2.14579 
 
                          Input orientation:                          
 ---------------------------------------------------------------------
 Center     Atomic      Atomic             Coordinates (Angstroms)
 Number     Number       Type             X           Y           Z
 ---------------------------------------------------------------------
      1          6           0        0.000000    2.516655    1.360631
      2          6           0        0.000000    3.725508    0.682989
      3          6           0        0.000000    3.696061   -0.691630
      4          6           0        0.000000    2.435556   -1.396938
      5          6           0        0.000000   -2.490756   -1.418138
      6          6           0        0.000000   -3.671661   -0.736030
      7          6           0        0.000000   -3.677508    0.660989
      8          6           0        0.000000   -2.468655    1.360231
      9          6           0        0.000000    0.009600    1.453369
     10          6           0        0.000000   -0.043800   -1.429189
     11          6           0        0.000000    1.250455    0.658665
     12          6           0        0.000000    1.226671   -0.725804
     13          6           0        0.000000   -1.273655    0.695465
     14          6           0        0.000000   -1.248271   -0.735804
     15          1           0        0.000000    2.488871    2.443647
     16          1           0        0.000000    4.658753    1.224489
     17          1           0        0.000000    4.607862   -1.273549
     18          1           0        0.000000    2.461950   -2.479259
     19          1           0        0.000000   -0.032000   -2.510266
     20          1           0        0.000000   -2.473150   -2.500859
     21          1           0        0.000000   -4.610662   -1.271149
     22          1           0        0.000000   -4.614753    1.198889
     23          1           0        0.000000   -2.487271    2.443647
     24          1           0       -0.859585    0.056400    2.145787
     25          1           0        0.859585    0.056400    2.145787
 ---------------------------------------------------------------------
                    Distance matrix (angstroms):
                    1          2          3          4          5
     1  C    0.000000
     2  C    1.385830   0.000000
     3  C    2.367018   1.374934   0.000000
     4  C    2.758761   2.447462   1.444414   0.000000
     5  C    5.726755   6.561758   6.229327   4.926358   0.000000
     6  C    6.533854   7.532046   7.367856   6.142874   1.363748
     7  C    6.233551   7.403049   7.496606   6.450164   2.393982
     8  C    4.985310   6.231076   6.497219   5.626124   2.778457
     9  C    2.508770   3.794925   4.265093   3.742928   3.807536
    10  C    3.786691   4.320761   3.811896   2.479566   2.446981
    11  C    1.447763   2.475173   2.793615   2.372755   4.278992
    12  C    2.453012   2.868603   2.469626   1.382687   3.781348
    13  C    3.848233   4.999179   5.159662   4.258685   2.438986
    14  C    4.309258   5.172180   4.944529   3.742683   1.417515
    15  H    1.083372   2.151555   3.359653   3.840955   6.301593
    16  H    2.146420   1.078966   2.144362   3.437220   7.622267
    17  H    3.363339   2.146297   1.081670   2.175807   7.100090
    18  H    3.840280   3.405347   2.172245   1.082643   5.065104
    19  H    4.634597   4.931100   4.147997   2.707089   2.690395
    20  H    6.309458   6.968518   6.429034   5.031306   1.082864
    21  H    7.597691   8.562148   8.326914   7.047341   2.124996
    22  H    7.133242   8.356202   8.523127   7.513000   3.370489
    23  H    5.119785   6.457441   6.932789   6.243742   3.861787
    24  H    2.721803   4.042402   4.694353   4.353179   4.464129
    25  H    2.721803   4.042402   4.694353   4.353179   4.464129
                    6          7          8          9         10
     6  C    0.000000
     7  C    1.397031   0.000000
     8  C    2.416926   1.396519   0.000000
     9  C    4.283124   3.771290   2.480005   0.000000
    10  C    3.693487   4.191978   3.696050   2.883053   0.000000
    11  C    5.115897   4.927964   3.784703   1.473525   2.456467
    12  C    4.898343   5.096486   4.243463   2.496008   1.452187
    13  C    2.792778   2.404100   1.367457   1.490356   2.454933
    14  C    2.423390   2.802182   2.425428   2.524820   1.389796
    15  H    6.932712   6.418886   5.074530   2.669726   4.627449
    16  H    8.558004   8.355285   7.128700   4.654784   5.399631
    17  H    8.296953   8.508219   7.550754   5.346035   4.654265
    18  H    6.376522   6.895948   6.249204   4.634607   2.716879
    19  H    4.049080   4.831831   4.573624   3.963853   1.081141
    20  H    2.133319   3.383454   3.861093   4.669043   2.655225
    21  H    1.080775   2.145678   3.392986   5.363750   4.569596
    22  H    2.152518   1.080632   2.152154   4.631350   5.272609
    23  H    3.393100   2.143486   1.083576   2.686078   4.579237
    24  H    4.789801   4.109207   2.780627   1.104771   3.678231
    25  H    4.789801   4.109207   2.780627   1.104771   3.678231
                   11         12         13         14         15
    11  C    0.000000
    12  C    1.384673   0.000000
    13  C    2.524378   2.876045   0.000000
    14  C    2.861499   2.474962   1.431494   0.000000
    15  H    2.172518   3.411535   4.148824   4.906642   0.000000
    16  H    3.454946   3.947509   5.955949   6.223800   2.488922
    17  H    3.873710   3.425270   6.202359   5.880771   4.278746
    18  H    3.363672   2.144882   4.902409   4.099436   4.922980
    19  H    3.418598   2.183703   3.437793   2.151286   5.558421
    20  H    4.883424   4.103595   3.413982   2.148429   7.004983
    21  H    6.170646   5.862752   3.873395   3.404742   8.012682
    22  H    5.890035   6.150340   3.378812   3.882813   7.211858
    23  H    4.142072   4.882498   2.128146   3.412335   4.976142
    24  H    2.091933   3.217834   2.147409   3.277899   2.597022
    25  H    2.091933   3.217834   2.147409   3.277899   2.597022
                   16         17         18         19         20
    16  H    0.000000
    17  H    2.498556   0.000000
    18  H    4.306239   2.461438   0.000000
    19  H    5.995962   4.801853   2.494143   0.000000
    20  H    8.046257   7.186586   4.935147   2.441168   0.000000
    21  H    9.599493   9.218524   7.175052   4.743370   2.465998
    22  H    9.273541   9.548276   7.975494   5.895715   4.274880
    23  H    7.249276   8.009898   6.980673   5.528979   4.944526
    24  H    4.771722   5.757304   5.283617   4.735560   5.359928
    25  H    4.771722   5.757304   5.283617   4.735560   5.359928
                   21         22         23         24         25
    21  H    0.000000
    22  H    2.470041   0.000000
    23  H    4.278843   2.464874   0.000000
    24  H    5.847718   4.843054   2.701457   0.000000
    25  H    5.847718   4.843054   2.701457   1.719170   0.000000
 Stoichiometry    C14H11(1+)
 Framework group  CS[SG(C14H9),X(H2)]
 Deg. of freedom    46
 Full point group                 CS      NOp   2
 Largest Abelian subgroup         CS      NOp   2
 Largest concise Abelian subgroup CS      NOp   2
                         Standard orientation:                         
 ---------------------------------------------------------------------
 Center     Atomic      Atomic             Coordinates (Angstroms)
 Number     Number       Type             X           Y           Z
 ---------------------------------------------------------------------
      1          6           0        0.030825    2.860481    0.000000
      2          6           0       -1.132180    3.614102    0.000000
      3          6           0       -2.334601    2.947296    0.000000
      4          6           0       -2.371037    1.503342    0.000000
      5          6           0       -0.093484   -2.864925    0.000000
      6          6           0        1.060445   -3.591738    0.000000
      7          6           0        2.299134   -2.945716    0.000000
      8          6           0        2.354280   -1.550287    0.000000
      9          6           0        1.281488    0.685679    0.000000
     10          6           0       -1.243864   -0.705216    0.000000
     11          6           0        0.000000    1.413046    0.000000
     12          6           0       -1.213775    0.746659    0.000000
     13          6           0        1.209125   -0.802920    0.000000
     14          6           0       -0.068974   -1.447622    0.000000
     15          1           0        1.001937    3.340728    0.000000
     16          1           0       -1.088122    4.692168    0.000000
     17          1           0       -3.274453    3.482730    0.000000
     18          1           0       -3.340886    1.022189    0.000000
     19          1           0       -2.205810   -1.198700    0.000000
     20          1           0       -1.059591   -3.354039    0.000000
     21          1           0        1.024714   -4.671922    0.000000
     22          1           0        3.211902   -3.524179    0.000000
     23          1           0        3.321473   -1.061742    0.000000
     24          1           0        1.872266    1.049841    0.859585
     25          1           0        1.872266    1.049841   -0.859585
 ---------------------------------------------------------------------
 Rotational constants (GHZ):           2.1364172           0.4445736           0.3687961
 Standard basis: 6-311++G(d,p) (5D, 7F)
 There are   299 symmetry adapted cartesian basis functions of A'  symmetry.
 There are   100 symmetry adapted cartesian basis functions of A"  symmetry.
 There are   285 symmetry adapted basis functions of A'  symmetry.
 There are   100 symmetry adapted basis functions of A"  symmetry.
   385 basis functions,   603 primitive gaussians,   399 cartesian basis functions
    47 alpha electrons       47 beta electrons
       nuclear repulsion energy       781.2628829063 Hartrees.
 NAtoms=   25 NActive=   25 NUniq=   24 SFac= 1.09D+00 NAtFMM=   60 NAOKFM=F Big=F
 Integral buffers will be    131072 words long.
 Regular integral format.
 Two-electron integral symmetry is turned on.
 Nuclear repulsion after empirical dispersion term =      781.2619036867 Hartrees.
 One-electron integrals computed using PRISM.
 NBasis=   385 RedAO= T EigKep=  1.11D-06  NBF=   285   100
 NBsUse=   379 1.00D-06 EigRej=  8.37D-07 NBFU=   279   100
 ExpMin= 3.60D-02 ExpMax= 4.56D+03 ExpMxC= 6.82D+02 IAcc=3 IRadAn=         5 AccDes= 0.00D+00
 Harris functional with IExCor= 1009 and IRadAn=       5 diagonalized for initial guess.
 HarFok:  IExCor= 1009 AccDes= 0.00D+00 IRadAn=         5 IDoV= 1 UseB2=F ITyADJ=14
 ICtDFT=  3500011 ScaDFX=  1.000000  1.000000  1.000000  1.000000
 FoFCou: FMM=F IPFlag=           0 FMFlag=      100000 FMFlg1=           0
         NFxFlg=           0 DoJE=T BraDBF=F KetDBF=T FulRan=T
         wScrn=  0.000000 ICntrl=       500 IOpCl=  0 I1Cent=   200000004 NGrid=           0
         NMat0=    1 NMatS0=      1 NMatT0=    0 NMatD0=    1 NMtDS0=    0 NMtDT0=    0
 Petite list used in FoFCou.
 Initial guess orbital symmetries:
       Occupied  (A') (A') (A') (A') (A') (A') (A') (A') (A') (A')
                 (A') (A') (A') (A') (A') (A') (A') (A') (A') (A')
                 (A') (A') (A') (A') (A') (A') (A') (A') (A') (A')
                 (A') (A') (A") (A') (A') (A') (A') (A') (A") (A')
                 (A") (A') (A') (A") (A") (A") (A")
       Virtual   (A") (A") (A") (A") (A") (A') (A') (A') (A') (A")
                 (A") (A') (A') (A') (A") (A') (A') (A') (A') (A")
                 (A') (A") (A') (A') (A') (A") (A') (A") (A') (A')
                 (A') (A') (A') (A') (A") (A') (A") (A') (A') (A')
                 (A") (A') (A") (A') (A') (A') (A') (A') (A") (A')
                 (A') (A') (A") (A") (A') (A') (A') (A") (A") (A')
                 (A') (A') (A') (A') (A') (A') (A") (A') (A') (A")
                 (A') (A') (A') (A') (A') (A') (A') (A') (A') (A')
                 (A') (A') (A') (A') (A') (A') (A') (A') (A') (A')
                 (A') (A') (A') (A') (A') (A') (A') (A") (A') (A")
                 (A') (A') (A") (A") (A') (A") (A') (A") (A") (A')
                 (A") (A') (A') (A') (A") (A') (A') (A") (A") (A')
                 (A") (A") (A') (A') (A') (A") (A') (A') (A') (A")
                 (A') (A') (A') (A') (A') (A') (A") (A') (A') (A')
                 (A') (A') (A') (A') (A') (A') (A') (A') (A') (A")
                 (A") (A') (A") (A") (A') (A') (A') (A") (A") (A')
                 (A") (A') (A") (A") (A") (A') (A') (A') (A') (A')
                 (A') (A") (A') (A') (A") (A') (A') (A') (A') (A")
                 (A') (A') (A') (A') (A") (A') (A") (A') (A") (A")
                 (A") (A') (A') (A") (A') (A') (A') (A") (A') (A')
                 (A") (A") (A") (A') (A') (A") (A') (A") (A') (A')
                 (A") (A") (A') (A") (A') (A") (A') (A') (A') (A")
                 (A') (A') (A') (A') (A") (A') (A') (A') (A") (A")
                 (A') (A') (A') (A") (A') (A') (A") (A') (A") (A')
                 (A") (A') (A') (A') (A') (A") (A') (A') (A') (A")
                 (A') (A') (A') (A") (A") (A') (A') (A") (A') (A')
                 (A') (A") (A') (A") (A') (A') (A') (A") (A') (A")
                 (A') (A') (A') (A') (A") (A') (A") (A') (A") (A")
                 (A') (A') (A") (A") (A") (A') (A') (A') (A') (A')
                 (A') (A') (A') (A') (A') (A') (A') (A') (A') (A')
                 (A') (A') (A') (A') (A") (A') (A') (A') (A') (A')
                 (A') (A') (A') (A') (A') (A') (A') (A') (A') (A')
                 (A') (A') (A') (A') (A') (A') (A') (A') (A') (A')
                 (A') (A')
 The electronic state of the initial guess is 1-A'.
 Requested convergence on RMS density matrix=1.00D-08 within 128 cycles.
 Requested convergence on MAX density matrix=1.00D-06.
 Requested convergence on             energy=1.00D-06.
 No special actions if energy rises.
 SCF Done:  E(RM062X) =  -539.752879143     A.U. after   15 cycles
            NFock= 15  Conv=0.95D-08     -V/T= 2.0041
 DoSCS=F DFT=T ScalE2(SS,OS)=  1.000000  1.000000
 ExpMin= 3.60D-02 ExpMax= 4.56D+03 ExpMxC= 6.82D+02 IAcc=3 IRadAn=         5 AccDes= 0.00D+00
 HarFok:  IExCor=  205 AccDes= 0.00D+00 IRadAn=         5 IDoV=-2 UseB2=F ITyADJ=14
 ICtDFT= 12500011 ScaDFX=  1.000000  1.000000  1.000000  1.000000
 Range of M.O.s used for correlation:    15   379
 NBasis=   385 NAE=    47 NBE=    47 NFC=    14 NFV=     0
 NROrb=    365 NOA=    33 NOB=    33 NVA=   332 NVB=   332

 **** Warning!!: The largest alpha MO coefficient is  0.13942814D+03

 Orbital symmetries:
       Occupied  (A') (A') (A') (A') (A') (A') (A') (A') (A') (A')
                 (A') (A') (A') (A') (A') (A') (A') (A') (A') (A')
                 (A') (A') (A') (A') (A') (A') (A') (A') (A') (A')
                 (A') (A") (A') (A') (A') (A') (A') (A") (A') (A")
                 (A') (A') (A') (A") (A") (A") (A")
       Virtual   (A") (A") (A") (A") (A') (A') (A') (A') (A") (A')
                 (A') (A") (A') (A') (A") (A') (A") (A') (A') (A')
                 (A") (A") (A') (A') (A') (A") (A') (A") (A') (A')
                 (A") (A') (A") (A') (A') (A') (A') (A') (A") (A')
                 (A") (A') (A') (A") (A") (A') (A") (A') (A") (A')
                 (A') (A') (A') (A') (A') (A") (A') (A') (A') (A')
                 (A') (A") (A') (A') (A') (A") (A') (A') (A') (A')
                 (A') (A') (A') (A') (A') (A') (A') (A') (A') (A')
                 (A') (A') (A') (A') (A') (A') (A') (A') (A') (A')
                 (A') (A') (A') (A') (A") (A') (A") (A") (A') (A")
                 (A') (A') (A') (A') (A") (A") (A') (A") (A") (A')
                 (A') (A') (A") (A') (A") (A') (A') (A") (A') (A")
                 (A") (A') (A") (A') (A') (A') (A") (A') (A') (A')
                 (A') (A') (A') (A') (A') (A') (A') (A') (A') (A')
                 (A') (A') (A') (A") (A') (A') (A') (A') (A') (A')
                 (A') (A") (A') (A') (A") (A') (A") (A") (A') (A")
                 (A") (A') (A') (A") (A") (A") (A') (A") (A') (A')
                 (A') (A') (A') (A") (A") (A') (A') (A') (A') (A")
                 (A') (A') (A') (A") (A") (A') (A') (A") (A') (A")
                 (A") (A') (A') (A") (A') (A") (A') (A') (A') (A')
                 (A") (A") (A") (A') (A") (A') (A') (A") (A') (A')
                 (A') (A") (A") (A') (A") (A') (A") (A') (A') (A")
                 (A') (A') (A') (A') (A") (A') (A') (A') (A") (A")
                 (A') (A') (A') (A") (A') (A') (A') (A") (A") (A')
                 (A") (A') (A') (A") (A') (A') (A') (A') (A') (A')
                 (A") (A') (A') (A') (A') (A") (A") (A") (A') (A')
                 (A') (A') (A') (A') (A') (A') (A') (A") (A') (A')
                 (A') (A") (A') (A") (A") (A") (A') (A") (A") (A')
                 (A') (A") (A") (A') (A") (A") (A') (A') (A') (A')
                 (A') (A') (A') (A') (A') (A') (A') (A') (A') (A')
                 (A') (A') (A') (A") (A') (A') (A') (A') (A') (A')
                 (A') (A') (A') (A') (A') (A') (A') (A') (A') (A')
                 (A') (A') (A') (A') (A') (A') (A') (A') (A') (A')
                 (A') (A')
     4 initial guesses have been made.
 Convergence on wavefunction:    0.001000000000000
 Iteration     1 Dimension     4 NMult     0 NNew      4
 CISAX will form     4 AO SS matrices at one time.
 Iteration     2 Dimension     6 NMult     4 NNew      2
 Iteration     3 Dimension     8 NMult     6 NNew      2
 Iteration     4 Dimension    10 NMult     8 NNew      2
 Iteration     5 Dimension    12 NMult    10 NNew      2
 Iteration     6 Dimension    14 NMult    12 NNew      2
 ***********************************************************************
 Excited states from <AA,BB:AA,BB> singles matrix:
 ***********************************************************************
 
 Ground to excited state transition densities written to RWF  633
 Ground to excited state transition electric dipole moments (Au):
       state          X           Y           Z        Dip. S.      Osc.
         1        -0.4514     -0.2939     -0.0000      0.2902      0.0189
 Ground to excited state transition velocity dipole moments (Au):
       state          X           Y           Z        Dip. S.      Osc.
         1         0.0518      0.0284      0.0000      0.0035      0.0238
 Ground to excited state transition magnetic dipole moments (Au):
       state          X           Y           Z
         1         0.0000     -0.0000     -0.1395
 Ground to excited state transition velocity quadrupole moments (Au):
       state          XX          YY          ZZ          XY          XZ          YZ
         1        -0.1347     -0.1247      0.0081      0.1318      0.0000     -0.0000
 <0|del|b> * <b|rxdel|0> + <0|del|b> * <b|delr+rdel|0>
 Rotatory Strengths (R) in cgs (10**-40 erg-esu-cm/Gauss)
       state          XX          YY          ZZ    R(velocity)    E-M Angle
         1        -0.0000     -0.0000      0.0000      0.0000       90.00
 1/2[<0|r|b>*<b|rxdel|0> + (<0|rxdel|b>*<b|r|0>)*]
 Rotatory Strengths (R) in cgs (10**-40 erg-esu-cm/Gauss)
       state          XX          YY          ZZ     R(length)
         1         0.0000     -0.0000     -0.0000     -0.0000
  1/2[<0|del|b>*<b|r|0> + (<0|r|b>*<b|del|0>)*] (Au)
       state          X           Y           Z        Dip. S.   Osc.(frdel)
         1        -0.0234     -0.0084     -0.0000      0.0317      0.0211

 Excitation energies and oscillator strengths:
 
 Excited State   1:      Singlet-A'     2.6543 eV  467.11 nm  f=0.0189  <S**2>=0.000
      47 -> 48         0.70342
 This state for optimization and/or second-order correction.
 Total Energy, E(TD-HF/TD-DFT) =  -539.655335967    
 Copying the excited state density for this state as the 1-particle RhoCI density.
 SavETr:  write IOETrn=   770 NScale= 10 NData=  16 NLR=1 NState=    1 LETran=      28.

 **********************************************************************

            Population analysis using the SCF Density.

 **********************************************************************

 Orbital symmetries:
       Occupied  (A') (A') (A') (A') (A') (A') (A') (A') (A') (A')
                 (A') (A') (A') (A') (A') (A') (A') (A') (A') (A')
                 (A') (A') (A') (A') (A') (A') (A') (A') (A') (A')
                 (A') (A") (A') (A') (A') (A') (A') (A") (A') (A")
                 (A') (A') (A') (A") (A") (A") (A")
       Virtual   (A") (A") (A") (A") (A') (A') (A') (A') (A") (A')
                 (A') (A") (A') (A') (A") (A') (A") (A') (A') (A')
                 (A") (A") (A') (A') (A') (A") (A') (A") (A') (A')
                 (A") (A') (A") (A') (A') (A') (A') (A') (A") (A')
                 (A") (A') (A') (A") (A") (A') (A") (A') (A") (A')
                 (A') (A') (A') (A') (A') (A") (A') (A') (A') (A')
                 (A') (A") (A') (A') (A') (A") (A') (A') (A') (A')
                 (A') (A') (A') (A') (A') (A') (A') (A') (A') (A')
                 (A') (A') (A') (A') (A') (A') (A') (A') (A') (A')
                 (A') (A') (A') (A') (A") (A') (A") (A") (A') (A")
                 (A') (A') (A') (A') (A") (A") (A') (A") (A") (A')
                 (A') (A') (A") (A') (A") (A') (A') (A") (A') (A")
                 (A") (A') (A") (A') (A') (A') (A") (A') (A') (A')
                 (A') (A') (A') (A') (A') (A') (A') (A') (A') (A')
                 (A') (A') (A') (A") (A') (A') (A') (A') (A') (A')
                 (A') (A") (A') (A') (A") (A') (A") (A") (A') (A")
                 (A") (A') (A') (A") (A") (A") (A') (A") (A') (A')
                 (A') (A') (A') (A") (A") (A') (A') (A') (A') (A")
                 (A') (A') (A') (A") (A") (A') (A') (A") (A') (A")
                 (A") (A') (A') (A") (A') (A") (A') (A') (A') (A')
                 (A") (A") (A") (A') (A") (A') (A') (A") (A') (A')
                 (A') (A") (A") (A') (A") (A') (A") (A') (A') (A")
                 (A') (A') (A') (A') (A") (A') (A') (A') (A") (A")
                 (A') (A') (A') (A") (A') (A') (A') (A") (A") (A')
                 (A") (A') (A') (A") (A') (A') (A') (A') (A') (A')
                 (A") (A') (A') (A') (A') (A") (A") (A") (A') (A')
                 (A') (A') (A') (A') (A') (A') (A') (A") (A') (A')
                 (A') (A") (A') (A") (A") (A") (A') (A") (A") (A')
                 (A') (A") (A") (A') (A") (A") (A') (A') (A') (A')
                 (A') (A') (A') (A') (A') (A') (A') (A') (A') (A')
                 (A') (A') (A') (A") (A') (A') (A') (A') (A') (A')
                 (A') (A') (A') (A') (A') (A') (A') (A') (A') (A')
                 (A') (A') (A') (A') (A') (A') (A') (A') (A') (A')
                 (A') (A')
 The electronic state is 1-A'.
 Alpha  occ. eigenvalues --  -10.77542 -10.73830 -10.72866 -10.72600 -10.72226
 Alpha  occ. eigenvalues --  -10.71911 -10.71889 -10.70984 -10.70756 -10.70264
 Alpha  occ. eigenvalues --  -10.69964 -10.69884 -10.69674 -10.69281  -1.16553
 Alpha  occ. eigenvalues --   -1.12472  -1.06946  -1.05888  -1.01270  -1.00401
 Alpha  occ. eigenvalues --   -0.95584  -0.91050  -0.86430  -0.85876  -0.83789
 Alpha  occ. eigenvalues --   -0.78322  -0.76161  -0.74359  -0.69916  -0.69254
 Alpha  occ. eigenvalues --   -0.68293  -0.68087  -0.68005  -0.65294  -0.64220
 Alpha  occ. eigenvalues --   -0.62687  -0.61641  -0.60464  -0.59295  -0.59249
 Alpha  occ. eigenvalues --   -0.56818  -0.55451  -0.54316  -0.52448  -0.47367
 Alpha  occ. eigenvalues --   -0.46127  -0.43741
 Alpha virt. eigenvalues --   -0.26119  -0.14675  -0.14049  -0.12749  -0.11194
 Alpha virt. eigenvalues --   -0.10095  -0.09267  -0.07957  -0.07907  -0.07486
 Alpha virt. eigenvalues --   -0.07212  -0.07129  -0.05647  -0.05572  -0.05354
 Alpha virt. eigenvalues --   -0.03852  -0.03667  -0.03265  -0.03134  -0.02155
 Alpha virt. eigenvalues --   -0.01345  -0.00959   0.00186   0.00579   0.00653
 Alpha virt. eigenvalues --    0.01068   0.01501   0.01920   0.02137   0.02306
 Alpha virt. eigenvalues --    0.02451   0.02678   0.02818   0.03212   0.03457
 Alpha virt. eigenvalues --    0.04219   0.04513   0.04736   0.05045   0.05389
 Alpha virt. eigenvalues --    0.06028   0.06292   0.06581   0.07058   0.07271
 Alpha virt. eigenvalues --    0.07903   0.08065   0.08352   0.08667   0.08900
 Alpha virt. eigenvalues --    0.09491   0.09571   0.09938   0.10797   0.10966
 Alpha virt. eigenvalues --    0.11131   0.12082   0.12249   0.12629   0.13022
 Alpha virt. eigenvalues --    0.13504   0.13529   0.13977   0.14340   0.15829
 Alpha virt. eigenvalues --    0.16358   0.16501   0.17337   0.17477   0.17808
 Alpha virt. eigenvalues --    0.18116   0.19076   0.19440   0.19704   0.19905
 Alpha virt. eigenvalues --    0.21525   0.21623   0.22638   0.23155   0.23588
 Alpha virt. eigenvalues --    0.23964   0.24523   0.25405   0.26957   0.27617
 Alpha virt. eigenvalues --    0.28840   0.29322   0.29941   0.31355   0.35736
 Alpha virt. eigenvalues --    0.36592   0.38200   0.39259   0.41030   0.41238
 Alpha virt. eigenvalues --    0.41960   0.42109   0.42990   0.43725   0.44414
 Alpha virt. eigenvalues --    0.44690   0.45173   0.46012   0.46344   0.47886
 Alpha virt. eigenvalues --    0.48362   0.48786   0.49016   0.50570   0.51133
 Alpha virt. eigenvalues --    0.51218   0.52129   0.52151   0.52769   0.54125
 Alpha virt. eigenvalues --    0.54195   0.54583   0.55642   0.56015   0.57547
 Alpha virt. eigenvalues --    0.58226   0.58986   0.61517   0.62276   0.62410
 Alpha virt. eigenvalues --    0.63150   0.63491   0.64893   0.65180   0.67515
 Alpha virt. eigenvalues --    0.70308   0.70460   0.71270   0.72533   0.72958
 Alpha virt. eigenvalues --    0.75611   0.76022   0.76394   0.76734   0.77167
 Alpha virt. eigenvalues --    0.77826   0.78086   0.78311   0.79931   0.80403
 Alpha virt. eigenvalues --    0.81195   0.81613   0.82463   0.82989   0.85280
 Alpha virt. eigenvalues --    0.87115   0.88199   0.88242   0.89266   0.90669
 Alpha virt. eigenvalues --    0.91074   0.91385   0.93300   0.94631   0.96364
 Alpha virt. eigenvalues --    0.96832   1.00266   1.01273   1.01518   1.02940
 Alpha virt. eigenvalues --    1.03220   1.03331   1.04892   1.06108   1.08891
 Alpha virt. eigenvalues --    1.19592   1.22998   1.24157   1.24391   1.28870
 Alpha virt. eigenvalues --    1.29355   1.32049   1.34273   1.35835   1.35997
 Alpha virt. eigenvalues --    1.39303   1.39822   1.40784   1.42955   1.43424
 Alpha virt. eigenvalues --    1.43595   1.44283   1.46289   1.46602   1.46627
 Alpha virt. eigenvalues --    1.47786   1.48196   1.51814   1.53671   1.55770
 Alpha virt. eigenvalues --    1.55804   1.56247   1.56584   1.57856   1.61496
 Alpha virt. eigenvalues --    1.62851   1.63330   1.64275   1.66076   1.68243
 Alpha virt. eigenvalues --    1.68389   1.68699   1.69815   1.74446   1.76032
 Alpha virt. eigenvalues --    1.77178   1.78271   1.79712   1.79874   1.81148
 Alpha virt. eigenvalues --    1.82811   1.83186   1.83562   1.84026   1.84246
 Alpha virt. eigenvalues --    1.84573   1.85431   1.86474   1.88398   1.91445
 Alpha virt. eigenvalues --    1.92183   1.94061   1.95404   1.97773   1.98214
 Alpha virt. eigenvalues --    1.99822   2.02417   2.04583   2.07363   2.11716
 Alpha virt. eigenvalues --    2.12257   2.14365   2.15301   2.19135   2.21298
 Alpha virt. eigenvalues --    2.22789   2.28405   2.30327   2.34479   2.34813
 Alpha virt. eigenvalues --    2.36337   2.38516   2.39767   2.42303   2.44497
 Alpha virt. eigenvalues --    2.46130   2.46522   2.49107   2.53131   2.53948
 Alpha virt. eigenvalues --    2.54319   2.56858   2.57965   2.58461   2.59392
 Alpha virt. eigenvalues --    2.60002   2.61554   2.62068   2.63650   2.63765
 Alpha virt. eigenvalues --    2.64831   2.65012   2.65083   2.65668   2.67897
 Alpha virt. eigenvalues --    2.68573   2.70904   2.71434   2.73422   2.74811
 Alpha virt. eigenvalues --    2.76284   2.78309   2.79639   2.83253   2.83366
 Alpha virt. eigenvalues --    2.84892   2.86287   2.92159   2.97107   2.99335
 Alpha virt. eigenvalues --    3.00274   3.04976   3.09238   3.11226   3.14288
 Alpha virt. eigenvalues --    3.20213   3.21913   3.26023   3.28934   3.30969
 Alpha virt. eigenvalues --    3.32803   3.35193   3.44164   3.46346   3.47041
 Alpha virt. eigenvalues --    3.48411   3.49961   3.56534   3.65630   3.67009
 Alpha virt. eigenvalues --    3.68295   3.93657   3.94002   3.95313   3.96441
 Alpha virt. eigenvalues --    4.03933   4.06576   4.07408   4.12433   4.35200
 Alpha virt. eigenvalues --    4.60798   4.69120   4.70974  23.45144  23.59886
 Alpha virt. eigenvalues --   23.79297  23.80967  23.84530  23.89093  23.92800
 Alpha virt. eigenvalues --   23.95456  23.95949  23.98600  24.04513  24.07131
 Alpha virt. eigenvalues --   24.11996  24.13804
          Condensed to atoms (all electrons):
               1          2          3          4          5          6
     1  C    8.909942   0.027166  -0.389571   2.191715  -0.084421  -0.106543
     2  C    0.027166   7.204241   0.191817  -1.164091   0.018545  -0.014192
     3  C   -0.389571   0.191817   6.592492   0.854713  -0.147036   0.016864
     4  C    2.191715  -1.164091   0.854713  10.355729  -0.391273  -0.111454
     5  C   -0.084421   0.018545  -0.147036  -0.391273  11.942528   0.713078
     6  C   -0.106543  -0.014192   0.016864  -0.111454   0.713078   6.655646
     7  C   -0.002018  -0.000376  -0.013863  -0.038193  -1.051007   0.455938
     8  C    0.407772  -0.033822  -0.085370  -0.001479   1.818455  -0.636392
     9  C   -1.135281  -0.770436   0.304888  -0.416481   0.071035   0.292152
    10  C   -1.373775   0.352706  -0.455219  -2.358661  -2.815719  -0.265127
    11  C    0.355698  -1.108375   1.216777  -0.007282  -1.676940  -0.261041
    12  C   -2.583752   1.827525  -1.555218  -1.689232  -0.504615  -0.080845
    13  C    0.286866  -0.340454  -0.071659  -1.305966  -0.630605   0.814755
    14  C   -1.006277  -0.054434  -0.331011  -0.242077  -1.656544  -1.354080
    15  H    0.369414  -0.108984   0.002967   0.027935   0.004588   0.001062
    16  H   -0.017495   0.375695  -0.012837   0.010801  -0.001371  -0.000314
    17  H   -0.033889  -0.005852   0.368345  -0.067596   0.000399   0.000402
    18  H    0.053076   0.002798  -0.084090   0.449166   0.006130  -0.005244
    19  H   -0.047623  -0.008735   0.053306  -0.053958  -0.091516   0.049702
    20  H    0.007203   0.002201  -0.005143   0.005988   0.473795  -0.084493
    21  H   -0.001362  -0.000382   0.000401   0.000159  -0.068095   0.380144
    22  H    0.001095   0.000403  -0.000342  -0.001612   0.016574  -0.021232
    23  H    0.004734  -0.002870   0.001158   0.006197   0.026985  -0.004368
    24  H    0.028262   0.012667  -0.001551  -0.012008  -0.012283  -0.001516
    25  H    0.028262   0.012667  -0.001551  -0.012008  -0.012283  -0.001516
               7          8          9         10         11         12
     1  C   -0.002018   0.407772  -1.135281  -1.373775   0.355698  -2.583752
     2  C   -0.000376  -0.033822  -0.770436   0.352706  -1.108375   1.827525
     3  C   -0.013863  -0.085370   0.304888  -0.455219   1.216777  -1.555218
     4  C   -0.038193  -0.001479  -0.416481  -2.358661  -0.007282  -1.689232
     5  C   -1.051007   1.818455   0.071035  -2.815719  -1.676940  -0.504615
     6  C    0.455938  -0.636392   0.292152  -0.265127  -0.261041  -0.080845
     7  C    7.191352   0.492014  -0.898667   0.169867  -0.197478  -0.297953
     8  C    0.492014   8.409066  -1.148704  -1.213888   0.198287  -1.194124
     9  C   -0.898667  -1.148704   9.677921   0.234327   1.539232  -1.675829
    10  C    0.169867  -1.213888   0.234327   9.140089  -0.640433   2.556181
    11  C   -0.197478   0.198287   1.539232  -0.640433  14.213308  -3.474054
    12  C   -0.297953  -1.194124  -1.675829   2.556181  -3.474054  16.023444
    13  C   -0.714360   0.322101   1.534998  -0.253772   1.049520  -4.904501
    14  C    1.022523  -1.827718  -2.182505   2.380188  -4.622148   3.075144
    15  H   -0.002248   0.007019   0.093741  -0.010830  -0.029602  -0.039408
    16  H    0.000312   0.000358   0.003026  -0.008414   0.023921  -0.030746
    17  H   -0.000409  -0.001287  -0.006427   0.020999  -0.030757   0.101837
    18  H    0.001991   0.006876  -0.026353   0.016165  -0.001953  -0.065329
    19  H   -0.007311  -0.044161   0.074617   0.421177   0.084832  -0.034615
    20  H    0.002658   0.048219  -0.022257   0.006585  -0.012401  -0.025127
    21  H   -0.022995  -0.018847  -0.004856   0.019191  -0.006349   0.005403
    22  H    0.381247  -0.020019   0.002945  -0.009977   0.003780  -0.010569
    23  H   -0.106272   0.367027   0.090128  -0.008257  -0.003691   0.007964
    24  H    0.015888   0.036984   0.355991   0.005343   0.000476  -0.058674
    25  H    0.015888   0.036984   0.355991   0.005343   0.000476  -0.058674
              13         14         15         16         17         18
     1  C    0.286866  -1.006277   0.369414  -0.017495  -0.033889   0.053076
     2  C   -0.340454  -0.054434  -0.108984   0.375695  -0.005852   0.002798
     3  C   -0.071659  -0.331011   0.002967  -0.012837   0.368345  -0.084090
     4  C   -1.305966  -0.242077   0.027935   0.010801  -0.067596   0.449166
     5  C   -0.630605  -1.656544   0.004588  -0.001371   0.000399   0.006130
     6  C    0.814755  -1.354080   0.001062  -0.000314   0.000402  -0.005244
     7  C   -0.714360   1.022523  -0.002248   0.000312  -0.000409   0.001991
     8  C    0.322101  -1.827718   0.007019   0.000358  -0.001287   0.006876
     9  C    1.534998  -2.182505   0.093741   0.003026  -0.006427  -0.026353
    10  C   -0.253772   2.380188  -0.010830  -0.008414   0.020999   0.016165
    11  C    1.049520  -4.622148  -0.029602   0.023921  -0.030757  -0.001953
    12  C   -4.904501   3.075144  -0.039408  -0.030746   0.101837  -0.065329
    13  C   14.742055  -3.967269   0.008753   0.002072  -0.006234  -0.012041
    14  C   -3.967269  16.303160   0.003541  -0.007397   0.005036  -0.005214
    15  H    0.008753   0.003541   0.446044  -0.009287   0.001355   0.000011
    16  H    0.002072  -0.007397  -0.009287   0.424198  -0.006208   0.001899
    17  H   -0.006234   0.005036   0.001355  -0.006208   0.424830  -0.010357
    18  H   -0.012041  -0.005214   0.000011   0.001899  -0.010357   0.458194
    19  H    0.076477  -0.096798   0.000253  -0.000520   0.001203  -0.006712
    20  H   -0.010479  -0.048613  -0.000109   0.000012  -0.000126   0.001260
    21  H   -0.022327   0.081973   0.000011  -0.000007   0.000010  -0.000162
    22  H    0.027503  -0.032773  -0.000130   0.000008  -0.000007   0.000019
    23  H   -0.032805  -0.010994   0.000563  -0.000125   0.000017  -0.000121
    24  H    0.026004  -0.060001  -0.000837   0.000640  -0.000147   0.000218
    25  H    0.026004  -0.060001  -0.000837   0.000640  -0.000147   0.000218
              19         20         21         22         23         24
     1  C   -0.047623   0.007203  -0.001362   0.001095   0.004734   0.028262
     2  C   -0.008735   0.002201  -0.000382   0.000403  -0.002870   0.012667
     3  C    0.053306  -0.005143   0.000401  -0.000342   0.001158  -0.001551
     4  C   -0.053958   0.005988   0.000159  -0.001612   0.006197  -0.012008
     5  C   -0.091516   0.473795  -0.068095   0.016574   0.026985  -0.012283
     6  C    0.049702  -0.084493   0.380144  -0.021232  -0.004368  -0.001516
     7  C   -0.007311   0.002658  -0.022995   0.381247  -0.106272   0.015888
     8  C   -0.044161   0.048219  -0.018847  -0.020019   0.367027   0.036984
     9  C    0.074617  -0.022257  -0.004856   0.002945   0.090128   0.355991
    10  C    0.421177   0.006585   0.019191  -0.009977  -0.008257   0.005343
    11  C    0.084832  -0.012401  -0.006349   0.003780  -0.003691   0.000476
    12  C   -0.034615  -0.025127   0.005403  -0.010569   0.007964  -0.058674
    13  C    0.076477  -0.010479  -0.022327   0.027503  -0.032805   0.026004
    14  C   -0.096798  -0.048613   0.081973  -0.032773  -0.010994  -0.060001
    15  H    0.000253  -0.000109   0.000011  -0.000130   0.000563  -0.000837
    16  H   -0.000520   0.000012  -0.000007   0.000008  -0.000125   0.000640
    17  H    0.001203  -0.000126   0.000010  -0.000007   0.000017  -0.000147
    18  H   -0.006712   0.001260  -0.000162   0.000019  -0.000121   0.000218
    19  H    0.444123  -0.005982   0.001655  -0.000563   0.000389   0.000595
    20  H   -0.005982   0.449353  -0.010048   0.001968   0.000281   0.000148
    21  H    0.001655  -0.010048   0.419252  -0.006802   0.001552  -0.000136
    22  H   -0.000563   0.001968  -0.006802   0.414238  -0.008614   0.000620
    23  H    0.000389   0.000281   0.001552  -0.008614   0.432865  -0.000938
    24  H    0.000595   0.000148  -0.000136   0.000620  -0.000938   0.493331
    25  H    0.000595   0.000148  -0.000136   0.000620  -0.000938  -0.079326
              25
     1  C    0.028262
     2  C    0.012667
     3  C   -0.001551
     4  C   -0.012008
     5  C   -0.012283
     6  C   -0.001516
     7  C    0.015888
     8  C    0.036984
     9  C    0.355991
    10  C    0.005343
    11  C    0.000476
    12  C   -0.058674
    13  C    0.026004
    14  C   -0.060001
    15  H   -0.000837
    16  H    0.000640
    17  H   -0.000147
    18  H    0.000218
    19  H    0.000595
    20  H    0.000148
    21  H   -0.000136
    22  H    0.000620
    23  H   -0.000938
    24  H   -0.079326
    25  H    0.493331
 Mulliken charges:
               1
     1  C    0.110802
     2  C   -0.415428
     3  C   -0.449266
     4  C   -0.029031
     5  C    0.051599
     6  C   -0.431387
     7  C   -0.396528
     8  C    0.074649
     9  C   -0.343196
    10  C    0.085911
    11  C   -0.613804
    12  C    0.685768
    13  C   -0.644637
    14  C    0.694291
    15  H    0.235014
    16  H    0.251140
    17  H    0.245013
    18  H    0.219555
    19  H    0.189570
    20  H    0.224960
    21  H    0.252752
    22  H    0.261619
    23  H    0.240135
    24  H    0.250249
    25  H    0.250249
 Sum of Mulliken charges =   1.00000
 Mulliken charges with hydrogens summed into heavy atoms:
               1
     1  C    0.345816
     2  C   -0.164288
     3  C   -0.204253
     4  C    0.190524
     5  C    0.276559
     6  C   -0.178635
     7  C   -0.134909
     8  C    0.314783
     9  C    0.157302
    10  C    0.275481
    11  C   -0.613804
    12  C    0.685768
    13  C   -0.644637
    14  C    0.694291
 Electronic spatial extent (au):  <R**2>=           2856.0269
 Charge=              1.0000 electrons
 Dipole moment (field-independent basis, Debye):
    X=              0.4198    Y=             -1.1515    Z=              0.0000  Tot=              1.2256
 Quadrupole moment (field-independent basis, Debye-Ang):
   XX=            -50.9646   YY=            -36.2810   ZZ=            -84.1255
   XY=            -10.3208   XZ=              0.0000   YZ=              0.0000
 Traceless Quadrupole moment (field-independent basis, Debye-Ang):
   XX=              6.1591   YY=             20.8427   ZZ=            -27.0018
   XY=            -10.3208   XZ=              0.0000   YZ=              0.0000
 Octapole moment (field-independent basis, Debye-Ang**2):
  XXX=              3.6267  YYY=             -5.9969  ZZZ=              0.0000  XYY=              4.2549
  XXY=             -8.7364  XXZ=              0.0000  XZZ=              3.5427  YZZ=             -0.0900
  YYZ=              0.0000  XYZ=              0.0000
 Hexadecapole moment (field-independent basis, Debye-Ang**3):
 XXXX=           -980.3982 YYYY=          -1858.5408 ZZZZ=            -99.2997 XXXY=            343.9454
 XXXZ=              0.0000 YYYX=            270.9758 YYYZ=              0.0000 ZZZX=              0.0000
 ZZZY=              0.0000 XXYY=           -453.1355 XXZZ=           -240.1147 YYZZ=           -496.1882
 XXYZ=              0.0000 YYXZ=              0.0000 ZZXY=            181.8897
 N-N= 7.812619036867D+02 E-N=-2.798890094175D+03  KE= 5.375407962787D+02
 Symmetry A'   KE= 5.228846360939D+02
 Symmetry A"   KE= 1.465616018485D+01
 Unable to Open any file for archive entry.
 1\1\GINC-GADI-CPU-CLX-2072\SP\RM062X TD-FC\6-311++G(d,p)\C14H11(1+)\TS
 1578\28-Jul-2022\0\\#n M062X/6-311++G(d,p) TD(NStates=1) EmpiricalDisp
 ersion=GD3 SP\\SP_-14\\1,1\C,0,0.,2.516655,1.360631\C,0,0.,3.725508,0.
 682989\C,0,0.,3.696061,-0.69163\C,0,0.,2.435556,-1.396938\C,0,0.,-2.49
 0756,-1.418138\C,0,0.,-3.671661,-0.73603\C,0,0.,-3.677508,0.660989\C,0
 ,0.,-2.468655,1.360231\C,0,0.,0.0096,1.453369\C,0,0.,-0.0438,-1.429189
 \C,0,0.,1.250455,0.658665\C,0,0.,1.226671,-0.725804\C,0,0.,-1.273655,0
 .695465\C,0,0.,-1.248271,-0.735804\H,0,0.,2.488871,2.443647\H,0,0.,4.6
 58753,1.224489\H,0,0.,4.607862,-1.273549\H,0,0.,2.46195,-2.479259\H,0,
 0.,-0.032,-2.510266\H,0,0.,-2.47315,-2.500859\H,0,0.,-4.610662,-1.2711
 49\H,0,0.,-4.614753,1.198889\H,0,0.,-2.487271,2.443647\H,0,-0.859585,0
 .0564,2.145787\H,0,0.859585,0.0564,2.145787\\Version=ES64L-G16RevC.01\
 State=1-A'\HF=-539.7528791\RMSD=9.487e-09\PG=CS [SG(C14H9),X(H2)]\\@
 The archive entry for this job was punched.


 WISDOM IS KNOWING WHAT TO DO,
 SKILL IS KNOWING HOW TO DO IT,
 AND VIRTUE IS NOT DOING IT.
 Job cpu time:       0 days  0 hours 52 minutes 29.9 seconds.
 Elapsed time:       0 days  0 hours  1 minutes  5.8 seconds.
 File lengths (MBytes):  RWF=    460 Int=      0 D2E=      0 Chk=     15 Scr=      1
 Normal termination of Gaussian 16 at Thu Jul 28 13:15:08 2022.
