 Entering Gaussian System, Link 0=g16
 Initial command:
 /apps/gaussian/g16c01/g16/l1.exe "/jobfs/53005151.gadi-pbs/Gau-4166137.inp" -scrdir="/jobfs/53005151.gadi-pbs/"
 Entering Link 1 = /apps/gaussian/g16c01/g16/l1.exe PID=   4166138.
  
 Copyright (c) 1988-2019, Gaussian, Inc.  All Rights Reserved.
  
 This is part of the Gaussian(R) 16 program.  It is based on
 the Gaussian(R) 09 system (copyright 2009, Gaussian, Inc.),
 the Gaussian(R) 03 system (copyright 2003, Gaussian, Inc.),
 the Gaussian(R) 98 system (copyright 1998, Gaussian, Inc.),
 the Gaussian(R) 94 system (copyright 1995, Gaussian, Inc.),
 the Gaussian 92(TM) system (copyright 1992, Gaussian, Inc.),
 the Gaussian 90(TM) system (copyright 1990, Gaussian, Inc.),
 the Gaussian 88(TM) system (copyright 1988, Gaussian, Inc.),
 the Gaussian 86(TM) system (copyright 1986, Carnegie Mellon
 University), and the Gaussian 82(TM) system (copyright 1983,
 Carnegie Mellon University). Gaussian is a federally registered
 trademark of Gaussian, Inc.
  
 This software contains proprietary and confidential information,
 including trade secrets, belonging to Gaussian, Inc.
  
 This software is provided under written license and may be
 used, copied, transmitted, or stored only in accord with that
 written license.
  
 The following legend is applicable only to US Government
 contracts under FAR:
  
                    RESTRICTED RIGHTS LEGEND
  
 Use, reproduction and disclosure by the US Government is
 subject to restrictions as set forth in subparagraphs (a)
 and (c) of the Commercial Computer Software - Restricted
 Rights clause in FAR 52.227-19.
  
 Gaussian, Inc.
 340 Quinnipiac St., Bldg. 40, Wallingford CT 06492
  
  
 ---------------------------------------------------------------
 Warning -- This program may not be used in any manner that
 competes with the business of Gaussian, Inc. or will provide
 assistance to any competitor of Gaussian, Inc.  The licensee
 of this program is prohibited from giving any competitor of
 Gaussian, Inc. access to this program.  By using this program,
 the user acknowledges that Gaussian, Inc. is engaged in the
 business of creating and licensing software in the field of
 computational chemistry and represents and warrants to the
 licensee that it is not a competitor of Gaussian, Inc. and that
 it will not use this program in any manner prohibited above.
 ---------------------------------------------------------------
  

 Cite this work as:
 Gaussian 16, Revision C.01,
 M. J. Frisch, G. W. Trucks, H. B. Schlegel, G. E. Scuseria, 
 M. A. Robb, J. R. Cheeseman, G. Scalmani, V. Barone, 
 G. A. Petersson, H. Nakatsuji, X. Li, M. Caricato, A. V. Marenich, 
 J. Bloino, B. G. Janesko, R. Gomperts, B. Mennucci, H. P. Hratchian, 
 J. V. Ortiz, A. F. Izmaylov, J. L. Sonnenberg, D. Williams-Young, 
 F. Ding, F. Lipparini, F. Egidi, J. Goings, B. Peng, A. Petrone, 
 T. Henderson, D. Ranasinghe, V. G. Zakrzewski, J. Gao, N. Rega, 
 G. Zheng, W. Liang, M. Hada, M. Ehara, K. Toyota, R. Fukuda, 
 J. Hasegawa, M. Ishida, T. Nakajima, Y. Honda, O. Kitao, H. Nakai, 
 T. Vreven, K. Throssell, J. A. Montgomery, Jr., J. E. Peralta, 
 F. Ogliaro, M. J. Bearpark, J. J. Heyd, E. N. Brothers, K. N. Kudin, 
 V. N. Staroverov, T. A. Keith, R. Kobayashi, J. Normand, 
 K. Raghavachari, A. P. Rendell, J. C. Burant, S. S. Iyengar, 
 J. Tomasi, M. Cossi, J. M. Millam, M. Klene, C. Adamo, R. Cammi, 
 J. W. Ochterski, R. L. Martin, K. Morokuma, O. Farkas, 
 J. B. Foresman, and D. J. Fox, Gaussian, Inc., Wallingford CT, 2019.
 
 ******************************************
 Gaussian 16:  ES64L-G16RevC.01  3-Jul-2019
                28-Jul-2022 
 ******************************************
 %NProcShared=48
 Will use up to   48 processors via shared memory.
 %mem = 190GB
 ---------------------------------------------------------------
 #n M062X/6-311++G(d,p) TD(NStates=1) EmpiricalDispersion=GD3 SP
 ---------------------------------------------------------------
 1/38=1,172=1/1;
 2/12=2,17=6,18=5,40=1/2;
 3/5=4,6=6,7=1111,11=9,25=1,30=1,74=-55,124=31/1,2,3,8;
 4//1;
 5/5=2,38=5/2;
 8/6=1,10=2,108=1/1;
 9/41=1,42=1,70=2/14;
 6/7=2,8=2,9=2,10=2/1;
 99/5=1,9=1/99;
 -----
 SP_-4
 -----
 Symbolic Z-matrix:
 Charge =  1 Multiplicity = 1
 C                     0.        2.49426   1.35983 
 C                     0.        3.71231   0.67579 
 C                     0.        3.68866  -0.70683 
 C                     0.        2.45396  -1.40254 
 C                     0.       -2.47236  -1.41254 
 C                     0.       -3.67906  -0.72083 
 C                     0.       -3.69071   0.66819 
 C                     0.       -2.49106   1.36103 
 C                     0.        0.008     1.45337 
 C                     0.       -0.002    -1.42919 
 C                     0.        1.25545   0.68167 
 C                     0.        1.22847  -0.7412 
 C                     0.       -1.26866   0.67247 
 C                     0.       -1.24647  -0.7204 
 H                     0.        2.50867   2.44365 
 H                     0.        4.65355   1.20549 
 H                     0.        4.61806  -1.25955 
 H                     0.        2.44295  -2.48566 
 H                     0.       -0.019    -2.51027 
 H                     0.       -2.49215  -2.49446 
 H                     0.       -4.60046  -1.28515 
 H                     0.       -4.61995   1.21789 
 H                     0.       -2.46747   2.44365 
 H                    -0.85959   0.0332    2.14579 
 H                     0.85959   0.0332    2.14579 
 
                          Input orientation:                          
 ---------------------------------------------------------------------
 Center     Atomic      Atomic             Coordinates (Angstroms)
 Number     Number       Type             X           Y           Z
 ---------------------------------------------------------------------
      1          6           0        0.000000    2.494255    1.359831
      2          6           0        0.000000    3.712308    0.675789
      3          6           0        0.000000    3.688661   -0.706830
      4          6           0        0.000000    2.453956   -1.402538
      5          6           0        0.000000   -2.472356   -1.412538
      6          6           0        0.000000   -3.679061   -0.720830
      7          6           0        0.000000   -3.690708    0.668189
      8          6           0        0.000000   -2.491055    1.361031
      9          6           0        0.000000    0.008000    1.453369
     10          6           0        0.000000   -0.002000   -1.429189
     11          6           0        0.000000    1.255455    0.681665
     12          6           0        0.000000    1.228471   -0.741204
     13          6           0        0.000000   -1.268655    0.672465
     14          6           0        0.000000   -1.246471   -0.720404
     15          1           0        0.000000    2.508671    2.443647
     16          1           0        0.000000    4.653553    1.205489
     17          1           0        0.000000    4.618062   -1.259549
     18          1           0        0.000000    2.442950   -2.485659
     19          1           0        0.000000   -0.019000   -2.510266
     20          1           0        0.000000   -2.492150   -2.494459
     21          1           0        0.000000   -4.600462   -1.285149
     22          1           0        0.000000   -4.619953    1.217889
     23          1           0        0.000000   -2.467471    2.443647
     24          1           0       -0.859585    0.033200    2.145787
     25          1           0        0.859585    0.033200    2.145787
 ---------------------------------------------------------------------
                    Distance matrix (angstroms):
                    1          2          3          4          5
     1  C    0.000000
     2  C    1.396985   0.000000
     3  C    2.386984   1.382821   0.000000
     4  C    2.762663   2.429587   1.417218   0.000000
     5  C    5.687992   6.527724   6.201303   4.926322   0.000000
     6  C    6.514521   7.522159   7.367735   6.170788   1.390898
     7  C    6.223515   7.403020   7.506382   6.484197   2.411184
     8  C    4.985310   6.241095   6.516513   5.664843   2.773632
     9  C    2.488014   3.785040   4.267754   3.760174   3.790196
    10  C    3.742983   4.269311   3.760689   2.456101   2.470412
    11  C    1.412280   2.456860   2.801501   2.404227   4.275776
    12  C    2.452867   2.859601   2.460430   1.392543   3.761225
    13  C    3.825175   4.980964   5.145623   4.261862   2.407516
    14  C    4.280235   5.151587   4.935151   3.762774   1.407780
    15  H    1.083912   2.138706   3.364206   3.846574   6.299269
    16  H    2.164807   1.080058   2.141957   3.411749   7.591617
    17  H    3.372196   2.136802   1.081335   2.168825   7.092068
    18  H    3.845832   3.406761   2.171642   1.083177   5.031086
    19  H    4.614553   4.906486   4.123000   2.709718   2.687743
    20  H    6.302364   6.967480   6.434131   5.065200   1.082102
    21  H    7.571719   8.540926   8.309273   7.055395   2.131915
    22  H    7.115624   8.349877   8.528635   7.543661   3.395780
    23  H    5.078719   6.427674   6.915451   6.246085   3.856188
    24  H    2.722757   4.054086   4.715793   4.380589   4.436031
    25  H    2.722757   4.054086   4.715793   4.380589   4.436031
                    6          7          8          9         10
     6  C    0.000000
     7  C    1.389068   0.000000
     8  C    2.396978   1.385351   0.000000
     9  C    4.280369   3.781131   2.500760   0.000000
    10  C    3.744670   4.243296   3.739080   2.882575   0.000000
    11  C    5.129955   4.946181   3.807608   1.466858   2.457010
    12  C    4.907574   5.117100   4.272501   2.511115   1.409745
    13  C    2.784121   2.422057   1.402991   1.496549   2.453847
    14  C    2.432590   2.811136   2.425152   2.509778   1.432161
    15  H    6.949960   6.448608   5.115596   2.689611   4.615444
    16  H    8.552378   8.361542   7.146301   4.652162   5.349365
    17  H    8.314594   8.529468   7.576740   5.349074   4.623175
    18  H    6.371314   6.896993   6.256311   4.630866   2.663439
    19  H    4.074080   4.856338   4.593256   3.963727   1.081211
    20  H    2.134132   3.382142   3.855490   4.672911   2.708440
    21  H    1.080479   2.154804   3.384061   5.360728   4.600717
    22  H    2.154973   1.079660   2.133705   4.633940   5.322829
    23  H    3.388490   2.156052   1.082873   2.666197   4.591014
    24  H    4.768360   4.097520   2.779675   1.104067   3.677034
    25  H    4.768360   4.097520   2.779675   1.104067   3.677034
                   11         12         13         14         15
    11  C    0.000000
    12  C    1.423125   0.000000
    13  C    2.524127   2.869512   0.000000
    14  C    2.868001   2.475029   1.393046   0.000000
    15  H    2.162205   3.432519   4.171963   4.910429   0.000000
    16  H    3.438235   3.939645   5.946147   6.206396   2.476601
    17  H    3.882710   3.428995   6.195653   5.889264   4.261830
    18  H    3.382615   2.125578   4.873372   4.089982   4.929744
    19  H    3.436955   2.164663   3.419271   2.170320   5.561508
    20  H    4.912464   4.113019   3.395048   2.167715   7.028023
    21  H    6.177388   5.854258   3.864349   3.401205   8.027683
    22  H    5.899827   6.167829   3.395392   3.890676   7.233240
    23  H    4.118830   4.878859   2.138749   3.391469   4.976142
    24  H    2.091996   3.240722   2.145784   3.254458   2.637340
    25  H    2.091996   3.240722   2.145784   3.254458   2.637340
                   16         17         18         19         20
    16  H    0.000000
    17  H    2.465293   0.000000
    18  H    4.302481   2.496890   0.000000
    19  H    5.969890   4.802774   2.462073   0.000000
    20  H    8.046781   7.216656   4.935108   2.473201   0.000000
    21  H    9.583323   9.218560   7.144990   4.742437   2.430516
    22  H    9.273514   9.564446   7.975015   5.921816   4.278910
    23  H    7.227864   7.994901   6.957751   5.525963   4.938168
    24  H    4.792777   5.775479   5.291132   4.735023   5.352398
    25  H    4.792777   5.775479   5.291132   4.735023   5.352398
                   21         22         23         24         25
    21  H    0.000000
    22  H    2.503114   0.000000
    23  H    4.295762   2.477027   0.000000
    24  H    5.829325   4.822003   2.661008   0.000000
    25  H    5.829325   4.822003   2.661008   1.719170   0.000000
 Stoichiometry    C14H11(1+)
 Framework group  CS[SG(C14H9),X(H2)]
 Deg. of freedom    46
 Full point group                 CS      NOp   2
 Largest Abelian subgroup         CS      NOp   2
 Largest concise Abelian subgroup CS      NOp   2
                         Standard orientation:                         
 ---------------------------------------------------------------------
 Center     Atomic      Atomic             Coordinates (Angstroms)
 Number     Number       Type             X           Y           Z
 ---------------------------------------------------------------------
      1          6           0        0.004696    2.840522    0.000000
      2          6           0       -1.177753    3.584418    0.000000
      3          6           0       -2.381450    2.903752    0.000000
      4          6           0       -2.403516    1.486706    0.000000
      5          6           0       -0.061109   -2.847089    0.000000
      6          6           0        1.122660   -3.577354    0.000000
      7          6           0        2.348827   -2.924648    0.000000
      8          6           0        2.385104   -1.539772    0.000000
      9          6           0        1.273515    0.700356    0.000000
     10          6           0       -1.254775   -0.684198    0.000000
     11          6           0        0.000000    1.428250    0.000000
     12          6           0       -1.237475    0.725441    0.000000
     13          6           0        1.196604   -0.794215    0.000000
     14          6           0       -0.037974   -1.439500    0.000000
     15          1           0        0.950225    3.370466    0.000000
     16          1           0       -1.161507    4.664354    0.000000
     17          1           0       -3.310733    3.456670    0.000000
     18          1           0       -3.350061    0.960090    0.000000
     19          1           0       -2.196663   -1.215105    0.000000
     20          1           0       -1.002406   -3.380855    0.000000
     21          1           0        1.066522   -4.656374    0.000000
     22          1           0        3.275382   -3.478870    0.000000
     23          1           0        3.325202   -1.002344    0.000000
     24          1           0        1.869954    1.052973    0.859585
     25          1           0        1.869954    1.052973   -0.859585
 ---------------------------------------------------------------------
 Rotational constants (GHZ):           2.1362261           0.4446189           0.3688215
 Standard basis: 6-311++G(d,p) (5D, 7F)
 There are   299 symmetry adapted cartesian basis functions of A'  symmetry.
 There are   100 symmetry adapted cartesian basis functions of A"  symmetry.
 There are   285 symmetry adapted basis functions of A'  symmetry.
 There are   100 symmetry adapted basis functions of A"  symmetry.
   385 basis functions,   603 primitive gaussians,   399 cartesian basis functions
    47 alpha electrons       47 beta electrons
       nuclear repulsion energy       781.2058942677 Hartrees.
 NAtoms=   25 NActive=   25 NUniq=   24 SFac= 1.09D+00 NAtFMM=   60 NAOKFM=F Big=F
 Integral buffers will be    131072 words long.
 Regular integral format.
 Two-electron integral symmetry is turned on.
 Nuclear repulsion after empirical dispersion term =      781.2049148519 Hartrees.
 One-electron integrals computed using PRISM.
 NBasis=   385 RedAO= T EigKep=  1.11D-06  NBF=   285   100
 NBsUse=   379 1.00D-06 EigRej=  8.36D-07 NBFU=   279   100
 ExpMin= 3.60D-02 ExpMax= 4.56D+03 ExpMxC= 6.82D+02 IAcc=3 IRadAn=         5 AccDes= 0.00D+00
 Harris functional with IExCor= 1009 and IRadAn=       5 diagonalized for initial guess.
 HarFok:  IExCor= 1009 AccDes= 0.00D+00 IRadAn=         5 IDoV= 1 UseB2=F ITyADJ=14
 ICtDFT=  3500011 ScaDFX=  1.000000  1.000000  1.000000  1.000000
 FoFCou: FMM=F IPFlag=           0 FMFlag=      100000 FMFlg1=           0
         NFxFlg=           0 DoJE=T BraDBF=F KetDBF=T FulRan=T
         wScrn=  0.000000 ICntrl=       500 IOpCl=  0 I1Cent=   200000004 NGrid=           0
         NMat0=    1 NMatS0=      1 NMatT0=    0 NMatD0=    1 NMtDS0=    0 NMtDT0=    0
 Petite list used in FoFCou.
 Initial guess orbital symmetries:
       Occupied  (A') (A') (A') (A') (A') (A') (A') (A') (A') (A')
                 (A') (A') (A') (A') (A') (A') (A') (A') (A') (A')
                 (A') (A') (A') (A') (A') (A') (A') (A') (A') (A')
                 (A') (A') (A") (A') (A') (A') (A') (A') (A") (A')
                 (A") (A') (A') (A") (A") (A") (A")
       Virtual   (A") (A") (A") (A") (A") (A') (A') (A') (A') (A")
                 (A") (A') (A') (A') (A") (A') (A') (A') (A') (A")
                 (A') (A") (A') (A') (A') (A") (A') (A") (A') (A')
                 (A') (A') (A') (A") (A') (A') (A") (A') (A') (A")
                 (A') (A') (A') (A") (A') (A') (A') (A') (A') (A")
                 (A') (A") (A') (A") (A') (A') (A') (A") (A") (A')
                 (A') (A') (A') (A') (A') (A') (A") (A') (A') (A")
                 (A') (A') (A') (A') (A') (A') (A') (A') (A') (A')
                 (A') (A') (A') (A') (A') (A') (A') (A') (A') (A')
                 (A') (A') (A') (A') (A') (A') (A') (A") (A') (A")
                 (A') (A') (A") (A") (A') (A") (A') (A") (A') (A")
                 (A") (A') (A') (A') (A") (A') (A') (A") (A") (A')
                 (A") (A") (A') (A') (A') (A") (A') (A') (A') (A")
                 (A') (A') (A') (A') (A') (A') (A") (A') (A') (A')
                 (A') (A') (A') (A') (A') (A') (A') (A') (A') (A")
                 (A") (A') (A") (A") (A') (A') (A') (A") (A") (A')
                 (A") (A') (A") (A") (A") (A') (A') (A') (A') (A')
                 (A') (A") (A') (A") (A') (A') (A') (A') (A') (A")
                 (A') (A') (A') (A') (A') (A") (A") (A') (A") (A")
                 (A') (A") (A') (A") (A') (A') (A') (A") (A') (A')
                 (A") (A") (A") (A') (A') (A") (A') (A") (A') (A')
                 (A") (A") (A') (A") (A') (A") (A') (A') (A') (A")
                 (A') (A') (A') (A') (A") (A') (A') (A') (A") (A")
                 (A') (A') (A') (A") (A') (A') (A") (A') (A") (A')
                 (A") (A') (A') (A') (A') (A") (A') (A') (A') (A")
                 (A') (A') (A") (A') (A") (A') (A') (A") (A') (A')
                 (A') (A") (A') (A") (A') (A') (A') (A") (A') (A")
                 (A') (A') (A') (A') (A") (A') (A") (A') (A") (A')
                 (A") (A') (A") (A") (A") (A') (A') (A') (A') (A')
                 (A') (A') (A') (A') (A') (A') (A') (A') (A') (A')
                 (A') (A') (A') (A') (A") (A') (A') (A') (A') (A')
                 (A') (A') (A') (A') (A') (A') (A') (A') (A') (A')
                 (A') (A') (A') (A') (A') (A') (A') (A') (A') (A')
                 (A') (A')
 The electronic state of the initial guess is 1-A'.
 Requested convergence on RMS density matrix=1.00D-08 within 128 cycles.
 Requested convergence on MAX density matrix=1.00D-06.
 Requested convergence on             energy=1.00D-06.
 No special actions if energy rises.
 SCF Done:  E(RM062X) =  -539.758500565     A.U. after   15 cycles
            NFock= 15  Conv=0.63D-08     -V/T= 2.0042
 DoSCS=F DFT=T ScalE2(SS,OS)=  1.000000  1.000000
 ExpMin= 3.60D-02 ExpMax= 4.56D+03 ExpMxC= 6.82D+02 IAcc=3 IRadAn=         5 AccDes= 0.00D+00
 HarFok:  IExCor=  205 AccDes= 0.00D+00 IRadAn=         5 IDoV=-2 UseB2=F ITyADJ=14
 ICtDFT= 12500011 ScaDFX=  1.000000  1.000000  1.000000  1.000000
 Range of M.O.s used for correlation:    15   379
 NBasis=   385 NAE=    47 NBE=    47 NFC=    14 NFV=     0
 NROrb=    365 NOA=    33 NOB=    33 NVA=   332 NVB=   332

 **** Warning!!: The largest alpha MO coefficient is  0.15744857D+03

 Orbital symmetries:
       Occupied  (A') (A') (A') (A') (A') (A') (A') (A') (A') (A')
                 (A') (A') (A') (A') (A') (A') (A') (A') (A') (A')
                 (A') (A') (A') (A') (A') (A') (A') (A') (A') (A')
                 (A') (A') (A") (A') (A') (A') (A') (A") (A") (A')
                 (A') (A') (A') (A") (A") (A") (A")
       Virtual   (A") (A") (A") (A") (A') (A') (A') (A') (A") (A')
                 (A') (A") (A') (A') (A") (A') (A") (A') (A') (A')
                 (A") (A") (A') (A') (A') (A") (A') (A") (A') (A')
                 (A") (A') (A") (A') (A') (A') (A') (A') (A") (A')
                 (A") (A') (A') (A") (A") (A') (A") (A') (A") (A')
                 (A') (A') (A') (A') (A') (A") (A') (A') (A') (A')
                 (A') (A") (A') (A') (A') (A') (A") (A') (A') (A')
                 (A') (A') (A') (A') (A') (A') (A') (A') (A') (A')
                 (A') (A') (A') (A') (A') (A') (A') (A') (A') (A')
                 (A') (A') (A') (A') (A") (A') (A") (A") (A') (A")
                 (A') (A') (A') (A') (A") (A") (A') (A") (A") (A')
                 (A') (A') (A") (A') (A') (A") (A') (A") (A') (A")
                 (A") (A') (A") (A') (A') (A') (A") (A') (A') (A')
                 (A') (A') (A') (A') (A') (A') (A') (A') (A') (A')
                 (A') (A') (A') (A") (A') (A') (A') (A') (A') (A')
                 (A') (A') (A") (A') (A") (A') (A") (A") (A') (A")
                 (A") (A') (A') (A") (A") (A") (A') (A") (A') (A')
                 (A') (A') (A') (A") (A") (A') (A') (A') (A') (A")
                 (A') (A') (A') (A") (A') (A") (A') (A') (A") (A")
                 (A") (A') (A') (A") (A') (A") (A') (A') (A') (A')
                 (A") (A") (A") (A') (A') (A") (A') (A") (A') (A')
                 (A') (A") (A") (A') (A") (A') (A") (A') (A') (A")
                 (A') (A') (A') (A') (A") (A') (A') (A') (A") (A")
                 (A') (A') (A') (A") (A') (A') (A') (A") (A") (A')
                 (A") (A') (A') (A") (A') (A') (A') (A') (A') (A')
                 (A") (A') (A') (A') (A') (A") (A") (A") (A') (A')
                 (A') (A') (A') (A') (A') (A') (A") (A') (A') (A')
                 (A') (A") (A') (A") (A") (A") (A') (A") (A') (A")
                 (A') (A") (A") (A') (A") (A") (A') (A') (A') (A')
                 (A') (A') (A') (A') (A') (A') (A') (A') (A') (A')
                 (A') (A') (A') (A") (A') (A') (A') (A') (A') (A')
                 (A') (A') (A') (A') (A') (A') (A') (A') (A') (A')
                 (A') (A') (A') (A') (A') (A') (A') (A') (A') (A')
                 (A') (A')
     4 initial guesses have been made.
 Convergence on wavefunction:    0.001000000000000
 Iteration     1 Dimension     4 NMult     0 NNew      4
 CISAX will form     4 AO SS matrices at one time.
 Iteration     2 Dimension     6 NMult     4 NNew      2
 Iteration     3 Dimension     8 NMult     6 NNew      2
 Iteration     4 Dimension    10 NMult     8 NNew      2
 Iteration     5 Dimension    12 NMult    10 NNew      2
 Iteration     6 Dimension    14 NMult    12 NNew      2
 ***********************************************************************
 Excited states from <AA,BB:AA,BB> singles matrix:
 ***********************************************************************
 
 Ground to excited state transition densities written to RWF  633
 Ground to excited state transition electric dipole moments (Au):
       state          X           Y           Z        Dip. S.      Osc.
         1         0.5200      0.3864     -0.0000      0.4197      0.0289
 Ground to excited state transition velocity dipole moments (Au):
       state          X           Y           Z        Dip. S.      Osc.
         1        -0.0610     -0.0426     -0.0000      0.0055      0.0358
 Ground to excited state transition magnetic dipole moments (Au):
       state          X           Y           Z
         1        -0.0000     -0.0000      0.1876
 Ground to excited state transition velocity quadrupole moments (Au):
       state          XX          YY          ZZ          XY          XZ          YZ
         1         0.1366      0.1893     -0.0097     -0.1361     -0.0000     -0.0000
 <0|del|b> * <b|rxdel|0> + <0|del|b> * <b|delr+rdel|0>
 Rotatory Strengths (R) in cgs (10**-40 erg-esu-cm/Gauss)
       state          XX          YY          ZZ    R(velocity)    E-M Angle
         1        -0.0000     -0.0000      0.0000     -0.0000       90.00
 1/2[<0|r|b>*<b|rxdel|0> + (<0|rxdel|b>*<b|r|0>)*]
 Rotatory Strengths (R) in cgs (10**-40 erg-esu-cm/Gauss)
       state          XX          YY          ZZ     R(length)
         1         0.0000      0.0000      0.0000      0.0000
  1/2[<0|del|b>*<b|r|0> + (<0|r|b>*<b|del|0>)*] (Au)
       state          X           Y           Z        Dip. S.   Osc.(frdel)
         1        -0.0317     -0.0165      0.0000      0.0482      0.0321

 Excitation energies and oscillator strengths:
 
 Excited State   1:      Singlet-A'     2.8113 eV  441.03 nm  f=0.0289  <S**2>=0.000
      47 -> 48         0.70363
 This state for optimization and/or second-order correction.
 Total Energy, E(TD-HF/TD-DFT) =  -539.655188614    
 Copying the excited state density for this state as the 1-particle RhoCI density.
 SavETr:  write IOETrn=   770 NScale= 10 NData=  16 NLR=1 NState=    1 LETran=      28.

 **********************************************************************

            Population analysis using the SCF Density.

 **********************************************************************

 Orbital symmetries:
       Occupied  (A') (A') (A') (A') (A') (A') (A') (A') (A') (A')
                 (A') (A') (A') (A') (A') (A') (A') (A') (A') (A')
                 (A') (A') (A') (A') (A') (A') (A') (A') (A') (A')
                 (A') (A') (A") (A') (A') (A') (A') (A") (A") (A')
                 (A') (A') (A') (A") (A") (A") (A")
       Virtual   (A") (A") (A") (A") (A') (A') (A') (A') (A") (A')
                 (A') (A") (A') (A') (A") (A') (A") (A') (A') (A')
                 (A") (A") (A') (A') (A') (A") (A') (A") (A') (A')
                 (A") (A') (A") (A') (A') (A') (A') (A') (A") (A')
                 (A") (A') (A') (A") (A") (A') (A") (A') (A") (A')
                 (A') (A') (A') (A') (A') (A") (A') (A') (A') (A')
                 (A') (A") (A') (A') (A') (A') (A") (A') (A') (A')
                 (A') (A') (A') (A') (A') (A') (A') (A') (A') (A')
                 (A') (A') (A') (A') (A') (A') (A') (A') (A') (A')
                 (A') (A') (A') (A') (A") (A') (A") (A") (A') (A")
                 (A') (A') (A') (A') (A") (A") (A') (A") (A") (A')
                 (A') (A') (A") (A') (A') (A") (A') (A") (A') (A")
                 (A") (A') (A") (A') (A') (A') (A") (A') (A') (A')
                 (A') (A') (A') (A') (A') (A') (A') (A') (A') (A')
                 (A') (A') (A') (A") (A') (A') (A') (A') (A') (A')
                 (A') (A') (A") (A') (A") (A') (A") (A") (A') (A")
                 (A") (A') (A') (A") (A") (A") (A') (A") (A') (A')
                 (A') (A') (A') (A") (A") (A') (A') (A') (A') (A")
                 (A') (A') (A') (A") (A') (A") (A') (A') (A") (A")
                 (A") (A') (A') (A") (A') (A") (A') (A') (A') (A')
                 (A") (A") (A") (A') (A') (A") (A') (A") (A') (A')
                 (A') (A") (A") (A') (A") (A') (A") (A') (A') (A")
                 (A') (A') (A') (A') (A") (A') (A') (A') (A") (A")
                 (A') (A') (A') (A") (A') (A') (A') (A") (A") (A')
                 (A") (A') (A') (A") (A') (A') (A') (A') (A') (A')
                 (A") (A') (A') (A') (A') (A") (A") (A") (A') (A')
                 (A') (A') (A') (A') (A') (A') (A") (A') (A') (A')
                 (A') (A") (A') (A") (A") (A") (A') (A") (A') (A")
                 (A') (A") (A") (A') (A") (A") (A') (A') (A') (A')
                 (A') (A') (A') (A') (A') (A') (A') (A') (A') (A')
                 (A') (A') (A') (A") (A') (A') (A') (A') (A') (A')
                 (A') (A') (A') (A') (A') (A') (A') (A') (A') (A')
                 (A') (A') (A') (A') (A') (A') (A') (A') (A') (A')
                 (A') (A')
 The electronic state is 1-A'.
 Alpha  occ. eigenvalues --  -10.77664 -10.73393 -10.73089 -10.72455 -10.72412
 Alpha  occ. eigenvalues --  -10.71593 -10.71147 -10.71128 -10.70984 -10.70878
 Alpha  occ. eigenvalues --  -10.70109 -10.69835 -10.69808 -10.69449  -1.16452
 Alpha  occ. eigenvalues --   -1.12476  -1.06947  -1.05751  -1.01313  -1.00215
 Alpha  occ. eigenvalues --   -0.95767  -0.91063  -0.86418  -0.85894  -0.83808
 Alpha  occ. eigenvalues --   -0.78399  -0.76033  -0.74410  -0.69638  -0.69185
 Alpha  occ. eigenvalues --   -0.68517  -0.68172  -0.68107  -0.64754  -0.64279
 Alpha  occ. eigenvalues --   -0.63054  -0.61838  -0.60040  -0.59655  -0.59103
 Alpha  occ. eigenvalues --   -0.56895  -0.55192  -0.54816  -0.52443  -0.46638
 Alpha  occ. eigenvalues --   -0.46074  -0.44471
 Alpha virt. eigenvalues --   -0.26090  -0.14698  -0.14071  -0.12764  -0.11179
 Alpha virt. eigenvalues --   -0.10088  -0.09230  -0.07985  -0.07965  -0.07475
 Alpha virt. eigenvalues --   -0.07203  -0.07144  -0.05644  -0.05582  -0.05335
 Alpha virt. eigenvalues --   -0.03829  -0.03647  -0.03286  -0.03131  -0.02164
 Alpha virt. eigenvalues --   -0.01367  -0.00932   0.00189   0.00587   0.00653
 Alpha virt. eigenvalues --    0.01055   0.01513   0.01932   0.02208   0.02277
 Alpha virt. eigenvalues --    0.02453   0.02671   0.02754   0.03331   0.03357
 Alpha virt. eigenvalues --    0.04238   0.04512   0.04696   0.05031   0.05365
 Alpha virt. eigenvalues --    0.06033   0.06292   0.06593   0.07045   0.07254
 Alpha virt. eigenvalues --    0.07892   0.08157   0.08354   0.08548   0.08922
 Alpha virt. eigenvalues --    0.09456   0.09638   0.09986   0.10826   0.11031
 Alpha virt. eigenvalues --    0.11114   0.12141   0.12255   0.12908   0.12979
 Alpha virt. eigenvalues --    0.13380   0.13524   0.14029   0.14429   0.16179
 Alpha virt. eigenvalues --    0.16324   0.16347   0.17337   0.17637   0.17793
 Alpha virt. eigenvalues --    0.18115   0.18973   0.19239   0.19673   0.19786
 Alpha virt. eigenvalues --    0.21553   0.21576   0.22741   0.23107   0.23542
 Alpha virt. eigenvalues --    0.23843   0.24581   0.25361   0.26893   0.27636
 Alpha virt. eigenvalues --    0.28813   0.29352   0.29864   0.31382   0.35619
 Alpha virt. eigenvalues --    0.36565   0.38178   0.39264   0.41175   0.41400
 Alpha virt. eigenvalues --    0.41982   0.42157   0.42998   0.43656   0.44292
 Alpha virt. eigenvalues --    0.44708   0.45250   0.45951   0.46397   0.47931
 Alpha virt. eigenvalues --    0.48528   0.48852   0.49038   0.50421   0.51125
 Alpha virt. eigenvalues --    0.51493   0.51776   0.52118   0.52922   0.53976
 Alpha virt. eigenvalues --    0.54095   0.54673   0.55667   0.55765   0.57462
 Alpha virt. eigenvalues --    0.58240   0.58836   0.61445   0.62055   0.62479
 Alpha virt. eigenvalues --    0.63228   0.63503   0.64908   0.65236   0.67241
 Alpha virt. eigenvalues --    0.70374   0.70633   0.71013   0.72381   0.72834
 Alpha virt. eigenvalues --    0.75701   0.76051   0.76336   0.76930   0.77084
 Alpha virt. eigenvalues --    0.77707   0.78010   0.78230   0.79887   0.80381
 Alpha virt. eigenvalues --    0.81258   0.81664   0.82165   0.83046   0.85162
 Alpha virt. eigenvalues --    0.87148   0.88165   0.88566   0.89158   0.90346
 Alpha virt. eigenvalues --    0.91096   0.91296   0.93237   0.94622   0.96360
 Alpha virt. eigenvalues --    0.96759   1.00413   1.01296   1.01602   1.02731
 Alpha virt. eigenvalues --    1.03259   1.03698   1.04772   1.05516   1.08797
 Alpha virt. eigenvalues --    1.19521   1.23198   1.24054   1.24887   1.28340
 Alpha virt. eigenvalues --    1.29444   1.31983   1.34313   1.35766   1.35995
 Alpha virt. eigenvalues --    1.39137   1.40339   1.40980   1.42873   1.43435
 Alpha virt. eigenvalues --    1.43644   1.44998   1.45482   1.46282   1.46753
 Alpha virt. eigenvalues --    1.47633   1.48075   1.51735   1.53620   1.55298
 Alpha virt. eigenvalues --    1.55778   1.56346   1.56919   1.57946   1.61452
 Alpha virt. eigenvalues --    1.63222   1.63533   1.63744   1.66086   1.68263
 Alpha virt. eigenvalues --    1.68328   1.68763   1.69696   1.74386   1.76051
 Alpha virt. eigenvalues --    1.77105   1.78066   1.79931   1.80004   1.80981
 Alpha virt. eigenvalues --    1.83168   1.83219   1.83518   1.83680   1.84188
 Alpha virt. eigenvalues --    1.84560   1.85783   1.86151   1.88202   1.91361
 Alpha virt. eigenvalues --    1.91878   1.94190   1.95457   1.97568   1.98289
 Alpha virt. eigenvalues --    1.99694   2.02472   2.04488   2.07209   2.11797
 Alpha virt. eigenvalues --    2.12078   2.14131   2.15207   2.19077   2.21220
 Alpha virt. eigenvalues --    2.22835   2.28571   2.30161   2.34585   2.34894
 Alpha virt. eigenvalues --    2.36166   2.38618   2.39609   2.42221   2.44644
 Alpha virt. eigenvalues --    2.46135   2.46556   2.49224   2.53026   2.53873
 Alpha virt. eigenvalues --    2.54286   2.56724   2.57891   2.58294   2.59627
 Alpha virt. eigenvalues --    2.59784   2.61415   2.61921   2.63373   2.63842
 Alpha virt. eigenvalues --    2.64875   2.65105   2.65140   2.65518   2.67726
 Alpha virt. eigenvalues --    2.69130   2.70960   2.71369   2.73342   2.74810
 Alpha virt. eigenvalues --    2.76306   2.78823   2.79728   2.82630   2.83068
 Alpha virt. eigenvalues --    2.85033   2.86287   2.92109   2.96980   2.99218
 Alpha virt. eigenvalues --    3.00332   3.04960   3.10773   3.11427   3.13437
 Alpha virt. eigenvalues --    3.20772   3.23715   3.26606   3.28275   3.30469
 Alpha virt. eigenvalues --    3.33260   3.33691   3.43260   3.46076   3.46425
 Alpha virt. eigenvalues --    3.48067   3.50818   3.56542   3.65867   3.66000
 Alpha virt. eigenvalues --    3.68351   3.94114   3.94537   3.95171   3.96156
 Alpha virt. eigenvalues --    4.03951   4.06548   4.07741   4.12497   4.35461
 Alpha virt. eigenvalues --    4.61287   4.69167   4.72045  23.45288  23.60376
 Alpha virt. eigenvalues --   23.81587  23.85272  23.86755  23.89601  23.91161
 Alpha virt. eigenvalues --   23.92306  23.97139  23.99721  24.00646  24.01904
 Alpha virt. eigenvalues --   24.09554  24.11911
          Condensed to atoms (all electrons):
               1          2          3          4          5          6
     1  C    8.784192   0.258229  -0.540269   2.155688  -0.007383  -0.098287
     2  C    0.258229   7.102771   0.374662  -1.113097  -0.013635  -0.013396
     3  C   -0.540269   0.374662   6.599768   0.749238  -0.118231   0.016943
     4  C    2.155688  -1.113097   0.749238  11.590836  -0.397096  -0.131647
     5  C   -0.007383  -0.013635  -0.118231  -0.397096  10.627796   0.802166
     6  C   -0.098287  -0.013396   0.016943  -0.131647   0.802166   6.569825
     7  C   -0.024069   0.001152  -0.015515  -0.017687  -1.086906   0.330809
     8  C    0.401640  -0.010727  -0.094135  -0.061959   1.899013  -0.539232
     9  C   -1.230032  -0.818464   0.288862  -0.244524  -0.168560   0.298212
    10  C   -1.334544   0.276823  -0.360372  -2.658592  -2.515773  -0.336809
    11  C    0.149473  -0.762462   0.912895  -0.888016  -1.252405  -0.152370
    12  C   -2.077729   1.259616  -1.322425  -1.488954  -0.510842  -0.222276
    13  C    0.113416  -0.212944  -0.196292  -1.708676   0.318117   1.073630
    14  C   -1.055096  -0.214475  -0.170105  -0.175801  -1.900958  -1.478433
    15  H    0.369863  -0.109008  -0.002875   0.031639   0.005150   0.000989
    16  H   -0.020398   0.377545  -0.016279   0.011075  -0.001409  -0.000306
    17  H   -0.026182  -0.015123   0.371685  -0.066115   0.000397   0.000381
    18  H    0.052288   0.002070  -0.084512   0.459715   0.006343  -0.005128
    19  H   -0.049925  -0.007276   0.049769  -0.079905  -0.059698   0.052180
    20  H    0.007229   0.001922  -0.005022   0.005505   0.457513  -0.084278
    21  H   -0.001410  -0.000389   0.000417   0.000230  -0.071070   0.378739
    22  H    0.000725   0.000368  -0.000350  -0.001666   0.015690  -0.017047
    23  H    0.006180  -0.002698   0.001196   0.006165   0.024408   0.000090
    24  H    0.028578   0.014285  -0.002035  -0.014881  -0.009782  -0.001041
    25  H    0.028578   0.014285  -0.002035  -0.014881  -0.009782  -0.001041
               7          8          9         10         11         12
     1  C   -0.024069   0.401640  -1.230032  -1.334544   0.149473  -2.077729
     2  C    0.001152  -0.010727  -0.818464   0.276823  -0.762462   1.259616
     3  C   -0.015515  -0.094135   0.288862  -0.360372   0.912895  -1.322425
     4  C   -0.017687  -0.061959  -0.244524  -2.658592  -0.888016  -1.488954
     5  C   -1.086906   1.899013  -0.168560  -2.515773  -1.252405  -0.510842
     6  C    0.330809  -0.539232   0.298212  -0.336809  -0.152370  -0.222276
     7  C    7.196224   0.327117  -0.798935   0.224701  -0.284042  -0.171947
     8  C    0.327117   8.457265  -1.060191  -1.255257   0.311153  -1.099049
     9  C   -0.798935  -1.060191   9.608431   0.263982   1.457721  -1.880713
    10  C    0.224701  -1.255257   0.263982   9.131868  -0.342540   2.351298
    11  C   -0.284042   0.311153   1.457721  -0.342540  14.623499  -3.350454
    12  C   -0.171947  -1.099049  -1.880713   2.351298  -3.350454  15.651851
    13  C   -1.018961   0.411925   1.745096  -0.501847   1.049304  -4.666464
    14  C    1.477108  -2.178538  -2.039800   2.509331  -4.886069   3.115027
    15  H   -0.002564   0.005279   0.095061  -0.011436  -0.033579  -0.026445
    16  H    0.000360   0.000683   0.004312  -0.008468   0.028510  -0.032995
    17  H   -0.000410  -0.001221  -0.006461   0.020529  -0.027213   0.092992
    18  H    0.002199   0.007103  -0.025757   0.015071  -0.008804  -0.059185
    19  H   -0.007829  -0.043866   0.075689   0.421844   0.077459  -0.064119
    20  H    0.003379   0.048962  -0.023483   0.008382  -0.011575  -0.016736
    21  H   -0.017396  -0.024514  -0.005085   0.020199  -0.006277   0.005116
    22  H    0.380678  -0.019015   0.002275  -0.009966   0.002829  -0.009352
    23  H   -0.104040   0.366703   0.088177  -0.007942   0.000948   0.005580
    24  H    0.014707   0.036414   0.356773   0.005432   0.013505  -0.061614
    25  H    0.014707   0.036414   0.356773   0.005432   0.013505  -0.061614
              13         14         15         16         17         18
     1  C    0.113416  -1.055096   0.369863  -0.020398  -0.026182   0.052288
     2  C   -0.212944  -0.214475  -0.109008   0.377545  -0.015123   0.002070
     3  C   -0.196292  -0.170105  -0.002875  -0.016279   0.371685  -0.084512
     4  C   -1.708676  -0.175801   0.031639   0.011075  -0.066115   0.459715
     5  C    0.318117  -1.900958   0.005150  -0.001409   0.000397   0.006343
     6  C    1.073630  -1.478433   0.000989  -0.000306   0.000381  -0.005128
     7  C   -1.018961   1.477108  -0.002564   0.000360  -0.000410   0.002199
     8  C    0.411925  -2.178538   0.005279   0.000683  -0.001221   0.007103
     9  C    1.745096  -2.039800   0.095061   0.004312  -0.006461  -0.025757
    10  C   -0.501847   2.509331  -0.011436  -0.008468   0.020529   0.015071
    11  C    1.049304  -4.886069  -0.033579   0.028510  -0.027213  -0.008804
    12  C   -4.666464   3.115027  -0.026445  -0.032995   0.092992  -0.059185
    13  C   14.298792  -4.122662   0.002361   0.003229  -0.006357  -0.011633
    14  C   -4.122662  16.579363   0.007443  -0.008764   0.005502  -0.012310
    15  H    0.002361   0.007443   0.437374  -0.008643   0.001299   0.000228
    16  H    0.003229  -0.008764  -0.008643   0.419075  -0.006232   0.001806
    17  H   -0.006357   0.005502   0.001299  -0.006232   0.420477  -0.009574
    18  H   -0.011633  -0.012310   0.000228   0.001806  -0.009574   0.455161
    19  H    0.077389  -0.066163   0.000256  -0.000499   0.001287  -0.006587
    20  H   -0.002174  -0.052530  -0.000102   0.000012  -0.000130   0.001251
    21  H   -0.026868   0.092050   0.000013  -0.000007   0.000010  -0.000157
    22  H    0.024270  -0.031814  -0.000128   0.000008  -0.000007   0.000018
    23  H   -0.029826  -0.022874   0.000572  -0.000127   0.000014  -0.000123
    24  H    0.013755  -0.058657  -0.000784   0.000635  -0.000148   0.000208
    25  H    0.013755  -0.058657  -0.000784   0.000635  -0.000148   0.000208
              19         20         21         22         23         24
     1  C   -0.049925   0.007229  -0.001410   0.000725   0.006180   0.028578
     2  C   -0.007276   0.001922  -0.000389   0.000368  -0.002698   0.014285
     3  C    0.049769  -0.005022   0.000417  -0.000350   0.001196  -0.002035
     4  C   -0.079905   0.005505   0.000230  -0.001666   0.006165  -0.014881
     5  C   -0.059698   0.457513  -0.071070   0.015690   0.024408  -0.009782
     6  C    0.052180  -0.084278   0.378739  -0.017047   0.000090  -0.001041
     7  C   -0.007829   0.003379  -0.017396   0.380678  -0.104040   0.014707
     8  C   -0.043866   0.048962  -0.024514  -0.019015   0.366703   0.036414
     9  C    0.075689  -0.023483  -0.005085   0.002275   0.088177   0.356773
    10  C    0.421844   0.008382   0.020199  -0.009966  -0.007942   0.005432
    11  C    0.077459  -0.011575  -0.006277   0.002829   0.000948   0.013505
    12  C   -0.064119  -0.016736   0.005116  -0.009352   0.005580  -0.061614
    13  C    0.077389  -0.002174  -0.026868   0.024270  -0.029826   0.013755
    14  C   -0.066163  -0.052530   0.092050  -0.031814  -0.022874  -0.058657
    15  H    0.000256  -0.000102   0.000013  -0.000128   0.000572  -0.000784
    16  H   -0.000499   0.000012  -0.000007   0.000008  -0.000127   0.000635
    17  H    0.001287  -0.000130   0.000010  -0.000007   0.000014  -0.000148
    18  H   -0.006587   0.001251  -0.000157   0.000018  -0.000123   0.000208
    19  H    0.442777  -0.005764   0.001550  -0.000575   0.000347   0.000601
    20  H   -0.005764   0.452471  -0.011057   0.002022   0.000124   0.000155
    21  H    0.001550  -0.011057   0.424656  -0.007005   0.001614  -0.000135
    22  H   -0.000575   0.002022  -0.007005   0.419779  -0.009349   0.000626
    23  H    0.000347   0.000124   0.001614  -0.009349   0.440955  -0.001033
    24  H    0.000601   0.000155  -0.000135   0.000626  -0.001033   0.493942
    25  H    0.000601   0.000155  -0.000135   0.000626  -0.001033  -0.079632
              25
     1  C    0.028578
     2  C    0.014285
     3  C   -0.002035
     4  C   -0.014881
     5  C   -0.009782
     6  C   -0.001041
     7  C    0.014707
     8  C    0.036414
     9  C    0.356773
    10  C    0.005432
    11  C    0.013505
    12  C   -0.061614
    13  C    0.013755
    14  C   -0.058657
    15  H   -0.000784
    16  H    0.000635
    17  H   -0.000148
    18  H    0.000208
    19  H    0.000601
    20  H    0.000155
    21  H   -0.000135
    22  H    0.000626
    23  H   -0.001033
    24  H   -0.079632
    25  H    0.493942
 Mulliken charges:
               1
     1  C    0.109242
     2  C   -0.390032
     3  C   -0.434983
     4  C    0.053404
     5  C   -0.033062
     6  C   -0.442672
     7  C   -0.422840
     8  C    0.078035
     9  C   -0.339359
    10  C    0.088655
    11  C   -0.634996
    12  C    0.641431
    13  C   -0.640336
    14  C    0.747883
    15  H    0.238819
    16  H    0.256240
    17  H    0.250748
    18  H    0.220100
    19  H    0.190455
    20  H    0.223770
    21  H    0.246912
    22  H    0.256361
    23  H    0.235973
    24  H    0.250126
    25  H    0.250126
 Sum of Mulliken charges =   1.00000
 Mulliken charges with hydrogens summed into heavy atoms:
               1
     1  C    0.348061
     2  C   -0.133793
     3  C   -0.184235
     4  C    0.273504
     5  C    0.190708
     6  C   -0.195760
     7  C   -0.166479
     8  C    0.314008
     9  C    0.160893
    10  C    0.279110
    11  C   -0.634996
    12  C    0.641431
    13  C   -0.640336
    14  C    0.747883
 Electronic spatial extent (au):  <R**2>=           2855.9715
 Charge=              1.0000 electrons
 Dipole moment (field-independent basis, Debye):
    X=             -0.2349    Y=              0.0387    Z=             -0.0000  Tot=              0.2381
 Quadrupole moment (field-independent basis, Debye-Ang):
   XX=            -50.8894   YY=            -36.5019   ZZ=            -84.1401
   XY=            -10.3180   XZ=             -0.0000   YZ=             -0.0000
 Traceless Quadrupole moment (field-independent basis, Debye-Ang):
   XX=              6.2877   YY=             20.6752   ZZ=            -26.9629
   XY=            -10.3180   XZ=             -0.0000   YZ=             -0.0000
 Octapole moment (field-independent basis, Debye-Ang**2):
  XXX=             -0.4150  YYY=              7.8056  ZZZ=              0.0000  XYY=             -1.4771
  XXY=             -4.4285  XXZ=              0.0000  XZZ=              2.7452  YZZ=              1.4096
  YYZ=             -0.0000  XYZ=             -0.0000
 Hexadecapole moment (field-independent basis, Debye-Ang**3):
 XXXX=          -1010.4906 YYYY=          -1828.0175 ZZZZ=            -99.3243 XXXY=            355.1775
 XXXZ=             -0.0000 YYYX=            281.5200 YYYZ=             -0.0000 ZZZX=              0.0000
 ZZZY=             -0.0000 XXYY=           -454.4522 XXZZ=           -246.2374 YYZZ=           -490.2396
 XXYZ=             -0.0000 YYXZ=              0.0000 ZZXY=            186.1065
 N-N= 7.812049148519D+02 E-N=-2.798751911387D+03  KE= 5.375097722566D+02
 Symmetry A'   KE= 5.228613205409D+02
 Symmetry A"   KE= 1.464845171564D+01
 Unable to Open any file for archive entry.
 1\1\GINC-GADI-CPU-CLX-2072\SP\RM062X TD-FC\6-311++G(d,p)\C14H11(1+)\TS
 1578\28-Jul-2022\0\\#n M062X/6-311++G(d,p) TD(NStates=1) EmpiricalDisp
 ersion=GD3 SP\\SP_-4\\1,1\C,0,0.,2.494255,1.359831\C,0,0.,3.712308,0.6
 75789\C,0,0.,3.688661,-0.70683\C,0,0.,2.453956,-1.402538\C,0,0.,-2.472
 356,-1.412538\C,0,0.,-3.679061,-0.72083\C,0,0.,-3.690708,0.668189\C,0,
 0.,-2.491055,1.361031\C,0,0.,0.008,1.453369\C,0,0.,-0.002,-1.429189\C,
 0,0.,1.255455,0.681665\C,0,0.,1.228471,-0.741204\C,0,0.,-1.268655,0.67
 2465\C,0,0.,-1.246471,-0.720404\H,0,0.,2.508671,2.443647\H,0,0.,4.6535
 53,1.205489\H,0,0.,4.618062,-1.259549\H,0,0.,2.44295,-2.485659\H,0,0.,
 -0.019,-2.510266\H,0,0.,-2.49215,-2.494459\H,0,0.,-4.600462,-1.285149\
 H,0,0.,-4.619953,1.217889\H,0,0.,-2.467471,2.443647\H,0,-0.859585,0.03
 32,2.145787\H,0,0.859585,0.0332,2.145787\\Version=ES64L-G16RevC.01\Sta
 te=1-A'\HF=-539.7585006\RMSD=6.281e-09\PG=CS [SG(C14H9),X(H2)]\\@
 The archive entry for this job was punched.


 WORK FAITHFULLY FOR EIGHT HOURS A DAY AND DON'T WORRY.
 IN TIME YOU MAY BECOME BOSS AND WORK TWELVE HOURS A DAY
 AND HAVE ALL THE WORRY.
 Job cpu time:       0 days  0 hours 52 minutes 14.6 seconds.
 Elapsed time:       0 days  0 hours  1 minutes  5.5 seconds.
 File lengths (MBytes):  RWF=    460 Int=      0 D2E=      0 Chk=     15 Scr=      1
 Normal termination of Gaussian 16 at Thu Jul 28 13:49:23 2022.
