 Entering Gaussian System, Link 0=g16
 Initial command:
 /apps/gaussian/g16c01/g16/l1.exe "/jobfs/53005151.gadi-pbs/Gau-4172324.inp" -scrdir="/jobfs/53005151.gadi-pbs/"
 Entering Link 1 = /apps/gaussian/g16c01/g16/l1.exe PID=   4172325.
  
 Copyright (c) 1988-2019, Gaussian, Inc.  All Rights Reserved.
  
 This is part of the Gaussian(R) 16 program.  It is based on
 the Gaussian(R) 09 system (copyright 2009, Gaussian, Inc.),
 the Gaussian(R) 03 system (copyright 2003, Gaussian, Inc.),
 the Gaussian(R) 98 system (copyright 1998, Gaussian, Inc.),
 the Gaussian(R) 94 system (copyright 1995, Gaussian, Inc.),
 the Gaussian 92(TM) system (copyright 1992, Gaussian, Inc.),
 the Gaussian 90(TM) system (copyright 1990, Gaussian, Inc.),
 the Gaussian 88(TM) system (copyright 1988, Gaussian, Inc.),
 the Gaussian 86(TM) system (copyright 1986, Carnegie Mellon
 University), and the Gaussian 82(TM) system (copyright 1983,
 Carnegie Mellon University). Gaussian is a federally registered
 trademark of Gaussian, Inc.
  
 This software contains proprietary and confidential information,
 including trade secrets, belonging to Gaussian, Inc.
  
 This software is provided under written license and may be
 used, copied, transmitted, or stored only in accord with that
 written license.
  
 The following legend is applicable only to US Government
 contracts under FAR:
  
                    RESTRICTED RIGHTS LEGEND
  
 Use, reproduction and disclosure by the US Government is
 subject to restrictions as set forth in subparagraphs (a)
 and (c) of the Commercial Computer Software - Restricted
 Rights clause in FAR 52.227-19.
  
 Gaussian, Inc.
 340 Quinnipiac St., Bldg. 40, Wallingford CT 06492
  
  
 ---------------------------------------------------------------
 Warning -- This program may not be used in any manner that
 competes with the business of Gaussian, Inc. or will provide
 assistance to any competitor of Gaussian, Inc.  The licensee
 of this program is prohibited from giving any competitor of
 Gaussian, Inc. access to this program.  By using this program,
 the user acknowledges that Gaussian, Inc. is engaged in the
 business of creating and licensing software in the field of
 computational chemistry and represents and warrants to the
 licensee that it is not a competitor of Gaussian, Inc. and that
 it will not use this program in any manner prohibited above.
 ---------------------------------------------------------------
  

 Cite this work as:
 Gaussian 16, Revision C.01,
 M. J. Frisch, G. W. Trucks, H. B. Schlegel, G. E. Scuseria, 
 M. A. Robb, J. R. Cheeseman, G. Scalmani, V. Barone, 
 G. A. Petersson, H. Nakatsuji, X. Li, M. Caricato, A. V. Marenich, 
 J. Bloino, B. G. Janesko, R. Gomperts, B. Mennucci, H. P. Hratchian, 
 J. V. Ortiz, A. F. Izmaylov, J. L. Sonnenberg, D. Williams-Young, 
 F. Ding, F. Lipparini, F. Egidi, J. Goings, B. Peng, A. Petrone, 
 T. Henderson, D. Ranasinghe, V. G. Zakrzewski, J. Gao, N. Rega, 
 G. Zheng, W. Liang, M. Hada, M. Ehara, K. Toyota, R. Fukuda, 
 J. Hasegawa, M. Ishida, T. Nakajima, Y. Honda, O. Kitao, H. Nakai, 
 T. Vreven, K. Throssell, J. A. Montgomery, Jr., J. E. Peralta, 
 F. Ogliaro, M. J. Bearpark, J. J. Heyd, E. N. Brothers, K. N. Kudin, 
 V. N. Staroverov, T. A. Keith, R. Kobayashi, J. Normand, 
 K. Raghavachari, A. P. Rendell, J. C. Burant, S. S. Iyengar, 
 J. Tomasi, M. Cossi, J. M. Millam, M. Klene, C. Adamo, R. Cammi, 
 J. W. Ochterski, R. L. Martin, K. Morokuma, O. Farkas, 
 J. B. Foresman, and D. J. Fox, Gaussian, Inc., Wallingford CT, 2019.
 
 ******************************************
 Gaussian 16:  ES64L-G16RevC.01  3-Jul-2019
                28-Jul-2022 
 ******************************************
 %NProcShared=48
 Will use up to   48 processors via shared memory.
 %mem = 190GB
 ---------------------------------------------------------------
 #n M062X/6-311++G(d,p) TD(NStates=1) EmpiricalDispersion=GD3 SP
 ---------------------------------------------------------------
 1/38=1,172=1/1;
 2/12=2,17=6,18=5,40=1/2;
 3/5=4,6=6,7=1111,11=9,25=1,30=1,74=-55,124=31/1,2,3,8;
 4//1;
 5/5=2,38=5/2;
 8/6=1,10=2,108=1/1;
 9/41=1,42=1,70=2/14;
 6/7=2,8=2,9=2,10=2/1;
 99/5=1,9=1/99;
 -----
 SP_-2
 -----
 Symbolic Z-matrix:
 Charge =  1 Multiplicity = 1
 C                     0.        2.49586   1.36043 
 C                     0.        3.70511   0.67359 
 C                     0.        3.68566  -0.71063 
 C                     0.        2.45916  -1.40594 
 C                     0.       -2.46716  -1.40914 
 C                     0.       -3.68206  -0.71703 
 C                     0.       -3.69791   0.67039 
 C                     0.       -2.48946   1.36043 
 C                     0.        0.0016    1.45337 
 C                     0.       -0.0058   -1.42919 
 C                     0.        1.26026   0.67487 
 C                     0.        1.23567  -0.7306 
 C                     0.       -1.26386   0.67927 
 C                     0.       -1.23927  -0.731 
 H                     0.        2.48907   2.44365 
 H                     0.        4.64035   1.21309 
 H                     0.        4.60946  -1.27195 
 H                     0.        2.46575  -2.48846 
 H                     0.       -0.005    -2.51027 
 H                     0.       -2.46935  -2.49166 
 H                     0.       -4.60906  -1.27275 
 H                     0.       -4.63315   1.21029 
 H                     0.       -2.48707   2.44365 
 H                    -0.85959   0.0088    2.14579 
 H                     0.85959   0.0088    2.14579 
 
                          Input orientation:                          
 ---------------------------------------------------------------------
 Center     Atomic      Atomic             Coordinates (Angstroms)
 Number     Number       Type             X           Y           Z
 ---------------------------------------------------------------------
      1          6           0        0.000000    2.495855    1.360431
      2          6           0        0.000000    3.705108    0.673589
      3          6           0        0.000000    3.685661   -0.710630
      4          6           0        0.000000    2.459156   -1.405938
      5          6           0        0.000000   -2.467156   -1.409138
      6          6           0        0.000000   -3.682061   -0.717030
      7          6           0        0.000000   -3.697908    0.670389
      8          6           0        0.000000   -2.489455    1.360431
      9          6           0        0.000000    0.001600    1.453369
     10          6           0        0.000000   -0.005800   -1.429189
     11          6           0        0.000000    1.260255    0.674865
     12          6           0        0.000000    1.235671   -0.730604
     13          6           0        0.000000   -1.263855    0.679265
     14          6           0        0.000000   -1.239271   -0.731004
     15          1           0        0.000000    2.489071    2.443647
     16          1           0        0.000000    4.640353    1.213089
     17          1           0        0.000000    4.609462   -1.271949
     18          1           0        0.000000    2.465750   -2.488459
     19          1           0        0.000000   -0.005000   -2.510266
     20          1           0        0.000000   -2.469350   -2.491659
     21          1           0        0.000000   -4.609062   -1.272749
     22          1           0        0.000000   -4.633153    1.210289
     23          1           0        0.000000   -2.487071    2.443647
     24          1           0       -0.859585    0.008800    2.145787
     25          1           0        0.859585    0.008800    2.145787
 ---------------------------------------------------------------------
                    Distance matrix (angstroms):
                    1          2          3          4          5
     1  C    0.000000
     2  C    1.390699   0.000000
     3  C    2.388500   1.384356   0.000000
     4  C    2.766612   2.424217   1.409882   0.000000
     5  C    5.683484   6.514184   6.192340   4.926313   0.000000
     6  C    6.517859   7.516920   7.367725   6.179736   1.398216
     7  C    6.232083   7.403017   7.511611   6.497736   2.416440
     8  C    4.985310   6.232525   6.513168   5.669352   2.769659
     9  C    2.495986   3.784710   4.272610   3.770307   3.780040
    10  C    3.747033   4.265268   3.760746   2.465066   2.461438
    11  C    1.413049   2.444853   2.793240   2.401480   4.270440
    12  C    2.441412   2.840753   2.450071   1.397495   3.764484
    13  C    3.820917   4.968966   5.140965   4.267187   2.410261
    14  C    4.280802   5.140016   4.924974   3.759508   1.402700
    15  H    1.083237   2.147522   3.373617   3.849701   6.277590
    16  H    2.149554   1.079696   2.147587   3.408361   7.575801
    17  H    3.375909   2.145454   1.080966   2.154476   7.077948
    18  H    3.849008   3.396256   2.156121   1.082541   5.049603
    19  H    4.608315   4.888950   4.106053   2.700297   2.697164
    20  H    6.284255   6.938496   6.407513   5.046678   1.082523
    21  H    7.577169   8.538949   8.313748   7.069473   2.146244
    22  H    7.130589   8.355516   8.537716   7.559464   3.398962
    23  H    5.099305   6.440201   6.931961   6.267732   3.852836
    24  H    2.746109   4.070497   4.734692   4.399759   4.416643
    25  H    2.746109   4.070497   4.734692   4.399759   4.416643
                    6          7          8          9         10
     6  C    0.000000
     7  C    1.387509   0.000000
     8  C    2.395444   1.391588   0.000000
     9  C    4.275511   3.781457   2.492788   0.000000
    10  C    3.744605   4.247339   3.735040   2.882567   0.000000
    11  C    5.134575   4.958165   3.811866   1.479960   2.455593
    12  C    4.917751   5.128643   4.271884   2.508519   1.424525
    13  C    2.792375   2.434069   1.402171   1.483446   2.455256
    14  C    2.442830   2.829982   2.436608   2.512219   1.417361
    15  H    6.933451   6.436082   5.095005   2.677342   4.606869
    16  H    8.543298   8.355903   7.131330   4.644972   5.344939
    17  H    8.310072   8.531417   7.571265   5.353480   4.617940
    18  H    6.397933   6.925966   6.274393   4.648660   2.688980
    19  H    4.091023   4.873821   4.599436   3.963640   1.081077
    20  H    2.149413   3.392330   3.852142   4.654980   2.682894
    21  H    1.080812   2.146156   3.380292   5.356298   4.605920
    22  H    2.149217   1.079896   2.148949   4.641123   5.327217
    23  H    3.379035   2.147224   1.083219   2.678457   4.599518
    24  H    4.749428   4.081099   2.756256   1.103803   3.676894
    25  H    4.749428   4.081099   2.756256   1.103803   3.676894
                   11         12         13         14         15
    11  C    0.000000
    12  C    1.405684   0.000000
    13  C    2.524114   2.869732   0.000000
    14  C    2.867769   2.474942   1.410483   0.000000
    15  H    2.153736   3.412753   4.146987   4.896830   0.000000
    16  H    3.422681   3.920434   5.928292   6.192695   2.478364
    17  H    3.873922   3.416946   6.188949   5.873696   4.278050
    18  H    3.385238   2.145495   4.893304   4.100711   4.932161
    19  H    3.427234   2.169438   3.428968   2.165456   5.546318
    20  H    4.892528   4.102255   3.392341   2.147790   6.995941
    21  H    6.184018   5.869823   3.873083   3.413060   8.012184
    22  H    5.917680   6.181437   3.410888   3.909866   7.228226
    23  H    4.143796   4.892308   2.146928   3.411072   4.976142
    24  H    2.113915   3.243104   2.123493   3.251537   2.641846
    25  H    2.113915   3.243104   2.123493   3.251537   2.641846
                   16         17         18         19         20
    16  H    0.000000
    17  H    2.485230   0.000000
    18  H    4.293059   2.464832   0.000000
    19  H    5.953375   4.777728   2.470846   0.000000
    20  H    8.017046   7.183124   4.935101   2.464420   0.000000
    21  H    9.577634   9.218524   7.178504   4.767477   2.462541
    22  H    9.273506   9.570133   8.004696   5.938209   4.287944
    23  H    7.232873   8.010395   6.989714   5.540932   4.935338
    24  H    4.802093   5.795334   5.315235   4.734755   5.327853
    25  H    4.802093   5.795334   5.315235   4.734755   5.327853
                   21         22         23         24         25
    21  H    0.000000
    22  H    2.483155   0.000000
    23  H    4.279538   2.475245   0.000000
    24  H    5.809468   4.812668   2.656498   0.000000
    25  H    5.809468   4.812668   2.656498   1.719170   0.000000
 Stoichiometry    C14H11(1+)
 Framework group  CS[SG(C14H9),X(H2)]
 Deg. of freedom    46
 Full point group                 CS      NOp   2
 Largest Abelian subgroup         CS      NOp   2
 Largest concise Abelian subgroup CS      NOp   2
                         Standard orientation:                         
 ---------------------------------------------------------------------
 Center     Atomic      Atomic             Coordinates (Angstroms)
 Number     Number       Type             X           Y           Z
 ---------------------------------------------------------------------
      1          6           0        2.490202   -1.370647    0.000000
      2          6           0        3.702260   -0.688767    0.000000
      3          6           0        3.688485    0.695520    0.000000
      4          6           0        2.464840    1.395849    0.000000
      5          6           0       -2.461418    1.419237    0.000000
      6          6           0       -3.679149    0.732113    0.000000
      7          6           0       -3.700681   -0.655229    0.000000
      8          6           0       -2.495066   -1.350218    0.000000
      9          6           0       -0.004413   -1.453363    0.000000
     10          6           0        0.000000    1.429201    0.000000
     11          6           0        1.257422   -0.680024    0.000000
     12          6           0        1.238598    0.725534    0.000000
     13          6           0       -1.266685   -0.674080    0.000000
     14          6           0       -1.236322    0.736077    0.000000
     15          1           0        2.478979   -2.453826    0.000000
     16          1           0        4.635286   -1.232095    0.000000
     17          1           0        4.614579    1.253049    0.000000
     18          1           0        2.475870    2.478334    0.000000
     19          1           0        0.005230    2.510266    0.000000
     20          1           0       -2.459175    2.501758    0.000000
     21          1           0       -4.603864    1.291626    0.000000
     22          1           0       -4.638131   -1.191292    0.000000
     23          1           0       -2.497121   -2.433434    0.000000
     24          1           0       -0.000050   -2.145805    0.859585
     25          1           0       -0.000050   -2.145805   -0.859585
 ---------------------------------------------------------------------
 Rotational constants (GHZ):           2.1362316           0.4446257           0.3688264
 Standard basis: 6-311++G(d,p) (5D, 7F)
 There are   299 symmetry adapted cartesian basis functions of A'  symmetry.
 There are   100 symmetry adapted cartesian basis functions of A"  symmetry.
 There are   285 symmetry adapted basis functions of A'  symmetry.
 There are   100 symmetry adapted basis functions of A"  symmetry.
   385 basis functions,   603 primitive gaussians,   399 cartesian basis functions
    47 alpha electrons       47 beta electrons
       nuclear repulsion energy       781.1987188054 Hartrees.
 NAtoms=   25 NActive=   25 NUniq=   24 SFac= 1.09D+00 NAtFMM=   60 NAOKFM=F Big=F
 Integral buffers will be    131072 words long.
 Regular integral format.
 Two-electron integral symmetry is turned on.
 Nuclear repulsion after empirical dispersion term =      781.1977393200 Hartrees.
 One-electron integrals computed using PRISM.
 NBasis=   385 RedAO= T EigKep=  1.12D-06  NBF=   285   100
 NBsUse=   379 1.00D-06 EigRej=  8.39D-07 NBFU=   279   100
 ExpMin= 3.60D-02 ExpMax= 4.56D+03 ExpMxC= 6.82D+02 IAcc=3 IRadAn=         5 AccDes= 0.00D+00
 Harris functional with IExCor= 1009 and IRadAn=       5 diagonalized for initial guess.
 HarFok:  IExCor= 1009 AccDes= 0.00D+00 IRadAn=         5 IDoV= 1 UseB2=F ITyADJ=14
 ICtDFT=  3500011 ScaDFX=  1.000000  1.000000  1.000000  1.000000
 FoFCou: FMM=F IPFlag=           0 FMFlag=      100000 FMFlg1=           0
         NFxFlg=           0 DoJE=T BraDBF=F KetDBF=T FulRan=T
         wScrn=  0.000000 ICntrl=       500 IOpCl=  0 I1Cent=   200000004 NGrid=           0
         NMat0=    1 NMatS0=      1 NMatT0=    0 NMatD0=    1 NMtDS0=    0 NMtDT0=    0
 Petite list used in FoFCou.
 Initial guess orbital symmetries:
       Occupied  (A') (A') (A') (A') (A') (A') (A') (A') (A') (A')
                 (A') (A') (A') (A') (A') (A') (A') (A') (A') (A')
                 (A') (A') (A') (A') (A') (A') (A') (A') (A') (A')
                 (A') (A') (A") (A') (A') (A') (A') (A') (A') (A")
                 (A") (A') (A') (A") (A") (A") (A")
       Virtual   (A") (A") (A") (A") (A") (A') (A') (A') (A') (A")
                 (A") (A') (A') (A') (A") (A') (A') (A') (A') (A")
                 (A') (A") (A') (A') (A') (A") (A') (A") (A') (A')
                 (A') (A') (A') (A") (A') (A') (A") (A') (A') (A")
                 (A') (A') (A') (A") (A') (A') (A') (A') (A') (A")
                 (A') (A') (A") (A") (A') (A') (A') (A") (A") (A')
                 (A') (A') (A') (A') (A') (A') (A") (A') (A') (A")
                 (A') (A') (A') (A') (A') (A') (A') (A') (A') (A')
                 (A') (A') (A') (A') (A') (A') (A') (A') (A') (A')
                 (A') (A') (A') (A') (A') (A') (A') (A") (A') (A")
                 (A') (A') (A") (A") (A') (A") (A') (A") (A') (A")
                 (A") (A') (A') (A') (A") (A') (A') (A") (A") (A')
                 (A") (A") (A') (A') (A') (A") (A') (A') (A') (A")
                 (A') (A') (A') (A') (A') (A') (A") (A') (A') (A')
                 (A') (A') (A') (A') (A') (A') (A') (A') (A') (A")
                 (A") (A') (A") (A") (A') (A') (A') (A") (A") (A')
                 (A") (A') (A") (A") (A") (A') (A') (A') (A') (A')
                 (A') (A") (A") (A') (A') (A') (A') (A') (A') (A")
                 (A') (A') (A') (A') (A') (A") (A") (A') (A") (A")
                 (A') (A") (A') (A") (A') (A') (A') (A") (A') (A')
                 (A") (A") (A") (A') (A') (A") (A') (A") (A') (A')
                 (A") (A") (A') (A") (A') (A") (A') (A') (A') (A")
                 (A') (A') (A') (A') (A") (A') (A') (A') (A") (A")
                 (A') (A') (A') (A") (A') (A') (A") (A') (A") (A')
                 (A") (A') (A') (A') (A') (A") (A') (A') (A') (A")
                 (A') (A') (A") (A') (A") (A') (A') (A") (A') (A')
                 (A') (A') (A") (A") (A') (A') (A') (A") (A') (A")
                 (A') (A') (A') (A') (A") (A') (A") (A') (A") (A')
                 (A") (A') (A") (A") (A") (A') (A') (A') (A') (A')
                 (A') (A') (A') (A') (A') (A') (A') (A') (A') (A')
                 (A') (A') (A') (A') (A') (A") (A') (A') (A') (A')
                 (A') (A') (A') (A') (A') (A') (A') (A') (A') (A')
                 (A') (A') (A') (A') (A') (A') (A') (A') (A') (A')
                 (A') (A')
 The electronic state of the initial guess is 1-A'.
 Requested convergence on RMS density matrix=1.00D-08 within 128 cycles.
 Requested convergence on MAX density matrix=1.00D-06.
 Requested convergence on             energy=1.00D-06.
 No special actions if energy rises.
 SCF Done:  E(RM062X) =  -539.760094750     A.U. after   15 cycles
            NFock= 15  Conv=0.49D-08     -V/T= 2.0042
 DoSCS=F DFT=T ScalE2(SS,OS)=  1.000000  1.000000
 ExpMin= 3.60D-02 ExpMax= 4.56D+03 ExpMxC= 6.82D+02 IAcc=3 IRadAn=         5 AccDes= 0.00D+00
 HarFok:  IExCor=  205 AccDes= 0.00D+00 IRadAn=         5 IDoV=-2 UseB2=F ITyADJ=14
 ICtDFT= 12500011 ScaDFX=  1.000000  1.000000  1.000000  1.000000
 Range of M.O.s used for correlation:    15   379
 NBasis=   385 NAE=    47 NBE=    47 NFC=    14 NFV=     0
 NROrb=    365 NOA=    33 NOB=    33 NVA=   332 NVB=   332

 **** Warning!!: The largest alpha MO coefficient is  0.15242246D+03

 Orbital symmetries:
       Occupied  (A') (A') (A') (A') (A') (A') (A') (A') (A') (A')
                 (A') (A') (A') (A') (A') (A') (A') (A') (A') (A')
                 (A') (A') (A') (A') (A') (A') (A') (A') (A') (A')
                 (A') (A') (A") (A') (A') (A') (A') (A") (A") (A')
                 (A') (A') (A') (A") (A") (A") (A")
       Virtual   (A") (A") (A") (A") (A') (A') (A') (A') (A") (A')
                 (A') (A") (A') (A') (A") (A') (A") (A') (A') (A')
                 (A") (A") (A') (A') (A') (A") (A') (A") (A') (A')
                 (A") (A') (A") (A') (A') (A') (A') (A') (A") (A')
                 (A") (A') (A') (A") (A") (A') (A") (A') (A") (A')
                 (A') (A') (A') (A') (A') (A") (A') (A') (A') (A')
                 (A') (A") (A') (A') (A') (A') (A") (A') (A') (A')
                 (A') (A') (A') (A') (A') (A') (A') (A') (A') (A')
                 (A') (A') (A') (A') (A') (A') (A') (A') (A') (A')
                 (A') (A') (A') (A') (A") (A') (A") (A") (A') (A")
                 (A') (A') (A') (A') (A") (A") (A') (A") (A") (A')
                 (A') (A') (A") (A') (A') (A") (A') (A") (A') (A")
                 (A") (A') (A") (A') (A') (A') (A") (A') (A') (A')
                 (A') (A') (A') (A') (A') (A') (A') (A') (A') (A')
                 (A') (A') (A') (A") (A') (A') (A') (A') (A') (A')
                 (A') (A') (A") (A') (A") (A') (A") (A") (A') (A")
                 (A") (A') (A') (A") (A") (A") (A') (A") (A') (A')
                 (A') (A') (A') (A") (A") (A') (A') (A') (A') (A")
                 (A') (A') (A') (A") (A') (A") (A') (A') (A") (A")
                 (A") (A') (A') (A") (A") (A') (A') (A') (A') (A')
                 (A") (A") (A") (A') (A') (A") (A') (A") (A') (A')
                 (A') (A") (A') (A") (A") (A') (A") (A') (A') (A")
                 (A') (A') (A') (A') (A") (A') (A') (A') (A") (A")
                 (A') (A') (A') (A") (A') (A') (A') (A") (A") (A')
                 (A") (A') (A') (A") (A') (A') (A') (A') (A') (A')
                 (A") (A') (A') (A') (A') (A") (A") (A") (A') (A')
                 (A') (A') (A') (A') (A') (A') (A") (A') (A') (A')
                 (A') (A") (A') (A") (A") (A") (A') (A") (A') (A")
                 (A') (A") (A") (A') (A") (A") (A') (A') (A') (A')
                 (A') (A') (A') (A') (A') (A') (A') (A') (A') (A')
                 (A') (A') (A') (A") (A') (A') (A') (A') (A') (A')
                 (A') (A') (A') (A') (A') (A') (A') (A') (A') (A')
                 (A') (A') (A') (A') (A') (A') (A') (A') (A') (A')
                 (A') (A')
     4 initial guesses have been made.
 Convergence on wavefunction:    0.001000000000000
 Iteration     1 Dimension     4 NMult     0 NNew      4
 CISAX will form     4 AO SS matrices at one time.
 Iteration     2 Dimension     6 NMult     4 NNew      2
 Iteration     3 Dimension     8 NMult     6 NNew      2
 Iteration     4 Dimension    10 NMult     8 NNew      2
 Iteration     5 Dimension    12 NMult    10 NNew      2
 Iteration     6 Dimension    14 NMult    12 NNew      2
 ***********************************************************************
 Excited states from <AA,BB:AA,BB> singles matrix:
 ***********************************************************************
 
 Ground to excited state transition densities written to RWF  633
 Ground to excited state transition electric dipole moments (Au):
       state          X           Y           Z        Dip. S.      Osc.
         1         0.0059     -0.6402      0.0000      0.4099      0.0283
 Ground to excited state transition velocity dipole moments (Au):
       state          X           Y           Z        Dip. S.      Osc.
         1         0.0003      0.0740      0.0000      0.0055      0.0352
 Ground to excited state transition magnetic dipole moments (Au):
       state          X           Y           Z
         1         0.0000      0.0000      0.0494
 Ground to excited state transition velocity quadrupole moments (Au):
       state          XX          YY          ZZ          XY          XZ          YZ
         1         0.2954      0.0346     -0.0098      0.0198     -0.0000     -0.0000
 <0|del|b> * <b|rxdel|0> + <0|del|b> * <b|delr+rdel|0>
 Rotatory Strengths (R) in cgs (10**-40 erg-esu-cm/Gauss)
       state          XX          YY          ZZ    R(velocity)    E-M Angle
         1         0.0000      0.0000     -0.0000      0.0000       90.00
 1/2[<0|r|b>*<b|rxdel|0> + (<0|rxdel|b>*<b|r|0>)*]
 Rotatory Strengths (R) in cgs (10**-40 erg-esu-cm/Gauss)
       state          XX          YY          ZZ     R(length)
         1        -0.0000      0.0000     -0.0000     -0.0000
  1/2[<0|del|b>*<b|r|0> + (<0|r|b>*<b|del|0>)*] (Au)
       state          X           Y           Z        Dip. S.   Osc.(frdel)
         1         0.0000     -0.0474      0.0000      0.0474      0.0316

 Excitation energies and oscillator strengths:
 
 Excited State   1:      Singlet-A'     2.8183 eV  439.92 nm  f=0.0283  <S**2>=0.000
      47 -> 48         0.70420
 This state for optimization and/or second-order correction.
 Total Energy, E(TD-HF/TD-DFT) =  -539.656522637    
 Copying the excited state density for this state as the 1-particle RhoCI density.
 SavETr:  write IOETrn=   770 NScale= 10 NData=  16 NLR=1 NState=    1 LETran=      28.

 **********************************************************************

            Population analysis using the SCF Density.

 **********************************************************************

 Orbital symmetries:
       Occupied  (A') (A') (A') (A') (A') (A') (A') (A') (A') (A')
                 (A') (A') (A') (A') (A') (A') (A') (A') (A') (A')
                 (A') (A') (A') (A') (A') (A') (A') (A') (A') (A')
                 (A') (A') (A") (A') (A') (A') (A') (A") (A") (A')
                 (A') (A') (A') (A") (A") (A") (A")
       Virtual   (A") (A") (A") (A") (A') (A') (A') (A') (A") (A')
                 (A') (A") (A') (A') (A") (A') (A") (A') (A') (A')
                 (A") (A") (A') (A') (A') (A") (A') (A") (A') (A')
                 (A") (A') (A") (A') (A') (A') (A') (A') (A") (A')
                 (A") (A') (A') (A") (A") (A') (A") (A') (A") (A')
                 (A') (A') (A') (A') (A') (A") (A') (A') (A') (A')
                 (A') (A") (A') (A') (A') (A') (A") (A') (A') (A')
                 (A') (A') (A') (A') (A') (A') (A') (A') (A') (A')
                 (A') (A') (A') (A') (A') (A') (A') (A') (A') (A')
                 (A') (A') (A') (A') (A") (A') (A") (A") (A') (A")
                 (A') (A') (A') (A') (A") (A") (A') (A") (A") (A')
                 (A') (A') (A") (A') (A') (A") (A') (A") (A') (A")
                 (A") (A') (A") (A') (A') (A') (A") (A') (A') (A')
                 (A') (A') (A') (A') (A') (A') (A') (A') (A') (A')
                 (A') (A') (A') (A") (A') (A') (A') (A') (A') (A')
                 (A') (A') (A") (A') (A") (A') (A") (A") (A') (A")
                 (A") (A') (A') (A") (A") (A") (A') (A") (A') (A')
                 (A') (A') (A') (A") (A") (A') (A') (A') (A') (A")
                 (A') (A') (A') (A") (A') (A") (A') (A') (A") (A")
                 (A") (A') (A') (A") (A") (A') (A') (A') (A') (A')
                 (A") (A") (A") (A') (A') (A") (A') (A") (A') (A')
                 (A') (A") (A') (A") (A") (A') (A") (A') (A') (A")
                 (A') (A') (A') (A') (A") (A') (A') (A') (A") (A")
                 (A') (A') (A') (A") (A') (A') (A') (A") (A") (A')
                 (A") (A') (A') (A") (A') (A') (A') (A') (A') (A')
                 (A") (A') (A') (A') (A') (A") (A") (A") (A') (A')
                 (A') (A') (A') (A') (A') (A') (A") (A') (A') (A')
                 (A') (A") (A') (A") (A") (A") (A') (A") (A') (A")
                 (A') (A") (A") (A') (A") (A") (A') (A') (A') (A')
                 (A') (A') (A') (A') (A') (A') (A') (A') (A') (A')
                 (A') (A') (A') (A") (A') (A') (A') (A') (A') (A')
                 (A') (A') (A') (A') (A') (A') (A') (A') (A') (A')
                 (A') (A') (A') (A') (A') (A') (A') (A') (A') (A')
                 (A') (A')
 The electronic state is 1-A'.
 Alpha  occ. eigenvalues --  -10.77663 -10.73315 -10.73166 -10.72498 -10.72371
 Alpha  occ. eigenvalues --  -10.71434 -10.71301 -10.71154 -10.70979 -10.70857
 Alpha  occ. eigenvalues --  -10.70005 -10.69939 -10.69667 -10.69592  -1.16444
 Alpha  occ. eigenvalues --   -1.12466  -1.06944  -1.05733  -1.01313  -1.00190
 Alpha  occ. eigenvalues --   -0.95777  -0.91056  -0.86419  -0.85901  -0.83816
 Alpha  occ. eigenvalues --   -0.78398  -0.76030  -0.74417  -0.69568  -0.69245
 Alpha  occ. eigenvalues --   -0.68501  -0.68190  -0.68102  -0.64752  -0.64283
 Alpha  occ. eigenvalues --   -0.63055  -0.61862  -0.60023  -0.59660  -0.59096
 Alpha  occ. eigenvalues --   -0.56896  -0.55224  -0.54825  -0.52438  -0.46643
 Alpha  occ. eigenvalues --   -0.46060  -0.44481
 Alpha virt. eigenvalues --   -0.26088  -0.14670  -0.14097  -0.12773  -0.11179
 Alpha virt. eigenvalues --   -0.10086  -0.09231  -0.07983  -0.07969  -0.07476
 Alpha virt. eigenvalues --   -0.07204  -0.07145  -0.05643  -0.05581  -0.05333
 Alpha virt. eigenvalues --   -0.03827  -0.03646  -0.03279  -0.03133  -0.02165
 Alpha virt. eigenvalues --   -0.01367  -0.00930   0.00192   0.00592   0.00662
 Alpha virt. eigenvalues --    0.01056   0.01513   0.01941   0.02218   0.02286
 Alpha virt. eigenvalues --    0.02450   0.02670   0.02747   0.03314   0.03374
 Alpha virt. eigenvalues --    0.04240   0.04505   0.04696   0.05031   0.05365
 Alpha virt. eigenvalues --    0.06034   0.06296   0.06596   0.07044   0.07255
 Alpha virt. eigenvalues --    0.07892   0.08162   0.08362   0.08539   0.08928
 Alpha virt. eigenvalues --    0.09545   0.09561   0.10037   0.10870   0.11028
 Alpha virt. eigenvalues --    0.11116   0.12173   0.12243   0.12907   0.12979
 Alpha virt. eigenvalues --    0.13410   0.13523   0.14017   0.14382   0.16210
 Alpha virt. eigenvalues --    0.16309   0.16355   0.17347   0.17623   0.17797
 Alpha virt. eigenvalues --    0.18122   0.19072   0.19241   0.19635   0.19738
 Alpha virt. eigenvalues --    0.21561   0.21588   0.22724   0.23110   0.23561
 Alpha virt. eigenvalues --    0.23806   0.24574   0.25330   0.26920   0.27605
 Alpha virt. eigenvalues --    0.28846   0.29295   0.29861   0.31358   0.35819
 Alpha virt. eigenvalues --    0.36429   0.38182   0.39276   0.41155   0.41402
 Alpha virt. eigenvalues --    0.41967   0.42198   0.42984   0.43680   0.44295
 Alpha virt. eigenvalues --    0.44955   0.45020   0.46101   0.46160   0.47946
 Alpha virt. eigenvalues --    0.48526   0.48866   0.49026   0.50426   0.51158
 Alpha virt. eigenvalues --    0.51552   0.51713   0.52115   0.52903   0.53973
 Alpha virt. eigenvalues --    0.54090   0.54650   0.55683   0.55764   0.57471
 Alpha virt. eigenvalues --    0.58240   0.58816   0.61443   0.62194   0.62345
 Alpha virt. eigenvalues --    0.63212   0.63491   0.64966   0.65155   0.67262
 Alpha virt. eigenvalues --    0.70414   0.70602   0.71025   0.72413   0.72870
 Alpha virt. eigenvalues --    0.75774   0.76016   0.76290   0.76899   0.77094
 Alpha virt. eigenvalues --    0.77842   0.77879   0.78238   0.79882   0.80394
 Alpha virt. eigenvalues --    0.81244   0.81654   0.82140   0.83013   0.85185
 Alpha virt. eigenvalues --    0.87162   0.88177   0.88596   0.89124   0.90412
 Alpha virt. eigenvalues --    0.91083   0.91259   0.93192   0.94631   0.96452
 Alpha virt. eigenvalues --    0.96644   1.00394   1.01287   1.01689   1.02711
 Alpha virt. eigenvalues --    1.03197   1.03837   1.04737   1.05420   1.08768
 Alpha virt. eigenvalues --    1.19555   1.23268   1.24056   1.25247   1.28026
 Alpha virt. eigenvalues --    1.29696   1.31763   1.34305   1.35766   1.36003
 Alpha virt. eigenvalues --    1.39351   1.40159   1.40946   1.43017   1.43459
 Alpha virt. eigenvalues --    1.43528   1.45075   1.45449   1.46365   1.46677
 Alpha virt. eigenvalues --    1.47640   1.48016   1.51729   1.53625   1.55772
 Alpha virt. eigenvalues --    1.55821   1.56350   1.56576   1.57777   1.61442
 Alpha virt. eigenvalues --    1.63234   1.63512   1.63776   1.66109   1.68305
 Alpha virt. eigenvalues --    1.68357   1.68690   1.69735   1.74389   1.75989
 Alpha virt. eigenvalues --    1.77168   1.78050   1.80015   1.80119   1.80724
 Alpha virt. eigenvalues --    1.83157   1.83210   1.83610   1.83821   1.84166
 Alpha virt. eigenvalues --    1.84280   1.85853   1.86080   1.88224   1.91385
 Alpha virt. eigenvalues --    1.92071   1.94124   1.95199   1.97691   1.98153
 Alpha virt. eigenvalues --    1.99740   2.02426   2.04409   2.07261   2.11813
 Alpha virt. eigenvalues --    2.12058   2.14111   2.15221   2.19102   2.21249
 Alpha virt. eigenvalues --    2.22793   2.28619   2.30161   2.34642   2.34947
 Alpha virt. eigenvalues --    2.36221   2.38686   2.39594   2.42372   2.44669
 Alpha virt. eigenvalues --    2.46164   2.46511   2.49360   2.52906   2.53805
 Alpha virt. eigenvalues --    2.54238   2.56789   2.57841   2.58302   2.59635
 Alpha virt. eigenvalues --    2.59822   2.61602   2.62133   2.63539   2.63794
 Alpha virt. eigenvalues --    2.64780   2.65113   2.65226   2.65325   2.67954
 Alpha virt. eigenvalues --    2.68536   2.70955   2.71416   2.73345   2.74819
 Alpha virt. eigenvalues --    2.76303   2.78774   2.79721   2.82865   2.83060
 Alpha virt. eigenvalues --    2.84883   2.86291   2.92111   2.97004   2.99508
 Alpha virt. eigenvalues --    3.00058   3.05111   3.11027   3.11434   3.13100
 Alpha virt. eigenvalues --    3.20994   3.23659   3.26712   3.28225   3.30752
 Alpha virt. eigenvalues --    3.32804   3.33630   3.43423   3.45914   3.46588
 Alpha virt. eigenvalues --    3.48522   3.50137   3.56486   3.65878   3.66839
 Alpha virt. eigenvalues --    3.67431   3.94190   3.94576   3.95173   3.96218
 Alpha virt. eigenvalues --    4.04012   4.06896   4.07488   4.12547   4.35525
 Alpha virt. eigenvalues --    4.61361   4.69812   4.71622  23.45340  23.60523
 Alpha virt. eigenvalues --   23.82193  23.85474  23.87823  23.89228  23.90549
 Alpha virt. eigenvalues --   23.92465  23.97603  23.99203  23.99982  24.00706
 Alpha virt. eigenvalues --   24.10540  24.10727
          Condensed to atoms (all electrons):
               1          2          3          4          5          6
     1  C    8.627329   0.289413  -0.529782   2.006084  -0.032719  -0.097089
     2  C    0.289413   7.132731   0.339360  -1.083171  -0.014882  -0.014515
     3  C   -0.529782   0.339360   6.584648   0.770416  -0.125967   0.016946
     4  C    2.006084  -1.083171   0.770416  10.924178  -0.363399  -0.122097
     5  C   -0.032719  -0.014882  -0.125967  -0.363399  11.086879   0.754687
     6  C   -0.097089  -0.014515   0.016946  -0.122097   0.754687   6.592792
     7  C   -0.016842   0.001659  -0.014564  -0.022118  -1.068115   0.370480
     8  C    0.405263  -0.020306  -0.094123  -0.024973   1.946514  -0.560305
     9  C   -1.173358  -0.794345   0.294803  -0.252414  -0.186420   0.293703
    10  C   -1.293280   0.261178  -0.366651  -2.549231  -2.603332  -0.341203
    11  C    0.295054  -0.934975   1.034598  -0.251732  -1.517913  -0.185924
    12  C   -2.122398   1.396927  -1.407085  -1.592328  -0.358075  -0.184737
    13  C    0.208763  -0.250138  -0.163270  -1.488320  -0.279358   0.988014
    14  C   -1.064952  -0.181533  -0.214741  -0.309581  -1.603242  -1.387558
    15  H    0.367376  -0.106264  -0.001019   0.027515   0.005629   0.001093
    16  H   -0.019126   0.378480  -0.016094   0.013154  -0.001524  -0.000326
    17  H   -0.025843  -0.015255   0.373937  -0.067755   0.000341   0.000399
    18  H    0.050490   0.002955  -0.084753   0.456171   0.006395  -0.005092
    19  H   -0.047161  -0.007777   0.051417  -0.067907  -0.071859   0.051058
    20  H    0.007269   0.002046  -0.005071   0.006362   0.459153  -0.084863
    21  H   -0.001325  -0.000398   0.000400   0.000295  -0.067999   0.375779
    22  H    0.000765   0.000371  -0.000331  -0.001563   0.014113  -0.017242
    23  H    0.005617  -0.002703   0.001115   0.005863   0.027080  -0.001815
    24  H    0.032086   0.014238  -0.001560  -0.012298  -0.012133  -0.001514
    25  H    0.032086   0.014238  -0.001560  -0.012298  -0.012133  -0.001514
               7          8          9         10         11         12
     1  C   -0.016842   0.405263  -1.173358  -1.293280   0.295054  -2.122398
     2  C    0.001659  -0.020306  -0.794345   0.261178  -0.934975   1.396927
     3  C   -0.014564  -0.094123   0.294803  -0.366651   1.034598  -1.407085
     4  C   -0.022118  -0.024973  -0.252414  -2.549231  -0.251732  -1.592328
     5  C   -1.068115   1.946514  -0.186420  -2.603332  -1.517913  -0.358075
     6  C    0.370480  -0.560305   0.293703  -0.341203  -0.185924  -0.184737
     7  C    7.138002   0.349607  -0.810659   0.235702  -0.235392  -0.210764
     8  C    0.349607   8.553519  -1.167703  -1.269246   0.208716  -1.093603
     9  C   -0.810659  -1.167703   9.597096   0.258136   1.611159  -1.902403
    10  C    0.235702  -1.269246   0.258136   9.166292  -0.481967   2.441451
    11  C   -0.235392   0.208716   1.611159  -0.481967  14.471440  -3.728332
    12  C   -0.210764  -1.093603  -1.902403   2.441451  -3.728332  16.032168
    13  C   -0.894628   0.301660   1.624575  -0.436641   1.092724  -4.818388
    14  C    1.303745  -2.031888  -1.975233   2.424078  -4.792285   3.080618
    15  H   -0.002622   0.005874   0.091901  -0.009827  -0.030104  -0.026456
    16  H    0.000359   0.000667   0.003561  -0.009307   0.026746  -0.033311
    17  H   -0.000402  -0.001308  -0.005879   0.020678  -0.028100   0.093398
    18  H    0.002036   0.007213  -0.025197   0.013721  -0.006657  -0.055645
    19  H   -0.007637  -0.046399   0.075687   0.421932   0.078140  -0.061202
    20  H    0.002952   0.049726  -0.024576   0.012216  -0.011890  -0.015289
    21  H   -0.017540  -0.023828  -0.005598   0.020368  -0.006303   0.005317
    22  H    0.379317  -0.019376   0.003472  -0.009563   0.003174  -0.009310
    23  H   -0.105752   0.366979   0.091158  -0.009341   0.000732   0.006776
    24  H    0.014687   0.033591   0.356282   0.005322   0.011806  -0.060060
    25  H    0.014687   0.033591   0.356282   0.005322   0.011806  -0.060060
              13         14         15         16         17         18
     1  C    0.208763  -1.064952   0.367376  -0.019126  -0.025843   0.050490
     2  C   -0.250138  -0.181533  -0.106264   0.378480  -0.015255   0.002955
     3  C   -0.163270  -0.214741  -0.001019  -0.016094   0.373937  -0.084753
     4  C   -1.488320  -0.309581   0.027515   0.013154  -0.067755   0.456171
     5  C   -0.279358  -1.603242   0.005629  -0.001524   0.000341   0.006395
     6  C    0.988014  -1.387558   0.001093  -0.000326   0.000399  -0.005092
     7  C   -0.894628   1.303745  -0.002622   0.000359  -0.000402   0.002036
     8  C    0.301660  -2.031888   0.005874   0.000667  -0.001308   0.007213
     9  C    1.624575  -1.975233   0.091901   0.003561  -0.005879  -0.025197
    10  C   -0.436641   2.424078  -0.009827  -0.009307   0.020678   0.013721
    11  C    1.092724  -4.792285  -0.030104   0.026746  -0.028100  -0.006657
    12  C   -4.818388   3.080618  -0.026456  -0.033311   0.093398  -0.055645
    13  C   14.515769  -3.819369   0.002358   0.002981  -0.006300  -0.011841
    14  C   -3.819369  16.100762   0.006325  -0.008881   0.005309  -0.012539
    15  H    0.002358   0.006325   0.439789  -0.009040   0.001448   0.000160
    16  H    0.002981  -0.008881  -0.009040   0.420095  -0.006578   0.001913
    17  H   -0.006300   0.005309   0.001448  -0.006578   0.422729  -0.010256
    18  H   -0.011841  -0.012539   0.000160   0.001913  -0.010256   0.454236
    19  H    0.076862  -0.069444   0.000297  -0.000535   0.001382  -0.006276
    20  H   -0.007463  -0.053071  -0.000111   0.000014  -0.000140   0.001267
    21  H   -0.026855   0.090636   0.000013  -0.000007   0.000010  -0.000146
    22  H    0.027015  -0.033514  -0.000127   0.000007  -0.000007   0.000016
    23  H   -0.030383  -0.022652   0.000579  -0.000127   0.000014  -0.000114
    24  H    0.015186  -0.060057  -0.000895   0.000632  -0.000143   0.000187
    25  H    0.015186  -0.060057  -0.000895   0.000632  -0.000143   0.000187
              19         20         21         22         23         24
     1  C   -0.047161   0.007269  -0.001325   0.000765   0.005617   0.032086
     2  C   -0.007777   0.002046  -0.000398   0.000371  -0.002703   0.014238
     3  C    0.051417  -0.005071   0.000400  -0.000331   0.001115  -0.001560
     4  C   -0.067907   0.006362   0.000295  -0.001563   0.005863  -0.012298
     5  C   -0.071859   0.459153  -0.067999   0.014113   0.027080  -0.012133
     6  C    0.051058  -0.084863   0.375779  -0.017242  -0.001815  -0.001514
     7  C   -0.007637   0.002952  -0.017540   0.379317  -0.105752   0.014687
     8  C   -0.046399   0.049726  -0.023828  -0.019376   0.366979   0.033591
     9  C    0.075687  -0.024576  -0.005598   0.003472   0.091158   0.356282
    10  C    0.421932   0.012216   0.020368  -0.009563  -0.009341   0.005322
    11  C    0.078140  -0.011890  -0.006303   0.003174   0.000732   0.011806
    12  C   -0.061202  -0.015289   0.005317  -0.009310   0.006776  -0.060060
    13  C    0.076862  -0.007463  -0.026855   0.027015  -0.030383   0.015186
    14  C   -0.069444  -0.053071   0.090636  -0.033514  -0.022652  -0.060057
    15  H    0.000297  -0.000111   0.000013  -0.000127   0.000579  -0.000895
    16  H   -0.000535   0.000014  -0.000007   0.000007  -0.000127   0.000632
    17  H    0.001382  -0.000140   0.000010  -0.000007   0.000014  -0.000143
    18  H   -0.006276   0.001267  -0.000146   0.000016  -0.000114   0.000187
    19  H    0.442763  -0.006143   0.001453  -0.000545   0.000320   0.000594
    20  H   -0.006143   0.452951  -0.010272   0.001932   0.000190   0.000175
    21  H    0.001453  -0.010272   0.422168  -0.006686   0.001487  -0.000141
    22  H   -0.000545   0.001932  -0.006686   0.418810  -0.008983   0.000629
    23  H    0.000320   0.000190   0.001487  -0.008983   0.438228  -0.000918
    24  H    0.000594   0.000175  -0.000141   0.000629  -0.000918   0.493894
    25  H    0.000594   0.000175  -0.000141   0.000629  -0.000918  -0.079651
              25
     1  C    0.032086
     2  C    0.014238
     3  C   -0.001560
     4  C   -0.012298
     5  C   -0.012133
     6  C   -0.001514
     7  C    0.014687
     8  C    0.033591
     9  C    0.356282
    10  C    0.005322
    11  C    0.011806
    12  C   -0.060060
    13  C    0.015186
    14  C   -0.060057
    15  H   -0.000895
    16  H    0.000632
    17  H   -0.000143
    18  H    0.000187
    19  H    0.000594
    20  H    0.000175
    21  H   -0.000141
    22  H    0.000629
    23  H   -0.000918
    24  H   -0.079651
    25  H    0.493894
 Mulliken charges:
               1
     1  C    0.096283
     2  C   -0.407335
     3  C   -0.441069
     4  C    0.011147
     5  C    0.018280
     6  C   -0.439153
     7  C   -0.406196
     8  C    0.090137
     9  C   -0.334030
    10  C    0.093194
    11  C   -0.634519
    12  C    0.682790
    13  C   -0.638140
    14  C    0.689123
    15  H    0.237003
    16  H    0.255614
    17  H    0.248463
    18  H    0.221567
    19  H    0.190385
    20  H    0.222460
    21  H    0.249311
    22  H    0.256997
    23  H    0.237567
    24  H    0.250060
    25  H    0.250060
 Sum of Mulliken charges =   1.00000
 Mulliken charges with hydrogens summed into heavy atoms:
               1
     1  C    0.333286
     2  C   -0.151720
     3  C   -0.192606
     4  C    0.232714
     5  C    0.240739
     6  C   -0.189842
     7  C   -0.149199
     8  C    0.327705
     9  C    0.166091
    10  C    0.283579
    11  C   -0.634519
    12  C    0.682790
    13  C   -0.638140
    14  C    0.689123
 Electronic spatial extent (au):  <R**2>=           2855.9198
 Charge=              1.0000 electrons
 Dipole moment (field-independent basis, Debye):
    X=             -0.1523    Y=              0.1878    Z=             -0.0000  Tot=              0.2418
 Quadrupole moment (field-independent basis, Debye-Ang):
   XX=            -31.1143   YY=            -56.2623   ZZ=            -84.1416
   XY=             -0.1500   XZ=             -0.0000   YZ=              0.0000
 Traceless Quadrupole moment (field-independent basis, Debye-Ang):
   XX=             26.0584   YY=              0.9104   ZZ=            -26.9689
   XY=             -0.1500   XZ=             -0.0000   YZ=              0.0000
 Octapole moment (field-independent basis, Debye-Ang**2):
  XXX=             -1.7428  YYY=              5.2142  ZZZ=              0.0000  XYY=             -0.2832
  XXY=             -5.1722  XXZ=             -0.0000  XZZ=             -0.2425  YZZ=             -3.0874
  YYZ=             -0.0000  XYZ=             -0.0000
 Hexadecapole moment (field-independent basis, Debye-Ang**3):
 XXXX=          -2122.3717 YYYY=           -609.2953 ZZZZ=            -99.3292 XXXY=              3.3328
 XXXZ=              0.0000 YYYX=              4.5894 YYYZ=             -0.0000 ZZZX=             -0.0000
 ZZZY=              0.0000 XXYY=           -507.7047 XXZZ=           -590.7377 YYZZ=           -145.7148
 XXYZ=             -0.0000 YYXZ=              0.0000 ZZXY=              2.2272
 N-N= 7.811977393200D+02 E-N=-2.798737535670D+03  KE= 5.375062406162D+02
 Symmetry A'   KE= 5.228589457065D+02
 Symmetry A"   KE= 1.464729490958D+01
 Unable to Open any file for archive entry.
 1\1\GINC-GADI-CPU-CLX-2072\SP\RM062X TD-FC\6-311++G(d,p)\C14H11(1+)\TS
 1578\28-Jul-2022\0\\#n M062X/6-311++G(d,p) TD(NStates=1) EmpiricalDisp
 ersion=GD3 SP\\SP_-2\\1,1\C,0,0.,2.495855,1.360431\C,0,0.,3.705108,0.6
 73589\C,0,0.,3.685661,-0.71063\C,0,0.,2.459156,-1.405938\C,0,0.,-2.467
 156,-1.409138\C,0,0.,-3.682061,-0.71703\C,0,0.,-3.697908,0.670389\C,0,
 0.,-2.489455,1.360431\C,0,0.,0.0016,1.453369\C,0,0.,-0.0058,-1.429189\
 C,0,0.,1.260255,0.674865\C,0,0.,1.235671,-0.730604\C,0,0.,-1.263855,0.
 679265\C,0,0.,-1.239271,-0.731004\H,0,0.,2.489071,2.443647\H,0,0.,4.64
 0353,1.213089\H,0,0.,4.609462,-1.271949\H,0,0.,2.46575,-2.488459\H,0,0
 .,-0.005,-2.510266\H,0,0.,-2.46935,-2.491659\H,0,0.,-4.609062,-1.27274
 9\H,0,0.,-4.633153,1.210289\H,0,0.,-2.487071,2.443647\H,0,-0.859585,0.
 0088,2.145787\H,0,0.859585,0.0088,2.145787\\Version=ES64L-G16RevC.01\S
 tate=1-A'\HF=-539.7600947\RMSD=4.860e-09\PG=CS [SG(C14H9),X(H2)]\\@
 The archive entry for this job was punched.


 EVERY WORD THAT YOU WRITE IS A BLOW THAT SMITES THE DEVIL.
     -- ST. BERNARD OF CLAIRVAUX
 Job cpu time:       0 days  0 hours 52 minutes 25.8 seconds.
 Elapsed time:       0 days  0 hours  1 minutes  5.9 seconds.
 File lengths (MBytes):  RWF=    460 Int=      0 D2E=      0 Chk=     15 Scr=      1
 Normal termination of Gaussian 16 at Thu Jul 28 14:00:26 2022.
