 Entering Gaussian System, Link 0=g16
 Initial command:
 /apps/gaussian/g16c01/g16/l1.exe "/jobfs/53005151.gadi-pbs/Gau-4184074.inp" -scrdir="/jobfs/53005151.gadi-pbs/"
 Entering Link 1 = /apps/gaussian/g16c01/g16/l1.exe PID=   4184075.
  
 Copyright (c) 1988-2019, Gaussian, Inc.  All Rights Reserved.
  
 This is part of the Gaussian(R) 16 program.  It is based on
 the Gaussian(R) 09 system (copyright 2009, Gaussian, Inc.),
 the Gaussian(R) 03 system (copyright 2003, Gaussian, Inc.),
 the Gaussian(R) 98 system (copyright 1998, Gaussian, Inc.),
 the Gaussian(R) 94 system (copyright 1995, Gaussian, Inc.),
 the Gaussian 92(TM) system (copyright 1992, Gaussian, Inc.),
 the Gaussian 90(TM) system (copyright 1990, Gaussian, Inc.),
 the Gaussian 88(TM) system (copyright 1988, Gaussian, Inc.),
 the Gaussian 86(TM) system (copyright 1986, Carnegie Mellon
 University), and the Gaussian 82(TM) system (copyright 1983,
 Carnegie Mellon University). Gaussian is a federally registered
 trademark of Gaussian, Inc.
  
 This software contains proprietary and confidential information,
 including trade secrets, belonging to Gaussian, Inc.
  
 This software is provided under written license and may be
 used, copied, transmitted, or stored only in accord with that
 written license.
  
 The following legend is applicable only to US Government
 contracts under FAR:
  
                    RESTRICTED RIGHTS LEGEND
  
 Use, reproduction and disclosure by the US Government is
 subject to restrictions as set forth in subparagraphs (a)
 and (c) of the Commercial Computer Software - Restricted
 Rights clause in FAR 52.227-19.
  
 Gaussian, Inc.
 340 Quinnipiac St., Bldg. 40, Wallingford CT 06492
  
  
 ---------------------------------------------------------------
 Warning -- This program may not be used in any manner that
 competes with the business of Gaussian, Inc. or will provide
 assistance to any competitor of Gaussian, Inc.  The licensee
 of this program is prohibited from giving any competitor of
 Gaussian, Inc. access to this program.  By using this program,
 the user acknowledges that Gaussian, Inc. is engaged in the
 business of creating and licensing software in the field of
 computational chemistry and represents and warrants to the
 licensee that it is not a competitor of Gaussian, Inc. and that
 it will not use this program in any manner prohibited above.
 ---------------------------------------------------------------
  

 Cite this work as:
 Gaussian 16, Revision C.01,
 M. J. Frisch, G. W. Trucks, H. B. Schlegel, G. E. Scuseria, 
 M. A. Robb, J. R. Cheeseman, G. Scalmani, V. Barone, 
 G. A. Petersson, H. Nakatsuji, X. Li, M. Caricato, A. V. Marenich, 
 J. Bloino, B. G. Janesko, R. Gomperts, B. Mennucci, H. P. Hratchian, 
 J. V. Ortiz, A. F. Izmaylov, J. L. Sonnenberg, D. Williams-Young, 
 F. Ding, F. Lipparini, F. Egidi, J. Goings, B. Peng, A. Petrone, 
 T. Henderson, D. Ranasinghe, V. G. Zakrzewski, J. Gao, N. Rega, 
 G. Zheng, W. Liang, M. Hada, M. Ehara, K. Toyota, R. Fukuda, 
 J. Hasegawa, M. Ishida, T. Nakajima, Y. Honda, O. Kitao, H. Nakai, 
 T. Vreven, K. Throssell, J. A. Montgomery, Jr., J. E. Peralta, 
 F. Ogliaro, M. J. Bearpark, J. J. Heyd, E. N. Brothers, K. N. Kudin, 
 V. N. Staroverov, T. A. Keith, R. Kobayashi, J. Normand, 
 K. Raghavachari, A. P. Rendell, J. C. Burant, S. S. Iyengar, 
 J. Tomasi, M. Cossi, J. M. Millam, M. Klene, C. Adamo, R. Cammi, 
 J. W. Ochterski, R. L. Martin, K. Morokuma, O. Farkas, 
 J. B. Foresman, and D. J. Fox, Gaussian, Inc., Wallingford CT, 2019.
 
 ******************************************
 Gaussian 16:  ES64L-G16RevC.01  3-Jul-2019
                28-Jul-2022 
 ******************************************
 %NProcShared=48
 Will use up to   48 processors via shared memory.
 %mem = 190GB
 ---------------------------------------------------------------
 #n M062X/6-311++G(d,p) TD(NStates=1) EmpiricalDispersion=GD3 SP
 ---------------------------------------------------------------
 1/38=1,172=1/1;
 2/12=2,17=6,18=5,40=1/2;
 3/5=4,6=6,7=1111,11=9,25=1,30=1,74=-55,124=31/1,2,3,8;
 4//1;
 5/5=2,38=5/2;
 8/6=1,10=2,108=1/1;
 9/41=1,42=1,70=2/14;
 6/7=2,8=2,9=2,10=2/1;
 99/5=1,9=1/99;
 ----
 SP_4
 ----
 Symbolic Z-matrix:
 Charge =  1 Multiplicity = 1
 C                     0.        2.48306   1.36003 
 C                     0.        3.69671   0.66919 
 C                     0.        3.68106  -0.71983 
 C                     0.        2.47036  -1.40954 
 C                     0.       -2.45596  -1.40554 
 C                     0.       -3.68666  -0.70783 
 C                     0.       -3.70631   0.67479 
 C                     0.       -2.50226   1.36083 
 C                     0.        0.        1.45337 
 C                     0.        0.018    -1.42919 
 C                     0.        1.26365   0.68747 
 C                     0.        1.23747  -0.7384 
 C                     0.       -1.26046   0.66667 
 C                     0.       -1.23747  -0.7232 
 H                     0.        2.49847   2.44365 
 H                     0.        4.63595   1.20289 
 H                     0.        4.61446  -1.26515 
 H                     0.        2.45715  -2.49246 
 H                     0.        0.004    -2.51027 
 H                     0.       -2.47795  -2.48766 
 H                     0.       -4.60406  -1.27955 
 H                     0.       -4.63755   1.22049 
 H                     0.       -2.47767   2.44365 
 H                    -0.85959  -0.0072    2.14579 
 H                     0.85959  -0.0072    2.14579 
 
                          Input orientation:                          
 ---------------------------------------------------------------------
 Center     Atomic      Atomic             Coordinates (Angstroms)
 Number     Number       Type             X           Y           Z
 ---------------------------------------------------------------------
      1          6           0        0.000000    2.483055    1.360031
      2          6           0        0.000000    3.696708    0.669189
      3          6           0        0.000000    3.681061   -0.719830
      4          6           0        0.000000    2.470356   -1.409538
      5          6           0        0.000000   -2.455956   -1.405538
      6          6           0        0.000000   -3.686661   -0.707830
      7          6           0        0.000000   -3.706308    0.674789
      8          6           0        0.000000   -2.502255    1.360831
      9          6           0        0.000000    0.000000    1.453369
     10          6           0        0.000000    0.018000   -1.429189
     11          6           0        0.000000    1.263655    0.687465
     12          6           0        0.000000    1.237471   -0.738404
     13          6           0        0.000000   -1.260455    0.666665
     14          6           0        0.000000   -1.237471   -0.723204
     15          1           0        0.000000    2.498471    2.443647
     16          1           0        0.000000    4.635953    1.202889
     17          1           0        0.000000    4.614462   -1.265149
     18          1           0        0.000000    2.457150   -2.492459
     19          1           0        0.000000    0.004000   -2.510266
     20          1           0        0.000000   -2.477950   -2.487659
     21          1           0        0.000000   -4.604062   -1.279549
     22          1           0        0.000000   -4.637553    1.220489
     23          1           0        0.000000   -2.477671    2.443647
     24          1           0       -0.859585   -0.007200    2.145787
     25          1           0        0.859585   -0.007200    2.145787
 ---------------------------------------------------------------------
                    Distance matrix (angstroms):
                    1          2          3          4          5
     1  C    0.000000
     2  C    1.396501   0.000000
     3  C    2.400217   1.389107   0.000000
     4  C    2.769598   2.413513   1.393379   0.000000
     5  C    5.660583   6.493055   6.175206   4.926314   0.000000
     6  C    6.507030   7.510680   7.367732   6.196874   1.414719
     7  C    6.227180   7.403018   7.517858   6.518865   2.427167
     8  C    4.985310   6.237428   6.523998   5.692258   2.766756
     9  C    2.484809   3.778967   4.274693   3.781388   3.768961
    10  C    3.722398   4.235101   3.731113   2.452435   2.474069
    11  C    1.392581   2.433122   2.797201   2.419411   4.268040
    12  C    2.440268   2.833578   2.443661   1.403719   3.753195
    13  C    3.807181   4.957164   5.132343   4.269610   2.392331
    14  C    4.264057   5.126878   4.918533   3.770814   1.396526
    15  H    1.083726   2.141138   3.377293   3.853288   6.273960
    16  H    2.158625   1.080286   2.146781   3.393315   7.556392
    17  H    3.381489   2.141013   1.081023   2.148962   7.071812
    18  H    3.852577   3.395957   2.154106   1.083002   5.031899
    19  H    4.596185   4.872887   4.089797   2.700836   2.696629
    20  H    6.278239   6.934846   6.407701   5.064393   1.082344
    21  H    7.562712   8.526451   8.304008   7.075612   2.151798
    22  H    7.121975   8.352475   8.541907   7.578879   3.413998
    23  H    5.077699   6.424302   6.923696   6.271364   3.849246
    24  H    2.749121   4.078990   4.749096   4.417862   4.398545
    25  H    2.749121   4.078990   4.749096   4.417862   4.398545
                    6          7          8          9         10
     6  C    0.000000
     7  C    1.382759   0.000000
     8  C    2.383732   1.385784   0.000000
     9  C    4.273435   3.787203   2.503966   0.000000
    10  C    3.774238   4.277522   3.759774   2.882614   0.000000
    11  C    5.143197   4.969979   3.825637   1.477644   2.455989
    12  C    4.924227   5.141796   4.288629   2.516983   1.401533
    13  C    2.788496   2.445866   1.422650   1.485816   2.455005
    14  C    2.449238   2.837171   2.437802   2.503758   1.440355
    15  H    6.941734   6.451987   5.116615   2.687565   4.599086
    16  H    8.539131   8.358960   7.139955   4.642715   5.315386
    17  H    8.319811   8.543920   7.585739   5.355707   4.599388
    18  H    6.397759   6.929623   6.280409   4.648349   2.660826
    19  H    4.107281   4.889884   4.611584   3.963637   1.081168
    20  H    2.151458   3.392630   3.848567   4.655313   2.711111
    21  H    1.080966   2.150674   3.374789   5.354085   4.624484
    22  H    2.150026   1.079354   2.139905   4.643396   5.356768
    23  H    3.375421   2.153696   1.083095   2.668240   4.607302
    24  H    4.735024   4.072606   2.753242   1.103803   3.676952
    25  H    4.735024   4.072606   2.753242   1.103803   3.676952
                   11         12         13         14         15
    11  C    0.000000
    12  C    1.426109   0.000000
    13  C    2.524196   2.865982   0.000000
    14  C    2.871518   2.474989   1.390059   0.000000
    15  H    2.146846   3.422801   4.157787   4.897572   0.000000
    16  H    3.411459   3.913860   5.920740   6.181177   2.471499
    17  H    3.878222   3.417825   6.184380   5.876974   4.269963
    18  H    3.396520   2.136428   4.878591   4.096399   4.936279
    19  H    3.436890   2.158922   3.419318   2.175969   5.546498
    20  H    4.907242   4.106610   3.381132   2.156870   7.005894
    21  H    6.188639   5.866545   3.868780   3.412251   8.019237
    22  H    5.925232   6.192994   3.422209   3.916440   7.240094
    23  H    4.133001   4.891598   2.153899   3.401035   4.976142
    24  H    2.116757   3.256785   2.120692   3.237833   2.665707
    25  H    2.116757   3.256785   2.120692   3.237833   2.665707
                   16         17         18         19         20
    16  H    0.000000
    17  H    2.468132   0.000000
    18  H    4.289846   2.481992   0.000000
    19  H    5.936540   4.775634   2.453215   0.000000
    20  H    8.014222   7.197002   4.935102   2.482053   0.000000
    21  H    9.567673   9.218535   7.164626   4.769581   2.445380
    22  H    9.273523   9.580093   8.007546   5.955044   4.291182
    23  H    7.221020   8.003344   6.979799   5.540753   4.931306
    24  H    4.815269   5.808023   5.322146   4.734748   5.320932
    25  H    4.815269   5.808023   5.322146   4.734748   5.320932
                   21         22         23         24         25
    21  H    0.000000
    22  H    2.500262   0.000000
    23  H    4.287625   2.482178   0.000000
    24  H    5.796805   4.799503   2.632648   0.000000
    25  H    5.796805   4.799503   2.632648   1.719170   0.000000
 Stoichiometry    C14H11(1+)
 Framework group  CS[SG(C14H9),X(H2)]
 Deg. of freedom    46
 Full point group                 CS      NOp   2
 Largest Abelian subgroup         CS      NOp   2
 Largest concise Abelian subgroup CS      NOp   2
                         Standard orientation:                         
 ---------------------------------------------------------------------
 Center     Atomic      Atomic             Coordinates (Angstroms)
 Number     Number       Type             X           Y           Z
 ---------------------------------------------------------------------
      1          6           0       -2.363099   -1.559076    0.000000
      2          6           0       -2.319818   -2.954906    0.000000
      3          6           0       -1.084637   -3.590473    0.000000
      4          6           0        0.091084   -2.842687    0.000000
      5          6           0        2.390712    1.513949    0.000000
      6          6           0        2.349334    2.928063    0.000000
      7          6           0        1.136311    3.591837    0.000000
      8          6           0       -0.033060    2.848218    0.000000
      9          6           0       -1.284723    0.679535    0.000000
     10          6           0        1.254988   -0.684038    0.000000
     11          6           0       -1.198466   -0.795589    0.000000
     12          6           0        0.074217   -1.439069    0.000000
     13          6           0        0.000000    1.425951    0.000000
     14          6           0        1.217872    0.755838    0.000000
     15          1           0       -3.328202   -1.066088    0.000000
     16          1           0       -3.230718   -3.535664    0.000000
     17          1           0       -1.038972   -4.670531    0.000000
     18          1           0        1.054540   -3.337303    0.000000
     19          1           0        2.217185   -1.177091    0.000000
     20          1           0        3.357569    1.027475    0.000000
     21          1           0        3.283629    3.471737    0.000000
     22          1           0        1.089301    4.670167    0.000000
     23          1           0       -1.001742    3.332727    0.000000
     24          1           0       -1.893441    1.009621    0.859585
     25          1           0       -1.893441    1.009621   -0.859585
 ---------------------------------------------------------------------
 Rotational constants (GHZ):           2.1362065           0.4446221           0.3688232
 Standard basis: 6-311++G(d,p) (5D, 7F)
 There are   299 symmetry adapted cartesian basis functions of A'  symmetry.
 There are   100 symmetry adapted cartesian basis functions of A"  symmetry.
 There are   285 symmetry adapted basis functions of A'  symmetry.
 There are   100 symmetry adapted basis functions of A"  symmetry.
   385 basis functions,   603 primitive gaussians,   399 cartesian basis functions
    47 alpha electrons       47 beta electrons
       nuclear repulsion energy       781.2089116777 Hartrees.
 NAtoms=   25 NActive=   25 NUniq=   24 SFac= 1.09D+00 NAtFMM=   60 NAOKFM=F Big=F
 Integral buffers will be    131072 words long.
 Regular integral format.
 Two-electron integral symmetry is turned on.
 Nuclear repulsion after empirical dispersion term =      781.2079321867 Hartrees.
 One-electron integrals computed using PRISM.
 NBasis=   385 RedAO= T EigKep=  1.11D-06  NBF=   285   100
 NBsUse=   379 1.00D-06 EigRej=  8.38D-07 NBFU=   279   100
 ExpMin= 3.60D-02 ExpMax= 4.56D+03 ExpMxC= 6.82D+02 IAcc=3 IRadAn=         5 AccDes= 0.00D+00
 Harris functional with IExCor= 1009 and IRadAn=       5 diagonalized for initial guess.
 HarFok:  IExCor= 1009 AccDes= 0.00D+00 IRadAn=         5 IDoV= 1 UseB2=F ITyADJ=14
 ICtDFT=  3500011 ScaDFX=  1.000000  1.000000  1.000000  1.000000
 FoFCou: FMM=F IPFlag=           0 FMFlag=      100000 FMFlg1=           0
         NFxFlg=           0 DoJE=T BraDBF=F KetDBF=T FulRan=T
         wScrn=  0.000000 ICntrl=       500 IOpCl=  0 I1Cent=   200000004 NGrid=           0
         NMat0=    1 NMatS0=      1 NMatT0=    0 NMatD0=    1 NMtDS0=    0 NMtDT0=    0
 Petite list used in FoFCou.
 Initial guess orbital symmetries:
       Occupied  (A') (A') (A') (A') (A') (A') (A') (A') (A') (A')
                 (A') (A') (A') (A') (A') (A') (A') (A') (A') (A')
                 (A') (A') (A') (A') (A') (A') (A') (A') (A') (A')
                 (A') (A') (A") (A') (A') (A') (A') (A') (A') (A")
                 (A") (A') (A') (A") (A") (A") (A")
       Virtual   (A") (A") (A") (A") (A") (A') (A') (A') (A') (A")
                 (A") (A') (A') (A') (A") (A') (A') (A') (A') (A")
                 (A') (A") (A') (A') (A') (A") (A') (A") (A') (A')
                 (A') (A') (A') (A") (A') (A') (A") (A') (A') (A')
                 (A") (A') (A') (A") (A') (A') (A') (A') (A') (A")
                 (A') (A") (A') (A") (A') (A') (A') (A") (A") (A')
                 (A') (A') (A') (A') (A') (A') (A") (A') (A') (A")
                 (A') (A') (A') (A') (A') (A') (A') (A') (A') (A')
                 (A') (A') (A') (A') (A') (A') (A') (A') (A') (A')
                 (A') (A') (A') (A') (A') (A') (A') (A") (A') (A")
                 (A') (A') (A") (A") (A') (A") (A") (A') (A') (A")
                 (A") (A') (A') (A') (A") (A') (A') (A") (A") (A')
                 (A") (A") (A') (A') (A') (A") (A') (A') (A') (A")
                 (A') (A') (A') (A') (A') (A') (A") (A') (A') (A')
                 (A') (A') (A') (A') (A') (A') (A') (A') (A') (A")
                 (A") (A') (A") (A") (A') (A') (A') (A") (A") (A')
                 (A") (A') (A") (A") (A") (A') (A') (A') (A') (A')
                 (A') (A") (A") (A') (A') (A') (A') (A') (A') (A")
                 (A') (A') (A') (A') (A') (A") (A") (A') (A") (A")
                 (A') (A") (A') (A") (A') (A') (A') (A") (A') (A')
                 (A") (A") (A") (A') (A') (A") (A') (A") (A') (A')
                 (A") (A") (A') (A") (A') (A") (A') (A') (A') (A")
                 (A') (A') (A') (A') (A") (A') (A') (A') (A") (A")
                 (A') (A') (A') (A") (A') (A') (A") (A') (A") (A')
                 (A") (A') (A') (A') (A') (A") (A') (A') (A') (A")
                 (A') (A') (A') (A") (A") (A') (A') (A") (A') (A')
                 (A') (A") (A') (A") (A') (A') (A') (A") (A') (A")
                 (A') (A') (A') (A') (A") (A') (A") (A') (A") (A')
                 (A") (A') (A") (A") (A") (A') (A') (A') (A') (A')
                 (A') (A') (A') (A') (A') (A') (A') (A') (A') (A')
                 (A') (A') (A') (A') (A") (A') (A') (A') (A') (A')
                 (A') (A') (A') (A') (A') (A') (A') (A') (A') (A')
                 (A') (A') (A') (A') (A') (A') (A') (A') (A') (A')
                 (A') (A')
 The electronic state of the initial guess is 1-A'.
 Requested convergence on RMS density matrix=1.00D-08 within 128 cycles.
 Requested convergence on MAX density matrix=1.00D-06.
 Requested convergence on             energy=1.00D-06.
 No special actions if energy rises.
 SCF Done:  E(RM062X) =  -539.758798275     A.U. after   15 cycles
            NFock= 15  Conv=0.56D-08     -V/T= 2.0042
 DoSCS=F DFT=T ScalE2(SS,OS)=  1.000000  1.000000
 ExpMin= 3.60D-02 ExpMax= 4.56D+03 ExpMxC= 6.82D+02 IAcc=3 IRadAn=         5 AccDes= 0.00D+00
 HarFok:  IExCor=  205 AccDes= 0.00D+00 IRadAn=         5 IDoV=-2 UseB2=F ITyADJ=14
 ICtDFT= 12500011 ScaDFX=  1.000000  1.000000  1.000000  1.000000
 Range of M.O.s used for correlation:    15   379
 NBasis=   385 NAE=    47 NBE=    47 NFC=    14 NFV=     0
 NROrb=    365 NOA=    33 NOB=    33 NVA=   332 NVB=   332

 **** Warning!!: The largest alpha MO coefficient is  0.14062348D+03

 Orbital symmetries:
       Occupied  (A') (A') (A') (A') (A') (A') (A') (A') (A') (A')
                 (A') (A') (A') (A') (A') (A') (A') (A') (A') (A')
                 (A') (A') (A') (A') (A') (A') (A') (A') (A') (A')
                 (A') (A') (A") (A') (A') (A') (A') (A") (A") (A')
                 (A') (A') (A') (A") (A") (A") (A")
       Virtual   (A") (A") (A") (A") (A') (A') (A') (A') (A") (A')
                 (A') (A") (A') (A') (A") (A') (A") (A') (A') (A')
                 (A") (A") (A') (A') (A') (A") (A') (A") (A') (A')
                 (A") (A') (A") (A') (A') (A') (A') (A') (A") (A')
                 (A") (A') (A') (A") (A") (A') (A") (A') (A") (A')
                 (A') (A') (A') (A') (A') (A") (A') (A') (A') (A')
                 (A') (A") (A') (A') (A') (A") (A') (A') (A') (A')
                 (A') (A') (A') (A') (A') (A') (A') (A') (A') (A')
                 (A') (A') (A') (A') (A') (A') (A') (A') (A') (A')
                 (A') (A') (A') (A') (A") (A') (A") (A") (A') (A")
                 (A') (A') (A') (A') (A") (A") (A') (A") (A") (A')
                 (A') (A') (A") (A') (A') (A") (A') (A") (A') (A")
                 (A") (A') (A") (A') (A') (A') (A") (A') (A') (A')
                 (A') (A') (A') (A') (A') (A') (A') (A') (A') (A')
                 (A') (A') (A') (A") (A') (A') (A') (A') (A') (A')
                 (A') (A') (A") (A') (A") (A') (A") (A") (A') (A")
                 (A") (A') (A') (A") (A") (A") (A') (A") (A') (A')
                 (A') (A') (A') (A") (A") (A') (A') (A') (A') (A")
                 (A') (A') (A') (A") (A') (A") (A') (A') (A") (A")
                 (A") (A') (A') (A") (A') (A") (A') (A') (A') (A')
                 (A") (A") (A") (A') (A') (A") (A') (A") (A') (A')
                 (A') (A") (A') (A") (A") (A') (A") (A') (A') (A")
                 (A') (A') (A') (A') (A") (A') (A') (A') (A") (A")
                 (A') (A') (A') (A") (A') (A') (A') (A") (A") (A')
                 (A") (A') (A') (A") (A') (A') (A') (A') (A') (A')
                 (A") (A') (A') (A') (A') (A") (A") (A") (A') (A')
                 (A') (A') (A') (A') (A') (A') (A') (A") (A') (A')
                 (A') (A") (A') (A") (A") (A") (A') (A") (A') (A")
                 (A') (A") (A") (A') (A") (A") (A') (A') (A') (A')
                 (A') (A') (A') (A') (A') (A') (A') (A') (A') (A')
                 (A') (A') (A') (A") (A') (A') (A') (A') (A') (A')
                 (A') (A') (A') (A') (A') (A') (A') (A') (A') (A')
                 (A') (A') (A') (A') (A') (A') (A') (A') (A') (A')
                 (A') (A')
     4 initial guesses have been made.
 Convergence on wavefunction:    0.001000000000000
 Iteration     1 Dimension     4 NMult     0 NNew      4
 CISAX will form     4 AO SS matrices at one time.
 Iteration     2 Dimension     6 NMult     4 NNew      2
 Iteration     3 Dimension     8 NMult     6 NNew      2
 Iteration     4 Dimension    10 NMult     8 NNew      2
 Iteration     5 Dimension    12 NMult    10 NNew      2
 Iteration     6 Dimension    14 NMult    12 NNew      2
 ***********************************************************************
 Excited states from <AA,BB:AA,BB> singles matrix:
 ***********************************************************************
 
 Ground to excited state transition densities written to RWF  633
 Ground to excited state transition electric dipole moments (Au):
       state          X           Y           Z        Dip. S.      Osc.
         1        -0.5601      0.2616      0.0000      0.3822      0.0262
 Ground to excited state transition velocity dipole moments (Au):
       state          X           Y           Z        Dip. S.      Osc.
         1         0.0651     -0.0288     -0.0000      0.0051      0.0328
 Ground to excited state transition magnetic dipole moments (Au):
       state          X           Y           Z
         1         0.0000     -0.0000     -0.0289
 Ground to excited state transition velocity quadrupole moments (Au):
       state          XX          YY          ZZ          XY          XZ          YZ
         1         0.1133      0.2047     -0.0095      0.1216     -0.0000     -0.0000
 <0|del|b> * <b|rxdel|0> + <0|del|b> * <b|delr+rdel|0>
 Rotatory Strengths (R) in cgs (10**-40 erg-esu-cm/Gauss)
       state          XX          YY          ZZ    R(velocity)    E-M Angle
         1        -0.0000     -0.0000      0.0000      0.0000       90.00
 1/2[<0|r|b>*<b|rxdel|0> + (<0|rxdel|b>*<b|r|0>)*]
 Rotatory Strengths (R) in cgs (10**-40 erg-esu-cm/Gauss)
       state          XX          YY          ZZ     R(length)
         1         0.0000      0.0000      0.0000      0.0000
  1/2[<0|del|b>*<b|r|0> + (<0|r|b>*<b|del|0>)*] (Au)
       state          X           Y           Z        Dip. S.   Osc.(frdel)
         1        -0.0365     -0.0075     -0.0000      0.0440      0.0293

 Excitation energies and oscillator strengths:
 
 Excited State   1:      Singlet-A'     2.7981 eV  443.11 nm  f=0.0262  <S**2>=0.000
      47 -> 48         0.70391
 This state for optimization and/or second-order correction.
 Total Energy, E(TD-HF/TD-DFT) =  -539.655971488    
 Copying the excited state density for this state as the 1-particle RhoCI density.
 SavETr:  write IOETrn=   770 NScale= 10 NData=  16 NLR=1 NState=    1 LETran=      28.

 **********************************************************************

            Population analysis using the SCF Density.

 **********************************************************************

 Orbital symmetries:
       Occupied  (A') (A') (A') (A') (A') (A') (A') (A') (A') (A')
                 (A') (A') (A') (A') (A') (A') (A') (A') (A') (A')
                 (A') (A') (A') (A') (A') (A') (A') (A') (A') (A')
                 (A') (A') (A") (A') (A') (A') (A') (A") (A") (A')
                 (A') (A') (A') (A") (A") (A") (A")
       Virtual   (A") (A") (A") (A") (A') (A') (A') (A') (A") (A')
                 (A') (A") (A') (A') (A") (A') (A") (A') (A') (A')
                 (A") (A") (A') (A') (A') (A") (A') (A") (A') (A')
                 (A") (A') (A") (A') (A') (A') (A') (A') (A") (A')
                 (A") (A') (A') (A") (A") (A') (A") (A') (A") (A')
                 (A') (A') (A') (A') (A') (A") (A') (A') (A') (A')
                 (A') (A") (A') (A') (A') (A") (A') (A') (A') (A')
                 (A') (A') (A') (A') (A') (A') (A') (A') (A') (A')
                 (A') (A') (A') (A') (A') (A') (A') (A') (A') (A')
                 (A') (A') (A') (A') (A") (A') (A") (A") (A') (A")
                 (A') (A') (A') (A') (A") (A") (A') (A") (A") (A')
                 (A') (A') (A") (A') (A') (A") (A') (A") (A') (A")
                 (A") (A') (A") (A') (A') (A') (A") (A') (A') (A')
                 (A') (A') (A') (A') (A') (A') (A') (A') (A') (A')
                 (A') (A') (A') (A") (A') (A') (A') (A') (A') (A')
                 (A') (A') (A") (A') (A") (A') (A") (A") (A') (A")
                 (A") (A') (A') (A") (A") (A") (A') (A") (A') (A')
                 (A') (A') (A') (A") (A") (A') (A') (A') (A') (A")
                 (A') (A') (A') (A") (A') (A") (A') (A') (A") (A")
                 (A") (A') (A') (A") (A') (A") (A') (A') (A') (A')
                 (A") (A") (A") (A') (A') (A") (A') (A") (A') (A')
                 (A') (A") (A') (A") (A") (A') (A") (A') (A') (A")
                 (A') (A') (A') (A') (A") (A') (A') (A') (A") (A")
                 (A') (A') (A') (A") (A') (A') (A') (A") (A") (A')
                 (A") (A') (A') (A") (A') (A') (A') (A') (A') (A')
                 (A") (A') (A') (A') (A') (A") (A") (A") (A') (A')
                 (A') (A') (A') (A') (A') (A') (A') (A") (A') (A')
                 (A') (A") (A') (A") (A") (A") (A') (A") (A') (A")
                 (A') (A") (A") (A') (A") (A") (A') (A') (A') (A')
                 (A') (A') (A') (A') (A') (A') (A') (A') (A') (A')
                 (A') (A') (A') (A") (A') (A') (A') (A') (A') (A')
                 (A') (A') (A') (A') (A') (A') (A') (A') (A') (A')
                 (A') (A') (A') (A') (A') (A') (A') (A') (A') (A')
                 (A') (A')
 The electronic state is 1-A'.
 Alpha  occ. eigenvalues --  -10.77633 -10.73579 -10.72881 -10.72645 -10.72195
 Alpha  occ. eigenvalues --  -10.71739 -10.71592 -10.70999 -10.70976 -10.70437
 Alpha  occ. eigenvalues --  -10.70172 -10.69875 -10.69772 -10.69388  -1.16459
 Alpha  occ. eigenvalues --   -1.12463  -1.06959  -1.05770  -1.01291  -1.00193
 Alpha  occ. eigenvalues --   -0.95769  -0.91070  -0.86410  -0.85894  -0.83803
 Alpha  occ. eigenvalues --   -0.78395  -0.76045  -0.74412  -0.69732  -0.69187
 Alpha  occ. eigenvalues --   -0.68457  -0.68122  -0.68104  -0.64879  -0.64212
 Alpha  occ. eigenvalues --   -0.62982  -0.61843  -0.60107  -0.59584  -0.59175
 Alpha  occ. eigenvalues --   -0.56851  -0.55301  -0.54672  -0.52449  -0.46740
 Alpha  occ. eigenvalues --   -0.46073  -0.44376
 Alpha virt. eigenvalues --   -0.26098  -0.14665  -0.14086  -0.12765  -0.11182
 Alpha virt. eigenvalues --   -0.10089  -0.09239  -0.07979  -0.07956  -0.07477
 Alpha virt. eigenvalues --   -0.07205  -0.07141  -0.05643  -0.05580  -0.05338
 Alpha virt. eigenvalues --   -0.03832  -0.03650  -0.03276  -0.03133  -0.02163
 Alpha virt. eigenvalues --   -0.01364  -0.00933   0.00190   0.00585   0.00658
 Alpha virt. eigenvalues --    0.01058   0.01512   0.01922   0.02197   0.02292
 Alpha virt. eigenvalues --    0.02452   0.02674   0.02771   0.03287   0.03392
 Alpha virt. eigenvalues --    0.04237   0.04520   0.04710   0.05035   0.05367
 Alpha virt. eigenvalues --    0.06034   0.06294   0.06595   0.07046   0.07257
 Alpha virt. eigenvalues --    0.07891   0.08125   0.08358   0.08584   0.08920
 Alpha virt. eigenvalues --    0.09507   0.09589   0.09996   0.10834   0.11017
 Alpha virt. eigenvalues --    0.11121   0.12151   0.12243   0.12834   0.12974
 Alpha virt. eigenvalues --    0.13434   0.13527   0.14007   0.14431   0.16055
 Alpha virt. eigenvalues --    0.16362   0.16420   0.17344   0.17620   0.17833
 Alpha virt. eigenvalues --    0.18123   0.19050   0.19334   0.19628   0.19744
 Alpha virt. eigenvalues --    0.21553   0.21597   0.22707   0.23117   0.23562
 Alpha virt. eigenvalues --    0.23841   0.24563   0.25362   0.26918   0.27624
 Alpha virt. eigenvalues --    0.28814   0.29335   0.29889   0.31364   0.35680
 Alpha virt. eigenvalues --    0.36590   0.38175   0.39258   0.41153   0.41364
 Alpha virt. eigenvalues --    0.41964   0.42201   0.42987   0.43705   0.44317
 Alpha virt. eigenvalues --    0.44670   0.45195   0.46087   0.46268   0.47941
 Alpha virt. eigenvalues --    0.48497   0.48858   0.49007   0.50453   0.51126
 Alpha virt. eigenvalues --    0.51503   0.51785   0.52127   0.52902   0.54025
 Alpha virt. eigenvalues --    0.54089   0.54611   0.55687   0.55823   0.57479
 Alpha virt. eigenvalues --    0.58237   0.58836   0.61451   0.62166   0.62409
 Alpha virt. eigenvalues --    0.63212   0.63503   0.64934   0.65167   0.67261
 Alpha virt. eigenvalues --    0.70423   0.70575   0.71065   0.72409   0.72868
 Alpha virt. eigenvalues --    0.75771   0.76011   0.76265   0.76870   0.77136
 Alpha virt. eigenvalues --    0.77732   0.77994   0.78249   0.79889   0.80402
 Alpha virt. eigenvalues --    0.81207   0.81681   0.82198   0.83014   0.85185
 Alpha virt. eigenvalues --    0.87174   0.88196   0.88568   0.89136   0.90461
 Alpha virt. eigenvalues --    0.91088   0.91234   0.93222   0.94639   0.96470
 Alpha virt. eigenvalues --    0.96641   1.00397   1.01259   1.01610   1.02810
 Alpha virt. eigenvalues --    1.03173   1.03847   1.04778   1.05457   1.08798
 Alpha virt. eigenvalues --    1.19524   1.23242   1.24026   1.25267   1.28022
 Alpha virt. eigenvalues --    1.29719   1.31751   1.34317   1.35806   1.36005
 Alpha virt. eigenvalues --    1.39257   1.40212   1.40892   1.43002   1.43518
 Alpha virt. eigenvalues --    1.43528   1.44838   1.45728   1.46274   1.46694
 Alpha virt. eigenvalues --    1.47706   1.48024   1.51734   1.53630   1.55596
 Alpha virt. eigenvalues --    1.55778   1.56313   1.56671   1.57864   1.61459
 Alpha virt. eigenvalues --    1.63191   1.63325   1.63944   1.66097   1.68287
 Alpha virt. eigenvalues --    1.68309   1.68718   1.69715   1.74394   1.76015
 Alpha virt. eigenvalues --    1.77159   1.78165   1.79973   1.80108   1.80733
 Alpha virt. eigenvalues --    1.83066   1.83213   1.83648   1.83905   1.84193
 Alpha virt. eigenvalues --    1.84321   1.85785   1.86161   1.88237   1.91383
 Alpha virt. eigenvalues --    1.91985   1.94240   1.95236   1.97635   1.98230
 Alpha virt. eigenvalues --    1.99753   2.02434   2.04421   2.07286   2.11789
 Alpha virt. eigenvalues --    2.12105   2.14161   2.15232   2.19116   2.21255
 Alpha virt. eigenvalues --    2.22836   2.28579   2.30153   2.34655   2.34903
 Alpha virt. eigenvalues --    2.36224   2.38584   2.39676   2.42274   2.44677
 Alpha virt. eigenvalues --    2.46175   2.46520   2.49191   2.53071   2.53928
 Alpha virt. eigenvalues --    2.54234   2.56776   2.57884   2.58336   2.59560
 Alpha virt. eigenvalues --    2.59878   2.61533   2.62002   2.63518   2.63850
 Alpha virt. eigenvalues --    2.64819   2.65042   2.65115   2.65553   2.67799
 Alpha virt. eigenvalues --    2.68838   2.70935   2.71369   2.73369   2.74819
 Alpha virt. eigenvalues --    2.76298   2.78726   2.79716   2.82877   2.83091
 Alpha virt. eigenvalues --    2.84938   2.86288   2.92132   2.97009   2.99286
 Alpha virt. eigenvalues --    3.00287   3.04999   3.10853   3.11399   3.13248
 Alpha virt. eigenvalues --    3.20619   3.23421   3.26549   3.28567   3.30761
 Alpha virt. eigenvalues --    3.32625   3.34223   3.43386   3.46035   3.46553
 Alpha virt. eigenvalues --    3.48344   3.50274   3.56482   3.65879   3.66427
 Alpha virt. eigenvalues --    3.68166   3.94111   3.94382   3.95287   3.96238
 Alpha virt. eigenvalues --    4.03953   4.06819   4.07450   4.12496   4.35437
 Alpha virt. eigenvalues --    4.61187   4.69549   4.71651  23.45286  23.60295
 Alpha virt. eigenvalues --   23.81349  23.83857  23.86643  23.89189  23.92135
 Alpha virt. eigenvalues --   23.93824  23.97683  23.98830  24.00853  24.02063
 Alpha virt. eigenvalues --   24.10372  24.11368
          Condensed to atoms (all electrons):
               1          2          3          4          5          6
     1  C    8.602087   0.372157  -0.587895   1.999220  -0.002607  -0.092585
     2  C    0.372157   7.132527   0.412717  -1.080491  -0.025084  -0.013705
     3  C   -0.587895   0.412717   6.620234   0.731750  -0.115565   0.016892
     4  C    1.999220  -1.080491   0.731750  11.709965  -0.390298  -0.137916
     5  C   -0.002607  -0.025084  -0.115565  -0.390298  10.514677   0.821525
     6  C   -0.092585  -0.013705   0.016892  -0.137916   0.821525   6.575240
     7  C   -0.028039   0.000805  -0.014955  -0.003011  -1.116281   0.277763
     8  C    0.405247  -0.007495  -0.099568  -0.066449   2.027675  -0.482511
     9  C   -1.197179  -0.849194   0.291118  -0.115081  -0.287309   0.301470
    10  C   -1.279608   0.228314  -0.319003  -2.728686  -2.453406  -0.388968
    11  C    0.229137  -0.753005   0.876302  -0.740764  -1.284315  -0.119203
    12  C   -1.953258   1.154544  -1.331778  -1.558542  -0.384591  -0.268755
    13  C    0.151685  -0.205022  -0.224103  -1.686668   0.157028   1.137643
    14  C   -1.117525  -0.250942  -0.133070  -0.324489  -1.787921  -1.502674
    15  H    0.368227  -0.107605  -0.003561   0.029497   0.005680   0.001066
    16  H   -0.020270   0.379463  -0.018447   0.013517  -0.001505  -0.000323
    17  H   -0.022621  -0.018994   0.375481  -0.066990   0.000288   0.000390
    18  H    0.050448   0.002399  -0.084793   0.465047   0.006274  -0.005117
    19  H   -0.047477  -0.007304   0.049765  -0.084140  -0.057300   0.052577
    20  H    0.007133   0.001951  -0.005108   0.005866   0.453348  -0.084357
    21  H   -0.001351  -0.000400   0.000410   0.000318  -0.069449   0.374007
    22  H    0.000565   0.000346  -0.000334  -0.001541   0.013392  -0.015189
    23  H    0.006504  -0.002520   0.001134   0.005537   0.026166   0.001127
    24  H    0.032695   0.015019  -0.001794  -0.013634  -0.010828  -0.001285
    25  H    0.032695   0.015019  -0.001794  -0.013634  -0.010828  -0.001285
               7          8          9         10         11         12
     1  C   -0.028039   0.405247  -1.197179  -1.279608   0.229137  -1.953258
     2  C    0.000805  -0.007495  -0.849194   0.228314  -0.753005   1.154544
     3  C   -0.014955  -0.099568   0.291118  -0.319003   0.876302  -1.331778
     4  C   -0.003011  -0.066449  -0.115081  -2.728686  -0.740764  -1.558542
     5  C   -1.116281   2.027675  -0.287309  -2.453406  -1.284315  -0.384591
     6  C    0.277763  -0.482511   0.301470  -0.388968  -0.119203  -0.268755
     7  C    7.181548   0.211039  -0.782193   0.279620  -0.302712  -0.124212
     8  C    0.211039   8.640405  -1.102831  -1.307074   0.289353  -1.054177
     9  C   -0.782193  -1.102831   9.627520   0.254502   1.511932  -2.015869
    10  C    0.279620  -1.307074   0.254502   9.145712  -0.311275   2.367508
    11  C   -0.302712   0.289353   1.511932  -0.311275  14.656416  -3.632657
    12  C   -0.124212  -1.054177  -2.015869   2.367508  -3.632657  15.926794
    13  C   -1.057161   0.380422   1.662471  -0.566255   1.056354  -4.663870
    14  C    1.614727  -2.329884  -1.876963   2.529725  -4.898896   3.099657
    15  H   -0.002709   0.005054   0.092937  -0.010001  -0.032732  -0.019816
    16  H    0.000380   0.000862   0.003810  -0.009193   0.028239  -0.033343
    17  H   -0.000398  -0.001284  -0.005761   0.019961  -0.025326   0.088424
    18  H    0.002176   0.007212  -0.024417   0.011700  -0.009780  -0.053794
    19  H   -0.008164  -0.045876   0.075578   0.421731   0.076301  -0.078130
    20  H    0.003182   0.050776  -0.024972   0.012287  -0.011655  -0.011451
    21  H   -0.012773  -0.028311  -0.005759   0.020687  -0.006272   0.005117
    22  H    0.378733  -0.018492   0.002780  -0.009324   0.002555  -0.008518
    23  H   -0.106092   0.367594   0.090788  -0.009284   0.004217   0.004854
    24  H    0.013827   0.032919   0.356096   0.005318   0.019029  -0.060900
    25  H    0.013827   0.032919   0.356096   0.005318   0.019029  -0.060900
              13         14         15         16         17         18
     1  C    0.151685  -1.117525   0.368227  -0.020270  -0.022621   0.050448
     2  C   -0.205022  -0.250942  -0.107605   0.379463  -0.018994   0.002399
     3  C   -0.224103  -0.133070  -0.003561  -0.018447   0.375481  -0.084793
     4  C   -1.686668  -0.324489   0.029497   0.013517  -0.066990   0.465047
     5  C    0.157028  -1.787921   0.005680  -0.001505   0.000288   0.006274
     6  C    1.137643  -1.502674   0.001066  -0.000323   0.000390  -0.005117
     7  C   -1.057161   1.614727  -0.002709   0.000380  -0.000398   0.002176
     8  C    0.380422  -2.329884   0.005054   0.000862  -0.001284   0.007212
     9  C    1.662471  -1.876963   0.092937   0.003810  -0.005761  -0.024417
    10  C   -0.566255   2.529725  -0.010001  -0.009193   0.019961   0.011700
    11  C    1.056354  -4.898896  -0.032732   0.028239  -0.025326  -0.009780
    12  C   -4.663870   3.099657  -0.019816  -0.033343   0.088424  -0.053794
    13  C   14.278245  -3.834201  -0.000353   0.003474  -0.006341  -0.011883
    14  C   -3.834201  16.301438   0.007645  -0.009562   0.005430  -0.017724
    15  H   -0.000353   0.007645   0.435365  -0.008696   0.001423   0.000257
    16  H    0.003474  -0.009562  -0.008696   0.417063  -0.006533   0.001880
    17  H   -0.006341   0.005430   0.001423  -0.006533   0.420015  -0.009810
    18  H   -0.011883  -0.017724   0.000257   0.001880  -0.009810   0.452453
    19  H    0.080226  -0.052230   0.000315  -0.000528   0.001448  -0.006259
    20  H   -0.002610  -0.057745  -0.000110   0.000015  -0.000144   0.001255
    21  H   -0.029054   0.096879   0.000015  -0.000007   0.000010  -0.000143
    22  H    0.024546  -0.031910  -0.000127   0.000008  -0.000007   0.000015
    23  H   -0.029422  -0.030183   0.000572  -0.000128   0.000013  -0.000116
    24  H    0.008020  -0.058856  -0.000862   0.000630  -0.000143   0.000180
    25  H    0.008020  -0.058856  -0.000862   0.000630  -0.000143   0.000180
              19         20         21         22         23         24
     1  C   -0.047477   0.007133  -0.001351   0.000565   0.006504   0.032695
     2  C   -0.007304   0.001951  -0.000400   0.000346  -0.002520   0.015019
     3  C    0.049765  -0.005108   0.000410  -0.000334   0.001134  -0.001794
     4  C   -0.084140   0.005866   0.000318  -0.001541   0.005537  -0.013634
     5  C   -0.057300   0.453348  -0.069449   0.013392   0.026166  -0.010828
     6  C    0.052577  -0.084357   0.374007  -0.015189   0.001127  -0.001285
     7  C   -0.008164   0.003182  -0.012773   0.378733  -0.106092   0.013827
     8  C   -0.045876   0.050776  -0.028311  -0.018492   0.367594   0.032919
     9  C    0.075578  -0.024972  -0.005759   0.002780   0.090788   0.356096
    10  C    0.421731   0.012287   0.020687  -0.009324  -0.009284   0.005318
    11  C    0.076301  -0.011655  -0.006272   0.002555   0.004217   0.019029
    12  C   -0.078130  -0.011451   0.005117  -0.008518   0.004854  -0.060900
    13  C    0.080226  -0.002610  -0.029054   0.024546  -0.029422   0.008020
    14  C   -0.052230  -0.057745   0.096879  -0.031910  -0.030183  -0.058856
    15  H    0.000315  -0.000110   0.000015  -0.000127   0.000572  -0.000862
    16  H   -0.000528   0.000015  -0.000007   0.000008  -0.000128   0.000630
    17  H    0.001448  -0.000144   0.000010  -0.000007   0.000013  -0.000143
    18  H   -0.006259   0.001255  -0.000143   0.000015  -0.000116   0.000180
    19  H    0.442972  -0.006152   0.001387  -0.000548   0.000300   0.000596
    20  H   -0.006152   0.454943  -0.010734   0.001963   0.000086   0.000183
    21  H    0.001387  -0.010734   0.424659  -0.006681   0.001502  -0.000141
    22  H   -0.000548   0.001963  -0.006681   0.421808  -0.009356   0.000634
    23  H    0.000300   0.000086   0.001502  -0.009356   0.442986  -0.000949
    24  H    0.000596   0.000183  -0.000141   0.000634  -0.000949   0.493941
    25  H    0.000596   0.000183  -0.000141   0.000634  -0.000949  -0.079645
              25
     1  C    0.032695
     2  C    0.015019
     3  C   -0.001794
     4  C   -0.013634
     5  C   -0.010828
     6  C   -0.001285
     7  C    0.013827
     8  C    0.032919
     9  C    0.356096
    10  C    0.005318
    11  C    0.019029
    12  C   -0.060900
    13  C    0.008020
    14  C   -0.058856
    15  H   -0.000862
    16  H    0.000630
    17  H   -0.000143
    18  H    0.000180
    19  H    0.000596
    20  H    0.000183
    21  H   -0.000141
    22  H    0.000634
    23  H   -0.000949
    24  H   -0.079645
    25  H    0.493941
 Mulliken charges:
               1
     1  C    0.092617
     2  C   -0.393501
     3  C   -0.434035
     4  C    0.051614
     5  C   -0.028765
     6  C   -0.445826
     7  C   -0.418925
     8  C    0.092473
     9  C   -0.339569
    10  C    0.089691
    11  C   -0.640273
    12  C    0.667663
    13  C   -0.631190
    14  C    0.718128
    15  H    0.239382
    16  H    0.258564
    17  H    0.251612
    18  H    0.222358
    19  H    0.190319
    20  H    0.221866
    21  H    0.246226
    22  H    0.254049
    23  H    0.235620
    24  H    0.249952
    25  H    0.249952
 Sum of Mulliken charges =   1.00000
 Mulliken charges with hydrogens summed into heavy atoms:
               1
     1  C    0.331999
     2  C   -0.134937
     3  C   -0.182424
     4  C    0.273972
     5  C    0.193101
     6  C   -0.199600
     7  C   -0.164876
     8  C    0.328093
     9  C    0.160335
    10  C    0.280009
    11  C   -0.640273
    12  C    0.667663
    13  C   -0.631190
    14  C    0.718128
 Electronic spatial extent (au):  <R**2>=           2855.9197
 Charge=              1.0000 electrons
 Dipole moment (field-independent basis, Debye):
    X=             -0.1208    Y=             -0.6227    Z=             -0.0000  Tot=              0.6343
 Quadrupole moment (field-independent basis, Debye-Ang):
   XX=            -50.6634   YY=            -36.6869   ZZ=            -84.1378
   XY=             10.4786   XZ=              0.0000   YZ=             -0.0000
 Traceless Quadrupole moment (field-independent basis, Debye-Ang):
   XX=              6.4993   YY=             20.4758   ZZ=            -26.9751
   XY=             10.4786   XZ=              0.0000   YZ=             -0.0000
 Octapole moment (field-independent basis, Debye-Ang**2):
  XXX=             -1.2205  YYY=             -1.1833  ZZZ=             -0.0000  XYY=             -3.1280
  XXY=             -7.0639  XXZ=             -0.0000  XZZ=             -3.0667  YZZ=              0.8101
  YYZ=             -0.0000  XYZ=              0.0000
 Hexadecapole moment (field-independent basis, Debye-Ang**3):
 XXXX=           -988.3993 YYYY=          -1853.3744 ZZZZ=            -99.3191 XXXY=           -346.3177
 XXXZ=              0.0000 YYYX=           -274.1651 YYYZ=             -0.0000 ZZZX=              0.0000
 ZZZY=             -0.0000 XXYY=           -452.4763 XXZZ=           -242.4292 YYZZ=           -494.0042
 XXYZ=             -0.0000 YYXZ=              0.0000 ZZXY=           -183.5382
 N-N= 7.812079321867D+02 E-N=-2.798762867176D+03  KE= 5.375123601256D+02
 Symmetry A'   KE= 5.228629080713D+02
 Symmetry A"   KE= 1.464945205435D+01
 Unable to Open any file for archive entry.
 1\1\GINC-GADI-CPU-CLX-2072\SP\RM062X TD-FC\6-311++G(d,p)\C14H11(1+)\TS
 1578\28-Jul-2022\0\\#n M062X/6-311++G(d,p) TD(NStates=1) EmpiricalDisp
 ersion=GD3 SP\\SP_4\\1,1\C,0,0.,2.483055,1.360031\C,0,0.,3.696708,0.66
 9189\C,0,0.,3.681061,-0.71983\C,0,0.,2.470356,-1.409538\C,0,0.,-2.4559
 56,-1.405538\C,0,0.,-3.686661,-0.70783\C,0,0.,-3.706308,0.674789\C,0,0
 .,-2.502255,1.360831\C,0,0.,0.,1.453369\C,0,0.,0.018,-1.429189\C,0,0.,
 1.263655,0.687465\C,0,0.,1.237471,-0.738404\C,0,0.,-1.260455,0.666665\
 C,0,0.,-1.237471,-0.723204\H,0,0.,2.498471,2.443647\H,0,0.,4.635953,1.
 202889\H,0,0.,4.614462,-1.265149\H,0,0.,2.45715,-2.492459\H,0,0.,0.004
 ,-2.510266\H,0,0.,-2.47795,-2.487659\H,0,0.,-4.604062,-1.279549\H,0,0.
 ,-4.637553,1.220489\H,0,0.,-2.477671,2.443647\H,0,-0.859585,-0.0072,2.
 145787\H,0,0.859585,-0.0072,2.145787\\Version=ES64L-G16RevC.01\State=1
 -A'\HF=-539.7587983\RMSD=5.649e-09\PG=CS [SG(C14H9),X(H2)]\\@
 The archive entry for this job was punched.


 THE REASON MAN'S BEST FRIEND IS A DOG IS BECAUSE
 HE WAGS HIS TAIL INSTEAD OF HIS TONGUE.
 Job cpu time:       0 days  0 hours 52 minutes 41.1 seconds.
 Elapsed time:       0 days  0 hours  1 minutes  6.1 seconds.
 File lengths (MBytes):  RWF=    460 Int=      0 D2E=      0 Chk=     15 Scr=      1
 Normal termination of Gaussian 16 at Thu Jul 28 14:20:54 2022.
