 Entering Gaussian System, Link 0=g16
 Initial command:
 /apps/gaussian/g16c01/g16/l1.exe "/jobfs/53005151.gadi-pbs/Gau-4156235.inp" -scrdir="/jobfs/53005151.gadi-pbs/"
 Entering Link 1 = /apps/gaussian/g16c01/g16/l1.exe PID=   4156236.
  
 Copyright (c) 1988-2019, Gaussian, Inc.  All Rights Reserved.
  
 This is part of the Gaussian(R) 16 program.  It is based on
 the Gaussian(R) 09 system (copyright 2009, Gaussian, Inc.),
 the Gaussian(R) 03 system (copyright 2003, Gaussian, Inc.),
 the Gaussian(R) 98 system (copyright 1998, Gaussian, Inc.),
 the Gaussian(R) 94 system (copyright 1995, Gaussian, Inc.),
 the Gaussian 92(TM) system (copyright 1992, Gaussian, Inc.),
 the Gaussian 90(TM) system (copyright 1990, Gaussian, Inc.),
 the Gaussian 88(TM) system (copyright 1988, Gaussian, Inc.),
 the Gaussian 86(TM) system (copyright 1986, Carnegie Mellon
 University), and the Gaussian 82(TM) system (copyright 1983,
 Carnegie Mellon University). Gaussian is a federally registered
 trademark of Gaussian, Inc.
  
 This software contains proprietary and confidential information,
 including trade secrets, belonging to Gaussian, Inc.
  
 This software is provided under written license and may be
 used, copied, transmitted, or stored only in accord with that
 written license.
  
 The following legend is applicable only to US Government
 contracts under FAR:
  
                    RESTRICTED RIGHTS LEGEND
  
 Use, reproduction and disclosure by the US Government is
 subject to restrictions as set forth in subparagraphs (a)
 and (c) of the Commercial Computer Software - Restricted
 Rights clause in FAR 52.227-19.
  
 Gaussian, Inc.
 340 Quinnipiac St., Bldg. 40, Wallingford CT 06492
  
  
 ---------------------------------------------------------------
 Warning -- This program may not be used in any manner that
 competes with the business of Gaussian, Inc. or will provide
 assistance to any competitor of Gaussian, Inc.  The licensee
 of this program is prohibited from giving any competitor of
 Gaussian, Inc. access to this program.  By using this program,
 the user acknowledges that Gaussian, Inc. is engaged in the
 business of creating and licensing software in the field of
 computational chemistry and represents and warrants to the
 licensee that it is not a competitor of Gaussian, Inc. and that
 it will not use this program in any manner prohibited above.
 ---------------------------------------------------------------
  

 Cite this work as:
 Gaussian 16, Revision C.01,
 M. J. Frisch, G. W. Trucks, H. B. Schlegel, G. E. Scuseria, 
 M. A. Robb, J. R. Cheeseman, G. Scalmani, V. Barone, 
 G. A. Petersson, H. Nakatsuji, X. Li, M. Caricato, A. V. Marenich, 
 J. Bloino, B. G. Janesko, R. Gomperts, B. Mennucci, H. P. Hratchian, 
 J. V. Ortiz, A. F. Izmaylov, J. L. Sonnenberg, D. Williams-Young, 
 F. Ding, F. Lipparini, F. Egidi, J. Goings, B. Peng, A. Petrone, 
 T. Henderson, D. Ranasinghe, V. G. Zakrzewski, J. Gao, N. Rega, 
 G. Zheng, W. Liang, M. Hada, M. Ehara, K. Toyota, R. Fukuda, 
 J. Hasegawa, M. Ishida, T. Nakajima, Y. Honda, O. Kitao, H. Nakai, 
 T. Vreven, K. Throssell, J. A. Montgomery, Jr., J. E. Peralta, 
 F. Ogliaro, M. J. Bearpark, J. J. Heyd, E. N. Brothers, K. N. Kudin, 
 V. N. Staroverov, T. A. Keith, R. Kobayashi, J. Normand, 
 K. Raghavachari, A. P. Rendell, J. C. Burant, S. S. Iyengar, 
 J. Tomasi, M. Cossi, J. M. Millam, M. Klene, C. Adamo, R. Cammi, 
 J. W. Ochterski, R. L. Martin, K. Morokuma, O. Farkas, 
 J. B. Foresman, and D. J. Fox, Gaussian, Inc., Wallingford CT, 2019.
 
 ******************************************
 Gaussian 16:  ES64L-G16RevC.01  3-Jul-2019
                28-Jul-2022 
 ******************************************
 %NProcShared=48
 Will use up to   48 processors via shared memory.
 %mem = 190GB
 ---------------------------------------------------------------
 #n M062X/6-311++G(d,p) TD(NStates=1) EmpiricalDispersion=GD3 SP
 ---------------------------------------------------------------
 1/38=1,172=1/1;
 2/12=2,17=6,18=5,40=1/2;
 3/5=4,6=6,7=1111,11=9,25=1,30=1,74=-55,124=31/1,2,3,8;
 4//1;
 5/5=2,38=5/2;
 8/6=1,10=2,108=1/1;
 9/41=1,42=1,70=2/14;
 6/7=2,8=2,9=2,10=2/1;
 99/5=1,9=1/99;
 ------
 SP_-10
 ------
 Symbolic Z-matrix:
 Charge =  1 Multiplicity = 1
 C                     0.        2.51186   1.36083 
 C                     0.        3.71711   0.67959 
 C                     0.        3.69206  -0.69823 
 C                     0.        2.44396  -1.40074 
 C                     0.       -2.48236  -1.41434 
 C                     0.       -3.67566  -0.72943 
 C                     0.       -3.68591   0.66439 
 C                     0.       -2.47346   1.36003 
 C                     0.        0.0048    1.45337 
 C                     0.       -0.0354   -1.42919 
 C                     0.        1.25506   0.66007 
 C                     0.        1.23207  -0.7226 
 C                     0.       -1.26906   0.69407 
 C                     0.       -1.24287  -0.739 
 H                     0.        2.48067   2.44365 
 H                     0.        4.64835   1.22469 
 H                     0.        4.60466  -1.27835 
 H                     0.        2.47255  -2.48286 
 H                     0.       -0.019    -2.51027 
 H                     0.       -2.46255  -2.49726 
 H                     0.       -4.61386  -1.26635 
 H                     0.       -4.62515   1.19869 
 H                     0.       -2.49547   2.44365 
 H                    -0.85959   0.0336    2.14579 
 H                     0.85959   0.0336    2.14579 
 
                          Input orientation:                          
 ---------------------------------------------------------------------
 Center     Atomic      Atomic             Coordinates (Angstroms)
 Number     Number       Type             X           Y           Z
 ---------------------------------------------------------------------
      1          6           0        0.000000    2.511855    1.360831
      2          6           0        0.000000    3.717108    0.679589
      3          6           0        0.000000    3.692061   -0.698230
      4          6           0        0.000000    2.443956   -1.400738
      5          6           0        0.000000   -2.482356   -1.414338
      6          6           0        0.000000   -3.675661   -0.729430
      7          6           0        0.000000   -3.685908    0.664389
      8          6           0        0.000000   -2.473455    1.360031
      9          6           0        0.000000    0.004800    1.453369
     10          6           0        0.000000   -0.035400   -1.429189
     11          6           0        0.000000    1.255055    0.660065
     12          6           0        0.000000    1.232071   -0.722604
     13          6           0        0.000000   -1.269055    0.694065
     14          6           0        0.000000   -1.242871   -0.739004
     15          1           0        0.000000    2.480671    2.443647
     16          1           0        0.000000    4.648353    1.224689
     17          1           0        0.000000    4.604662   -1.278349
     18          1           0        0.000000    2.472550   -2.482859
     19          1           0        0.000000   -0.019000   -2.510266
     20          1           0        0.000000   -2.462550   -2.497259
     21          1           0        0.000000   -4.613862   -1.266349
     22          1           0        0.000000   -4.625153    1.198689
     23          1           0        0.000000   -2.495471    2.443647
     24          1           0       -0.859585    0.033600    2.145787
     25          1           0        0.859585    0.033600    2.145787
 ---------------------------------------------------------------------
                    Distance matrix (angstroms):
                    1          2          3          4          5
     1  C    0.000000
     2  C    1.384459   0.000000
     3  C    2.373314   1.378047   0.000000
     4  C    2.762404   2.438991   1.432230   0.000000
     5  C    5.713467   6.543538   6.215805   4.926331   0.000000
     6  C    6.531045   7.525847   7.367788   6.156327   1.375891
     7  C    6.236770   7.403032   7.502743   6.468383   2.402008
     8  C    4.985310   6.227846   6.500002   5.639395   2.774383
     9  C    2.508762   3.792093   4.269107   3.754385   3.796010
    10  C    3.777925   4.304447   3.798456   2.479519   2.447001
    11  C    1.438965   2.462130   2.789976   2.379158   4.274505
    12  C    2.445107   2.853341   2.460111   1.388716   3.778288
    13  C    3.839252   4.986184   5.152782   4.263174   2.432584
    14  C    4.302008   5.158856   4.935100   3.745742   1.411524
    15  H    1.083265   2.154223   3.367322   3.844560   6.286150
    16  H    2.140831   1.079051   2.147583   3.428153   7.603386
    17  H    3.368251   2.149715   1.081378   2.164169   7.088323
    18  H    3.843891   3.398529   2.161506   1.082499   5.068810
    19  H    4.624999   4.912604   4.129824   2.701334   2.696142
    20  H    6.295202   6.948420   6.412156   5.027540   1.083102
    21  H    7.594598   8.555217   8.325330   7.059097   2.136637
    22  H    7.138850   8.358396   8.530788   7.531887   3.379273
    23  H    5.123066   6.458176   6.939520   6.259172   3.858007
    24  H    2.738027   4.056705   4.712924   4.373390   4.443356
    25  H    2.738027   4.056705   4.712924   4.373390   4.443356
                    6          7          8          9         10
     6  C    0.000000
     7  C    1.393857   0.000000
     8  C    2.410632   1.397841   0.000000
     9  C    4.279066   3.774098   2.480012   0.000000
    10  C    3.706907   4.208239   3.704573   2.882838   0.000000
    11  C    5.122759   4.940965   3.793645   1.480699   2.455658
    12  C    4.907737   5.109821   4.250681   2.498210   1.451119
    13  C    2.796085   2.417035   1.376259   1.482987   2.455629
    14  C    2.432809   2.817435   2.433164   2.522535   1.390806
    15  H    6.925954   6.418135   5.071251   2.666569   4.618384
    16  H    8.550309   8.353074   7.123094   4.649180   5.383364
    17  H    8.298498   8.515150   7.553859   5.349861   4.642513
    18  H    6.393357   6.916052   6.263447   4.645824   2.720300
    19  H    4.067253   4.850222   4.582963   3.963706   1.081201
    20  H    2.144028   3.390077   3.857305   4.657819   2.651760
    21  H    1.080973   2.142160   3.388099   5.359935   4.581357
    22  H    2.149227   1.080582   2.157739   4.636952   5.288816
    23  H    3.385449   2.140771   1.083840   2.689239   4.588116
    24  H    4.771203   4.094895   2.764349   1.104155   3.677513
    25  H    4.771203   4.094895   2.764349   1.104155   3.677513
                   11         12         13         14         15
    11  C    0.000000
    12  C    1.382860   0.000000
    13  C    2.524339   2.874471   0.000000
    14  C    2.863045   2.474996   1.433308   0.000000
    15  H    2.164093   3.403549   4.137811   4.898370   0.000000
    16  H    3.439952   3.932294   5.941151   6.209880   2.486906
    17  H    3.870054   3.418073   6.196045   5.872353   4.285393
    18  H    3.370499   2.153436   4.908406   4.104313   4.926513
    19  H    3.416755   2.181952   3.439531   2.152958   5.548839
    20  H    4.877426   4.098735   3.407195   2.139878   6.989133
    21  H    6.176994   5.871166   3.876978   3.411990   8.006027
    22  H    5.904825   6.164287   3.393824   3.898010   7.214060
    23  H    4.153024   4.890779   2.136617   3.420274   4.976142
    24  H    2.106706   3.225351   2.131500   3.269600   2.610702
    25  H    2.106706   3.225351   2.131500   3.269600   2.610702
                   16         17         18         19         20
    16  H    0.000000
    17  H    2.503419   0.000000
    18  H    4.298841   2.448825   0.000000
    19  H    5.977798   4.784963   2.491701   0.000000
    20  H    8.026072   7.171557   4.935121   2.443585   0.000000
    21  H    9.591345   9.218532   7.190072   4.760261   2.478565
    22  H    9.273542   9.556422   7.995698   5.913797   4.282159
    23  H    7.247074   8.016554   6.996549   5.538426   4.941016
    24  H    4.783644   5.775656   5.302049   4.735027   5.341117
    25  H    4.783644   5.775656   5.302049   4.735027   5.341117
                   21         22         23         24         25
    21  H    0.000000
    22  H    2.465064   0.000000
    23  H    4.272195   2.466874   0.000000
    24  H    5.829276   4.831134   2.687714   0.000000
    25  H    5.829276   4.831134   2.687714   1.719170   0.000000
 Stoichiometry    C14H11(1+)
 Framework group  CS[SG(C14H9),X(H2)]
 Deg. of freedom    46
 Full point group                 CS      NOp   2
 Largest Abelian subgroup         CS      NOp   2
 Largest concise Abelian subgroup CS      NOp   2
                         Standard orientation:                         
 ---------------------------------------------------------------------
 Center     Atomic      Atomic             Coordinates (Angstroms)
 Number     Number       Type             X           Y           Z
 ---------------------------------------------------------------------
      1          6           0        0.035158    2.856480    0.000000
      2          6           0       -1.128826    3.606058    0.000000
      3          6           0       -2.336596    2.942505    0.000000
      4          6           0       -2.377344    1.510854    0.000000
      5          6           0       -0.096142   -2.855478    0.000000
      6          6           0        1.065525   -3.592775    0.000000
      7          6           0        2.303885   -2.953010    0.000000
      8          6           0        2.355152   -1.556109    0.000000
      9          6           0        1.284112    0.680704    0.000000
     10          6           0       -1.248364   -0.696728    0.000000
     11          6           0        0.000000    1.417945    0.000000
     12          6           0       -1.213023    0.753960    0.000000
     13          6           0        1.205085   -0.800175    0.000000
     14          6           0       -0.075432   -1.444106    0.000000
     15          1           0        1.008014    3.332941    0.000000
     16          1           0       -1.079891    4.683999    0.000000
     17          1           0       -3.274850    3.480146    0.000000
     18          1           0       -3.348379    1.032425    0.000000
     19          1           0       -2.212798   -1.185464    0.000000
     20          1           0       -1.063794   -3.342057    0.000000
     21          1           0        1.027068   -4.673064    0.000000
     22          1           0        3.213990   -3.535561    0.000000
     23          1           0        3.324448   -1.071162    0.000000
     24          1           0        1.883526    1.028520    0.859585
     25          1           0        1.883526    1.028520   -0.859585
 ---------------------------------------------------------------------
 Rotational constants (GHZ):           2.1362766           0.4446000           0.3688101
 Standard basis: 6-311++G(d,p) (5D, 7F)
 There are   299 symmetry adapted cartesian basis functions of A'  symmetry.
 There are   100 symmetry adapted cartesian basis functions of A"  symmetry.
 There are   285 symmetry adapted basis functions of A'  symmetry.
 There are   100 symmetry adapted basis functions of A"  symmetry.
   385 basis functions,   603 primitive gaussians,   399 cartesian basis functions
    47 alpha electrons       47 beta electrons
       nuclear repulsion energy       781.2387884399 Hartrees.
 NAtoms=   25 NActive=   25 NUniq=   24 SFac= 1.09D+00 NAtFMM=   60 NAOKFM=F Big=F
 Integral buffers will be    131072 words long.
 Regular integral format.
 Two-electron integral symmetry is turned on.
 Nuclear repulsion after empirical dispersion term =      781.2378090438 Hartrees.
 One-electron integrals computed using PRISM.
 NBasis=   385 RedAO= T EigKep=  1.10D-06  NBF=   285   100
 NBsUse=   379 1.00D-06 EigRej=  8.38D-07 NBFU=   279   100
 ExpMin= 3.60D-02 ExpMax= 4.56D+03 ExpMxC= 6.82D+02 IAcc=3 IRadAn=         5 AccDes= 0.00D+00
 Harris functional with IExCor= 1009 and IRadAn=       5 diagonalized for initial guess.
 HarFok:  IExCor= 1009 AccDes= 0.00D+00 IRadAn=         5 IDoV= 1 UseB2=F ITyADJ=14
 ICtDFT=  3500011 ScaDFX=  1.000000  1.000000  1.000000  1.000000
 FoFCou: FMM=F IPFlag=           0 FMFlag=      100000 FMFlg1=           0
         NFxFlg=           0 DoJE=T BraDBF=F KetDBF=T FulRan=T
         wScrn=  0.000000 ICntrl=       500 IOpCl=  0 I1Cent=   200000004 NGrid=           0
         NMat0=    1 NMatS0=      1 NMatT0=    0 NMatD0=    1 NMtDS0=    0 NMtDT0=    0
 Petite list used in FoFCou.
 Initial guess orbital symmetries:
       Occupied  (A') (A') (A') (A') (A') (A') (A') (A') (A') (A')
                 (A') (A') (A') (A') (A') (A') (A') (A') (A') (A')
                 (A') (A') (A') (A') (A') (A') (A') (A') (A') (A')
                 (A') (A') (A") (A') (A') (A') (A') (A') (A") (A')
                 (A") (A') (A') (A") (A") (A") (A")
       Virtual   (A") (A") (A") (A") (A") (A') (A') (A') (A') (A")
                 (A") (A') (A') (A') (A") (A') (A') (A') (A') (A")
                 (A') (A") (A') (A') (A') (A") (A') (A") (A') (A')
                 (A') (A') (A') (A') (A") (A') (A") (A') (A') (A')
                 (A") (A') (A') (A") (A') (A') (A') (A') (A") (A')
                 (A') (A') (A") (A") (A') (A') (A') (A") (A") (A')
                 (A') (A') (A') (A') (A') (A') (A") (A') (A') (A")
                 (A') (A') (A') (A') (A') (A') (A') (A') (A') (A')
                 (A') (A') (A') (A') (A') (A') (A') (A') (A') (A')
                 (A') (A') (A') (A') (A') (A') (A') (A") (A') (A")
                 (A') (A') (A") (A") (A') (A") (A') (A") (A") (A')
                 (A") (A') (A') (A') (A") (A') (A') (A") (A") (A')
                 (A") (A") (A') (A') (A') (A") (A') (A') (A') (A")
                 (A') (A') (A') (A') (A') (A') (A") (A') (A') (A')
                 (A') (A') (A') (A') (A') (A') (A') (A') (A') (A")
                 (A") (A') (A") (A") (A') (A') (A') (A") (A") (A')
                 (A") (A') (A") (A") (A") (A') (A') (A') (A') (A')
                 (A') (A") (A') (A") (A') (A') (A') (A') (A') (A")
                 (A') (A') (A') (A') (A") (A') (A") (A') (A") (A")
                 (A') (A") (A') (A") (A') (A') (A') (A") (A') (A')
                 (A") (A") (A") (A') (A') (A") (A') (A") (A') (A')
                 (A") (A") (A') (A") (A') (A") (A') (A') (A') (A")
                 (A') (A') (A') (A') (A") (A') (A') (A') (A") (A")
                 (A') (A') (A') (A") (A') (A') (A") (A') (A") (A')
                 (A") (A') (A') (A') (A') (A") (A') (A') (A') (A")
                 (A') (A') (A') (A") (A") (A') (A') (A") (A') (A')
                 (A') (A") (A') (A") (A') (A') (A') (A") (A') (A")
                 (A') (A') (A') (A') (A") (A') (A") (A') (A") (A')
                 (A") (A') (A") (A") (A") (A') (A') (A') (A') (A')
                 (A') (A') (A') (A') (A') (A') (A') (A') (A') (A')
                 (A') (A') (A') (A') (A") (A') (A') (A') (A') (A')
                 (A') (A') (A') (A') (A') (A') (A') (A') (A') (A')
                 (A') (A') (A') (A') (A') (A') (A') (A') (A') (A')
                 (A') (A')
 The electronic state of the initial guess is 1-A'.
 Requested convergence on RMS density matrix=1.00D-08 within 128 cycles.
 Requested convergence on MAX density matrix=1.00D-06.
 Requested convergence on             energy=1.00D-06.
 No special actions if energy rises.
 SCF Done:  E(RM062X) =  -539.755576397     A.U. after   15 cycles
            NFock= 15  Conv=0.81D-08     -V/T= 2.0041
 DoSCS=F DFT=T ScalE2(SS,OS)=  1.000000  1.000000
 ExpMin= 3.60D-02 ExpMax= 4.56D+03 ExpMxC= 6.82D+02 IAcc=3 IRadAn=         5 AccDes= 0.00D+00
 HarFok:  IExCor=  205 AccDes= 0.00D+00 IRadAn=         5 IDoV=-2 UseB2=F ITyADJ=14
 ICtDFT= 12500011 ScaDFX=  1.000000  1.000000  1.000000  1.000000
 Range of M.O.s used for correlation:    15   379
 NBasis=   385 NAE=    47 NBE=    47 NFC=    14 NFV=     0
 NROrb=    365 NOA=    33 NOB=    33 NVA=   332 NVB=   332

 **** Warning!!: The largest alpha MO coefficient is  0.14299286D+03

 Orbital symmetries:
       Occupied  (A') (A') (A') (A') (A') (A') (A') (A') (A') (A')
                 (A') (A') (A') (A') (A') (A') (A') (A') (A') (A')
                 (A') (A') (A') (A') (A') (A') (A') (A') (A') (A')
                 (A') (A") (A') (A') (A') (A') (A') (A") (A") (A')
                 (A') (A') (A') (A") (A") (A") (A")
       Virtual   (A") (A") (A") (A") (A') (A') (A') (A') (A") (A')
                 (A') (A") (A') (A') (A") (A') (A") (A') (A') (A')
                 (A") (A") (A') (A') (A') (A") (A') (A") (A') (A')
                 (A") (A') (A") (A') (A') (A') (A') (A') (A") (A')
                 (A") (A') (A') (A") (A") (A') (A") (A') (A") (A')
                 (A') (A') (A') (A') (A') (A") (A') (A') (A') (A')
                 (A') (A") (A') (A') (A') (A") (A') (A') (A') (A')
                 (A') (A') (A') (A') (A') (A') (A') (A') (A') (A')
                 (A') (A') (A') (A') (A') (A') (A') (A') (A') (A')
                 (A') (A') (A') (A') (A") (A') (A") (A") (A') (A")
                 (A') (A') (A') (A') (A") (A") (A') (A") (A") (A')
                 (A') (A') (A") (A') (A") (A') (A') (A") (A') (A")
                 (A") (A') (A") (A') (A') (A') (A") (A') (A') (A')
                 (A') (A') (A') (A') (A') (A') (A') (A') (A') (A')
                 (A') (A') (A') (A") (A') (A') (A') (A') (A') (A')
                 (A') (A') (A") (A') (A") (A') (A") (A") (A') (A")
                 (A") (A') (A') (A") (A") (A") (A') (A") (A') (A')
                 (A') (A') (A') (A") (A") (A') (A') (A') (A') (A")
                 (A') (A') (A') (A") (A") (A') (A') (A") (A') (A")
                 (A") (A') (A') (A") (A') (A") (A') (A') (A') (A')
                 (A") (A") (A") (A') (A") (A') (A') (A") (A') (A')
                 (A') (A") (A') (A") (A") (A') (A") (A') (A') (A")
                 (A') (A') (A') (A') (A") (A') (A') (A') (A") (A")
                 (A') (A') (A') (A") (A') (A') (A') (A") (A") (A')
                 (A") (A') (A') (A") (A') (A') (A') (A') (A') (A')
                 (A") (A') (A') (A') (A') (A") (A") (A") (A') (A')
                 (A') (A') (A') (A') (A') (A') (A') (A") (A') (A')
                 (A') (A") (A') (A") (A") (A") (A') (A") (A') (A")
                 (A') (A") (A") (A') (A") (A") (A') (A') (A') (A')
                 (A') (A') (A') (A') (A') (A') (A') (A') (A') (A')
                 (A') (A') (A') (A") (A') (A') (A') (A') (A') (A')
                 (A') (A') (A') (A') (A') (A') (A') (A') (A') (A')
                 (A') (A') (A') (A') (A') (A') (A') (A') (A') (A')
                 (A') (A')
     4 initial guesses have been made.
 Convergence on wavefunction:    0.001000000000000
 Iteration     1 Dimension     4 NMult     0 NNew      4
 CISAX will form     4 AO SS matrices at one time.
 Iteration     2 Dimension     6 NMult     4 NNew      2
 Iteration     3 Dimension     8 NMult     6 NNew      2
 Iteration     4 Dimension    10 NMult     8 NNew      2
 Iteration     5 Dimension    12 NMult    10 NNew      2
 Iteration     6 Dimension    14 NMult    12 NNew      2
 ***********************************************************************
 Excited states from <AA,BB:AA,BB> singles matrix:
 ***********************************************************************
 
 Ground to excited state transition densities written to RWF  633
 Ground to excited state transition electric dipole moments (Au):
       state          X           Y           Z        Dip. S.      Osc.
         1        -0.4931     -0.2668      0.0000      0.3144      0.0209
 Ground to excited state transition velocity dipole moments (Au):
       state          X           Y           Z        Dip. S.      Osc.
         1         0.0569      0.0269     -0.0000      0.0040      0.0265
 Ground to excited state transition magnetic dipole moments (Au):
       state          X           Y           Z
         1        -0.0000     -0.0000     -0.0989
 Ground to excited state transition velocity quadrupole moments (Au):
       state          XX          YY          ZZ          XY          XZ          YZ
         1        -0.1290     -0.1521      0.0086      0.1297      0.0000     -0.0000
 <0|del|b> * <b|rxdel|0> + <0|del|b> * <b|delr+rdel|0>
 Rotatory Strengths (R) in cgs (10**-40 erg-esu-cm/Gauss)
       state          XX          YY          ZZ    R(velocity)    E-M Angle
         1        -0.0000     -0.0000      0.0000     -0.0000       90.00
 1/2[<0|r|b>*<b|rxdel|0> + (<0|rxdel|b>*<b|r|0>)*]
 Rotatory Strengths (R) in cgs (10**-40 erg-esu-cm/Gauss)
       state          XX          YY          ZZ     R(length)
         1        -0.0000     -0.0000      0.0000     -0.0000
  1/2[<0|del|b>*<b|r|0> + (<0|r|b>*<b|del|0>)*] (Au)
       state          X           Y           Z        Dip. S.   Osc.(frdel)
         1        -0.0281     -0.0072     -0.0000      0.0352      0.0235

 Excitation energies and oscillator strengths:
 
 Excited State   1:      Singlet-A'     2.7170 eV  456.33 nm  f=0.0209  <S**2>=0.000
      47 -> 48         0.70355
 This state for optimization and/or second-order correction.
 Total Energy, E(TD-HF/TD-DFT) =  -539.655729060    
 Copying the excited state density for this state as the 1-particle RhoCI density.
 SavETr:  write IOETrn=   770 NScale= 10 NData=  16 NLR=1 NState=    1 LETran=      28.

 **********************************************************************

            Population analysis using the SCF Density.

 **********************************************************************

 Orbital symmetries:
       Occupied  (A') (A') (A') (A') (A') (A') (A') (A') (A') (A')
                 (A') (A') (A') (A') (A') (A') (A') (A') (A') (A')
                 (A') (A') (A') (A') (A') (A') (A') (A') (A') (A')
                 (A') (A") (A') (A') (A') (A') (A') (A") (A") (A')
                 (A') (A') (A') (A") (A") (A") (A")
       Virtual   (A") (A") (A") (A") (A') (A') (A') (A') (A") (A')
                 (A') (A") (A') (A') (A") (A') (A") (A') (A') (A')
                 (A") (A") (A') (A') (A') (A") (A') (A") (A') (A')
                 (A") (A') (A") (A') (A') (A') (A') (A') (A") (A')
                 (A") (A') (A') (A") (A") (A') (A") (A') (A") (A')
                 (A') (A') (A') (A') (A') (A") (A') (A') (A') (A')
                 (A') (A") (A') (A') (A') (A") (A') (A') (A') (A')
                 (A') (A') (A') (A') (A') (A') (A') (A') (A') (A')
                 (A') (A') (A') (A') (A') (A') (A') (A') (A') (A')
                 (A') (A') (A') (A') (A") (A') (A") (A") (A') (A")
                 (A') (A') (A') (A') (A") (A") (A') (A") (A") (A')
                 (A') (A') (A") (A') (A") (A') (A') (A") (A') (A")
                 (A") (A') (A") (A') (A') (A') (A") (A') (A') (A')
                 (A') (A') (A') (A') (A') (A') (A') (A') (A') (A')
                 (A') (A') (A') (A") (A') (A') (A') (A') (A') (A')
                 (A') (A') (A") (A') (A") (A') (A") (A") (A') (A")
                 (A") (A') (A') (A") (A") (A") (A') (A") (A') (A')
                 (A') (A') (A') (A") (A") (A') (A') (A') (A') (A")
                 (A') (A') (A') (A") (A") (A') (A') (A") (A') (A")
                 (A") (A') (A') (A") (A') (A") (A') (A') (A') (A')
                 (A") (A") (A") (A') (A") (A') (A') (A") (A') (A')
                 (A') (A") (A') (A") (A") (A') (A") (A') (A') (A")
                 (A') (A') (A') (A') (A") (A') (A') (A') (A") (A")
                 (A') (A') (A') (A") (A') (A') (A') (A") (A") (A')
                 (A") (A') (A') (A") (A') (A') (A') (A') (A') (A')
                 (A") (A') (A') (A') (A') (A") (A") (A") (A') (A')
                 (A') (A') (A') (A') (A') (A') (A') (A") (A') (A')
                 (A') (A") (A') (A") (A") (A") (A') (A") (A') (A")
                 (A') (A") (A") (A') (A") (A") (A') (A') (A') (A')
                 (A') (A') (A') (A') (A') (A') (A') (A') (A') (A')
                 (A') (A') (A') (A") (A') (A') (A') (A') (A') (A')
                 (A') (A') (A') (A') (A') (A') (A') (A') (A') (A')
                 (A') (A') (A') (A') (A') (A') (A') (A') (A') (A')
                 (A') (A')
 The electronic state is 1-A'.
 Alpha  occ. eigenvalues --  -10.77568 -10.73784 -10.72803 -10.72646 -10.72058
 Alpha  occ. eigenvalues --  -10.71978 -10.71920 -10.70976 -10.70789 -10.70268
 Alpha  occ. eigenvalues --  -10.70021 -10.69983 -10.69674 -10.69277  -1.16510
 Alpha  occ. eigenvalues --   -1.12462  -1.06964  -1.05846  -1.01265  -1.00283
 Alpha  occ. eigenvalues --   -0.95683  -0.91073  -0.86411  -0.85882  -0.83789
 Alpha  occ. eigenvalues --   -0.78361  -0.76106  -0.74386  -0.69898  -0.69211
 Alpha  occ. eigenvalues --   -0.68349  -0.68097  -0.68022  -0.65141  -0.64185
 Alpha  occ. eigenvalues --   -0.62790  -0.61744  -0.60326  -0.59378  -0.59286
 Alpha  occ. eigenvalues --   -0.56804  -0.55412  -0.54420  -0.52457  -0.47098
 Alpha  occ. eigenvalues --   -0.46108  -0.44006
 Alpha virt. eigenvalues --   -0.26114  -0.14659  -0.14068  -0.12753  -0.11190
 Alpha virt. eigenvalues --   -0.10093  -0.09257  -0.07967  -0.07925  -0.07481
 Alpha virt. eigenvalues --   -0.07210  -0.07133  -0.05645  -0.05575  -0.05349
 Alpha virt. eigenvalues --   -0.03844  -0.03660  -0.03268  -0.03133  -0.02158
 Alpha virt. eigenvalues --   -0.01353  -0.00946   0.00187   0.00577   0.00654
 Alpha virt. eigenvalues --    0.01063   0.01506   0.01909   0.02158   0.02304
 Alpha virt. eigenvalues --    0.02453   0.02679   0.02809   0.03233   0.03434
 Alpha virt. eigenvalues --    0.04226   0.04527   0.04732   0.05043   0.05378
 Alpha virt. eigenvalues --    0.06033   0.06292   0.06589   0.07052   0.07266
 Alpha virt. eigenvalues --    0.07895   0.08075   0.08353   0.08649   0.08906
 Alpha virt. eigenvalues --    0.09503   0.09572   0.09948   0.10798   0.10988
 Alpha virt. eigenvalues --    0.11130   0.12110   0.12240   0.12687   0.13007
 Alpha virt. eigenvalues --    0.13479   0.13531   0.13983   0.14420   0.15892
 Alpha virt. eigenvalues --    0.16368   0.16487   0.17341   0.17552   0.17848
 Alpha virt. eigenvalues --    0.18124   0.19062   0.19478   0.19632   0.19804
 Alpha virt. eigenvalues --    0.21538   0.21615   0.22659   0.23143   0.23577
 Alpha virt. eigenvalues --    0.23913   0.24537   0.25400   0.26939   0.27629
 Alpha virt. eigenvalues --    0.28807   0.29346   0.29935   0.31360   0.35653
 Alpha virt. eigenvalues --    0.36673   0.38181   0.39247   0.41093   0.41280
 Alpha virt. eigenvalues --    0.41958   0.42170   0.42987   0.43736   0.44378
 Alpha virt. eigenvalues --    0.44579   0.45210   0.46092   0.46313   0.47916
 Alpha virt. eigenvalues --    0.48415   0.48824   0.48994   0.50526   0.51110
 Alpha virt. eigenvalues --    0.51329   0.52000   0.52147   0.52836   0.54102
 Alpha virt. eigenvalues --    0.54144   0.54567   0.55675   0.55951   0.57517
 Alpha virt. eigenvalues --    0.58230   0.58912   0.61485   0.62233   0.62422
 Alpha virt. eigenvalues --    0.63178   0.63505   0.64904   0.65162   0.67376
 Alpha virt. eigenvalues --    0.70394   0.70492   0.71189   0.72466   0.72914
 Alpha virt. eigenvalues --    0.75702   0.76007   0.76304   0.76781   0.77178
 Alpha virt. eigenvalues --    0.77750   0.78066   0.78286   0.79912   0.80410
 Alpha virt. eigenvalues --    0.81175   0.81663   0.82358   0.82996   0.85231
 Alpha virt. eigenvalues --    0.87161   0.88233   0.88386   0.89196   0.90617
 Alpha virt. eigenvalues --    0.91084   0.91267   0.93269   0.94645   0.96440
 Alpha virt. eigenvalues --    0.96714   1.00343   1.01239   1.01535   1.02932
 Alpha virt. eigenvalues --    1.03161   1.03612   1.04851   1.05798   1.08855
 Alpha virt. eigenvalues --    1.19535   1.23121   1.24068   1.24930   1.28372
 Alpha virt. eigenvalues --    1.29626   1.31832   1.34307   1.35851   1.36005
 Alpha virt. eigenvalues --    1.39243   1.40046   1.40804   1.43009   1.43450
 Alpha virt. eigenvalues --    1.43622   1.44426   1.46232   1.46302   1.46659
 Alpha virt. eigenvalues --    1.47791   1.48090   1.51770   1.53653   1.55636
 Alpha virt. eigenvalues --    1.55793   1.56240   1.56619   1.57890   1.61486
 Alpha virt. eigenvalues --    1.62966   1.63277   1.64170   1.66082   1.68247
 Alpha virt. eigenvalues --    1.68324   1.68717   1.69752   1.74421   1.76029
 Alpha virt. eigenvalues --    1.77174   1.78302   1.79899   1.79927   1.80905
 Alpha virt. eigenvalues --    1.82903   1.83202   1.83624   1.84120   1.84232
 Alpha virt. eigenvalues --    1.84358   1.85573   1.86359   1.88325   1.91414
 Alpha virt. eigenvalues --    1.92047   1.94233   1.95288   1.97675   1.98257
 Alpha virt. eigenvalues --    1.99804   2.02422   2.04483   2.07352   2.11747
 Alpha virt. eigenvalues --    2.12199   2.14286   2.15274   2.19141   2.21285
 Alpha virt. eigenvalues --    2.22842   2.28478   2.30224   2.34602   2.34839
 Alpha virt. eigenvalues --    2.36286   2.38500   2.39764   2.42242   2.44613
 Alpha virt. eigenvalues --    2.46172   2.46514   2.49064   2.53191   2.54023
 Alpha virt. eigenvalues --    2.54256   2.56817   2.57941   2.58419   2.59448
 Alpha virt. eigenvalues --    2.59967   2.61522   2.61980   2.63595   2.63853
 Alpha virt. eigenvalues --    2.64828   2.64967   2.65105   2.65678   2.67792
 Alpha virt. eigenvalues --    2.68808   2.70904   2.71370   2.73412   2.74818
 Alpha virt. eigenvalues --    2.76287   2.78493   2.79678   2.83154   2.83185
 Alpha virt. eigenvalues --    2.84928   2.86286   2.92161   2.97062   2.99226
 Alpha virt. eigenvalues --    3.00372   3.04931   3.09939   3.11350   3.13824
 Alpha virt. eigenvalues --    3.20222   3.22538   3.26242   3.28947   3.30845
 Alpha virt. eigenvalues --    3.32673   3.34976   3.43737   3.46214   3.46787
 Alpha virt. eigenvalues --    3.48359   3.50058   3.56491   3.65776   3.66645
 Alpha virt. eigenvalues --    3.68498   3.93832   3.94138   3.95363   3.96353
 Alpha virt. eigenvalues --    4.03911   4.06762   4.07310   4.12439   4.35276
 Alpha virt. eigenvalues --    4.60895   4.69315   4.71266  23.45193  23.59970
 Alpha virt. eigenvalues --   23.79955  23.81659  23.85326  23.89012  23.93303
 Alpha virt. eigenvalues --   23.95232  23.96418  23.98784  24.03432  24.04930
 Alpha virt. eigenvalues --   24.11870  24.11939
          Condensed to atoms (all electrons):
               1          2          3          4          5          6
     1  C    8.801642   0.081106  -0.416003   2.132912  -0.087435  -0.104217
     2  C    0.081106   7.213921   0.210485  -1.158800   0.013784  -0.014612
     3  C   -0.416003   0.210485   6.585511   0.858069  -0.147293   0.016856
     4  C    2.132912  -1.158800   0.858069  10.341175  -0.406501  -0.112497
     5  C   -0.087435   0.013784  -0.147293  -0.406501  12.040486   0.717564
     6  C   -0.104217  -0.014612   0.016856  -0.112497   0.717564   6.649948
     7  C   -0.001475  -0.000304  -0.013497  -0.031782  -1.073316   0.445608
     8  C    0.407745  -0.032943  -0.088483   0.003797   1.924469  -0.621369
     9  C   -1.095821  -0.777231   0.306617  -0.363307   0.012596   0.292099
    10  C   -1.350558   0.326424  -0.431303  -2.380159  -2.814029  -0.283481
    11  C    0.395315  -1.118069   1.208108   0.175157  -1.718334  -0.253659
    12  C   -2.549313   1.803404  -1.563714  -1.806194  -0.421140  -0.091122
    13  C    0.317543  -0.341428  -0.080185  -1.233267  -0.813644   0.814152
    14  C   -1.030187  -0.067093  -0.318294  -0.334465  -1.626648  -1.334369
    15  H    0.368759  -0.107961   0.002791   0.026906   0.004937   0.001107
    16  H   -0.017783   0.377267  -0.013737   0.011978  -0.001444  -0.000325
    17  H   -0.032195  -0.008208   0.370848  -0.068973   0.000346   0.000409
    18  H    0.052249   0.002988  -0.084135   0.450542   0.005789  -0.005199
    19  H   -0.046450  -0.008639   0.053332  -0.052569  -0.091642   0.049441
    20  H    0.007186   0.002236  -0.005157   0.006017   0.471837  -0.084686
    21  H   -0.001316  -0.000390   0.000393   0.000213  -0.067449   0.377874
    22  H    0.001019   0.000395  -0.000331  -0.001541   0.014938  -0.020355
    23  H    0.004723  -0.002784   0.001102   0.005883   0.028914  -0.004441
    24  H    0.030737   0.013061  -0.001356  -0.011039  -0.013260  -0.001715
    25  H    0.030737   0.013061  -0.001356  -0.011039  -0.013260  -0.001715
               7          8          9         10         11         12
     1  C   -0.001475   0.407745  -1.095821  -1.350558   0.395315  -2.549313
     2  C   -0.000304  -0.032943  -0.777231   0.326424  -1.118069   1.803404
     3  C   -0.013497  -0.088483   0.306617  -0.431303   1.208108  -1.563714
     4  C   -0.031782   0.003797  -0.363307  -2.380159   0.175157  -1.806194
     5  C   -1.073316   1.924469   0.012596  -2.814029  -1.718334  -0.421140
     6  C    0.445608  -0.621369   0.292099  -0.283481  -0.253659  -0.091122
     7  C    7.166692   0.438850  -0.890813   0.195723  -0.195368  -0.284733
     8  C    0.438850   8.512219  -1.172828  -1.249815   0.163824  -1.166917
     9  C   -0.890813  -1.172828   9.671277   0.240777   1.600911  -1.760109
    10  C    0.195723  -1.249815   0.240777   9.131381  -0.625939   2.574666
    11  C   -0.195368   0.163824   1.600911  -0.625939  14.165056  -3.645885
    12  C   -0.284733  -1.166917  -1.760109   2.574666  -3.645885  16.225994
    13  C   -0.692760   0.261447   1.483222  -0.244889   1.029740  -4.918876
    14  C    1.051407  -1.876804  -2.119526   2.368035  -4.595549   3.096970
    15  H   -0.002325   0.006961   0.092310  -0.009972  -0.029428  -0.036498
    16  H    0.000324   0.000428   0.002675  -0.008789   0.023497  -0.030802
    17  H   -0.000405  -0.001329  -0.006093   0.020785  -0.030149   0.100784
    18  H    0.001958   0.006980  -0.025655   0.013862  -0.000939  -0.062796
    19  H   -0.007258  -0.046037   0.075061   0.421326   0.083051  -0.040110
    20  H    0.002381   0.049569  -0.023184   0.008651  -0.012052  -0.022555
    21  H   -0.021536  -0.020363  -0.005325   0.019410  -0.006359   0.005440
    22  H    0.380679  -0.020473   0.003355  -0.009468   0.003720  -0.010160
    23  H   -0.107701   0.367976   0.092145  -0.009221  -0.002328   0.007964
    24  H    0.015561   0.034856   0.355731   0.005267   0.002800  -0.058292
    25  H    0.015561   0.034856   0.355731   0.005267   0.002800  -0.058292
              13         14         15         16         17         18
     1  C    0.317543  -1.030187   0.368759  -0.017783  -0.032195   0.052249
     2  C   -0.341428  -0.067093  -0.107961   0.377267  -0.008208   0.002988
     3  C   -0.080185  -0.318294   0.002791  -0.013737   0.370848  -0.084135
     4  C   -1.233267  -0.334465   0.026906   0.011978  -0.068973   0.450542
     5  C   -0.813644  -1.626648   0.004937  -0.001444   0.000346   0.005789
     6  C    0.814152  -1.334369   0.001107  -0.000325   0.000409  -0.005199
     7  C   -0.692760   1.051407  -0.002325   0.000324  -0.000405   0.001958
     8  C    0.261447  -1.876804   0.006961   0.000428  -0.001329   0.006980
     9  C    1.483222  -2.119526   0.092310   0.002675  -0.006093  -0.025655
    10  C   -0.244889   2.368035  -0.009972  -0.008789   0.020785   0.013862
    11  C    1.029740  -4.595549  -0.029428   0.023497  -0.030149  -0.000939
    12  C   -4.918876   3.096970  -0.036498  -0.030802   0.100784  -0.062796
    13  C   14.741429  -3.755217   0.007397   0.002166  -0.006235  -0.011706
    14  C   -3.755217  16.097162   0.003603  -0.007785   0.004994  -0.007895
    15  H    0.007397   0.003603   0.445563  -0.009426   0.001436   0.000023
    16  H    0.002166  -0.007785  -0.009426   0.423605  -0.006448   0.001942
    17  H   -0.006235   0.004994   0.001436  -0.006448   0.425219  -0.010657
    18  H   -0.011706  -0.007895   0.000023   0.001942  -0.010657   0.456912
    19  H    0.076232  -0.090355   0.000277  -0.000537   0.001289  -0.006420
    20  H   -0.010743  -0.051523  -0.000113   0.000014  -0.000134   0.001252
    21  H   -0.023303   0.084681   0.000012  -0.000007   0.000010  -0.000153
    22  H    0.028061  -0.032842  -0.000129   0.000008  -0.000007   0.000017
    23  H   -0.033481  -0.014451   0.000563  -0.000126   0.000016  -0.000115
    24  H    0.023857  -0.060530  -0.000903   0.000638  -0.000144   0.000201
    25  H    0.023857  -0.060530  -0.000903   0.000638  -0.000144   0.000201
              19         20         21         22         23         24
     1  C   -0.046450   0.007186  -0.001316   0.001019   0.004723   0.030737
     2  C   -0.008639   0.002236  -0.000390   0.000395  -0.002784   0.013061
     3  C    0.053332  -0.005157   0.000393  -0.000331   0.001102  -0.001356
     4  C   -0.052569   0.006017   0.000213  -0.001541   0.005883  -0.011039
     5  C   -0.091642   0.471837  -0.067449   0.014938   0.028914  -0.013260
     6  C    0.049441  -0.084686   0.377874  -0.020355  -0.004441  -0.001715
     7  C   -0.007258   0.002381  -0.021536   0.380679  -0.107701   0.015561
     8  C   -0.046037   0.049569  -0.020363  -0.020473   0.367976   0.034856
     9  C    0.075061  -0.023184  -0.005325   0.003355   0.092145   0.355731
    10  C    0.421326   0.008651   0.019410  -0.009468  -0.009221   0.005267
    11  C    0.083051  -0.012052  -0.006359   0.003720  -0.002328   0.002800
    12  C   -0.040110  -0.022555   0.005440  -0.010160   0.007964  -0.058292
    13  C    0.076232  -0.010743  -0.023303   0.028061  -0.033481   0.023857
    14  C   -0.090355  -0.051523   0.084681  -0.032842  -0.014451  -0.060530
    15  H    0.000277  -0.000113   0.000012  -0.000129   0.000563  -0.000903
    16  H   -0.000537   0.000014  -0.000007   0.000008  -0.000126   0.000638
    17  H    0.001289  -0.000134   0.000010  -0.000007   0.000016  -0.000144
    18  H   -0.006420   0.001252  -0.000153   0.000017  -0.000115   0.000201
    19  H    0.443651  -0.006138   0.001560  -0.000543   0.000354   0.000594
    20  H   -0.006138   0.450639  -0.009821   0.001914   0.000287   0.000164
    21  H    0.001560  -0.009821   0.418971  -0.006641   0.001477  -0.000139
    22  H   -0.000543   0.001914  -0.006641   0.415075  -0.008595   0.000626
    23  H    0.000354   0.000287   0.001477  -0.008595   0.433258  -0.000888
    24  H    0.000594   0.000164  -0.000139   0.000626  -0.000888   0.493709
    25  H    0.000594   0.000164  -0.000139   0.000626  -0.000888  -0.079524
              25
     1  C    0.030737
     2  C    0.013061
     3  C   -0.001356
     4  C   -0.011039
     5  C   -0.013260
     6  C   -0.001715
     7  C    0.015561
     8  C    0.034856
     9  C    0.355731
    10  C    0.005267
    11  C    0.002800
    12  C   -0.058292
    13  C    0.023857
    14  C   -0.060530
    15  H   -0.000903
    16  H    0.000638
    17  H   -0.000144
    18  H    0.000201
    19  H    0.000594
    20  H    0.000164
    21  H   -0.000139
    22  H    0.000626
    23  H   -0.000888
    24  H   -0.079524
    25  H    0.493709
 Mulliken charges:
               1
     1  C    0.101081
     2  C   -0.419670
     3  C   -0.449269
     4  C   -0.040516
     5  C    0.059736
     6  C   -0.431297
     7  C   -0.391472
     8  C    0.083384
     9  C   -0.344615
    10  C    0.086046
    11  C   -0.619923
    12  C    0.712282
    13  C   -0.643370
    14  C    0.677208
    15  H    0.235014
    16  H    0.252028
    17  H    0.244986
    18  H    0.220754
    19  H    0.189935
    20  H    0.223797
    21  H    0.252896
    22  H    0.260653
    23  H    0.240355
    24  H    0.249988
    25  H    0.249988
 Sum of Mulliken charges =   1.00000
 Mulliken charges with hydrogens summed into heavy atoms:
               1
     1  C    0.336095
     2  C   -0.167642
     3  C   -0.204283
     4  C    0.180238
     5  C    0.283533
     6  C   -0.178401
     7  C   -0.130819
     8  C    0.323739
     9  C    0.155362
    10  C    0.275982
    11  C   -0.619923
    12  C    0.712282
    13  C   -0.643370
    14  C    0.677208
 Electronic spatial extent (au):  <R**2>=           2855.9535
 Charge=              1.0000 electrons
 Dipole moment (field-independent basis, Debye):
    X=              0.3406    Y=             -1.0205    Z=              0.0000  Tot=              1.0759
 Quadrupole moment (field-independent basis, Debye-Ang):
   XX=            -50.8183   YY=            -36.4621   ZZ=            -84.1298
   XY=            -10.4056   XZ=             -0.0000   YZ=              0.0000
 Traceless Quadrupole moment (field-independent basis, Debye-Ang):
   XX=              6.3185   YY=             20.6746   ZZ=            -26.9931
   XY=            -10.4056   XZ=             -0.0000   YZ=              0.0000
 Octapole moment (field-independent basis, Debye-Ang**2):
  XXX=              2.8448  YYY=             -5.1796  ZZZ=             -0.0000  XYY=              4.3495
  XXY=             -8.3674  XXZ=             -0.0000  XZZ=              3.3903  YZZ=              0.1977
  YYZ=             -0.0000  XYZ=              0.0000
 Hexadecapole moment (field-independent basis, Debye-Ang**3):
 XXXX=           -981.0244 YYYY=          -1859.4561 ZZZZ=            -99.3040 XXXY=            343.8181
 XXXZ=              0.0000 YYYX=            271.2718 YYYZ=             -0.0000 ZZZX=              0.0000
 ZZZY=             -0.0000 XXYY=           -452.6171 XXZZ=           -240.5887 YYZZ=           -495.7675
 XXYZ=              0.0000 YYXZ=              0.0000 ZZXY=            182.2338
 N-N= 7.812378090438D+02 E-N=-2.798834996342D+03  KE= 5.375288176854D+02
 Symmetry A'   KE= 5.228750050554D+02
 Symmetry A"   KE= 1.465381262994D+01
 Unable to Open any file for archive entry.
 1\1\GINC-GADI-CPU-CLX-2072\SP\RM062X TD-FC\6-311++G(d,p)\C14H11(1+)\TS
 1578\28-Jul-2022\0\\#n M062X/6-311++G(d,p) TD(NStates=1) EmpiricalDisp
 ersion=GD3 SP\\SP_-10\\1,1\C,0,0.,2.511855,1.360831\C,0,0.,3.717108,0.
 679589\C,0,0.,3.692061,-0.69823\C,0,0.,2.443956,-1.400738\C,0,0.,-2.48
 2356,-1.414338\C,0,0.,-3.675661,-0.72943\C,0,0.,-3.685908,0.664389\C,0
 ,0.,-2.473455,1.360031\C,0,0.,0.0048,1.453369\C,0,0.,-0.0354,-1.429189
 \C,0,0.,1.255055,0.660065\C,0,0.,1.232071,-0.722604\C,0,0.,-1.269055,0
 .694065\C,0,0.,-1.242871,-0.739004\H,0,0.,2.480671,2.443647\H,0,0.,4.6
 48353,1.224689\H,0,0.,4.604662,-1.278349\H,0,0.,2.47255,-2.482859\H,0,
 0.,-0.019,-2.510266\H,0,0.,-2.46255,-2.497259\H,0,0.,-4.613862,-1.2663
 49\H,0,0.,-4.625153,1.198689\H,0,0.,-2.495471,2.443647\H,0,-0.859585,0
 .0336,2.145787\H,0,0.859585,0.0336,2.145787\\Version=ES64L-G16RevC.01\
 State=1-A'\HF=-539.7555764\RMSD=8.092e-09\PG=CS [SG(C14H9),X(H2)]\\@
 The archive entry for this job was punched.


 IT IS BY LOGIC THAT WE PROVE, BUT BY INTUITION THAT WE DISCOVER.
     -- J.H.POINCARE (1854-1912)
 Job cpu time:       0 days  0 hours 52 minutes 35.3 seconds.
 Elapsed time:       0 days  0 hours  1 minutes  5.9 seconds.
 File lengths (MBytes):  RWF=    460 Int=      0 D2E=      0 Chk=     15 Scr=      1
 Normal termination of Gaussian 16 at Thu Jul 28 13:31:45 2022.
