 Entering Gaussian System, Link 0=g16
 Initial command:
 /apps/gaussian/g16c01/g16/l1.exe "/jobfs/53005151.gadi-pbs/Gau-4145097.inp" -scrdir="/jobfs/53005151.gadi-pbs/"
 Entering Link 1 = /apps/gaussian/g16c01/g16/l1.exe PID=   4145098.
  
 Copyright (c) 1988-2019, Gaussian, Inc.  All Rights Reserved.
  
 This is part of the Gaussian(R) 16 program.  It is based on
 the Gaussian(R) 09 system (copyright 2009, Gaussian, Inc.),
 the Gaussian(R) 03 system (copyright 2003, Gaussian, Inc.),
 the Gaussian(R) 98 system (copyright 1998, Gaussian, Inc.),
 the Gaussian(R) 94 system (copyright 1995, Gaussian, Inc.),
 the Gaussian 92(TM) system (copyright 1992, Gaussian, Inc.),
 the Gaussian 90(TM) system (copyright 1990, Gaussian, Inc.),
 the Gaussian 88(TM) system (copyright 1988, Gaussian, Inc.),
 the Gaussian 86(TM) system (copyright 1986, Carnegie Mellon
 University), and the Gaussian 82(TM) system (copyright 1983,
 Carnegie Mellon University). Gaussian is a federally registered
 trademark of Gaussian, Inc.
  
 This software contains proprietary and confidential information,
 including trade secrets, belonging to Gaussian, Inc.
  
 This software is provided under written license and may be
 used, copied, transmitted, or stored only in accord with that
 written license.
  
 The following legend is applicable only to US Government
 contracts under FAR:
  
                    RESTRICTED RIGHTS LEGEND
  
 Use, reproduction and disclosure by the US Government is
 subject to restrictions as set forth in subparagraphs (a)
 and (c) of the Commercial Computer Software - Restricted
 Rights clause in FAR 52.227-19.
  
 Gaussian, Inc.
 340 Quinnipiac St., Bldg. 40, Wallingford CT 06492
  
  
 ---------------------------------------------------------------
 Warning -- This program may not be used in any manner that
 competes with the business of Gaussian, Inc. or will provide
 assistance to any competitor of Gaussian, Inc.  The licensee
 of this program is prohibited from giving any competitor of
 Gaussian, Inc. access to this program.  By using this program,
 the user acknowledges that Gaussian, Inc. is engaged in the
 business of creating and licensing software in the field of
 computational chemistry and represents and warrants to the
 licensee that it is not a competitor of Gaussian, Inc. and that
 it will not use this program in any manner prohibited above.
 ---------------------------------------------------------------
  

 Cite this work as:
 Gaussian 16, Revision C.01,
 M. J. Frisch, G. W. Trucks, H. B. Schlegel, G. E. Scuseria, 
 M. A. Robb, J. R. Cheeseman, G. Scalmani, V. Barone, 
 G. A. Petersson, H. Nakatsuji, X. Li, M. Caricato, A. V. Marenich, 
 J. Bloino, B. G. Janesko, R. Gomperts, B. Mennucci, H. P. Hratchian, 
 J. V. Ortiz, A. F. Izmaylov, J. L. Sonnenberg, D. Williams-Young, 
 F. Ding, F. Lipparini, F. Egidi, J. Goings, B. Peng, A. Petrone, 
 T. Henderson, D. Ranasinghe, V. G. Zakrzewski, J. Gao, N. Rega, 
 G. Zheng, W. Liang, M. Hada, M. Ehara, K. Toyota, R. Fukuda, 
 J. Hasegawa, M. Ishida, T. Nakajima, Y. Honda, O. Kitao, H. Nakai, 
 T. Vreven, K. Throssell, J. A. Montgomery, Jr., J. E. Peralta, 
 F. Ogliaro, M. J. Bearpark, J. J. Heyd, E. N. Brothers, K. N. Kudin, 
 V. N. Staroverov, T. A. Keith, R. Kobayashi, J. Normand, 
 K. Raghavachari, A. P. Rendell, J. C. Burant, S. S. Iyengar, 
 J. Tomasi, M. Cossi, J. M. Millam, M. Klene, C. Adamo, R. Cammi, 
 J. W. Ochterski, R. L. Martin, K. Morokuma, O. Farkas, 
 J. B. Foresman, and D. J. Fox, Gaussian, Inc., Wallingford CT, 2019.
 
 ******************************************
 Gaussian 16:  ES64L-G16RevC.01  3-Jul-2019
                28-Jul-2022 
 ******************************************
 %NProcShared=48
 Will use up to   48 processors via shared memory.
 %mem = 190GB
 ---------------------------------------------------------------
 #n M062X/6-311++G(d,p) TD(NStates=1) EmpiricalDispersion=GD3 SP
 ---------------------------------------------------------------
 1/38=1,172=1/1;
 2/12=2,17=6,18=5,40=1/2;
 3/5=4,6=6,7=1111,11=9,25=1,30=1,74=-55,124=31/1,2,3,8;
 4//1;
 5/5=2,38=5/2;
 8/6=1,10=2,108=1/1;
 9/41=1,42=1,70=2/14;
 6/7=2,8=2,9=2,10=2/1;
 99/5=1,9=1/99;
 ------
 SP_-14
 ------
 Symbolic Z-matrix:
 Charge =  1 Multiplicity = 1
 C                     0.        2.51186   1.36003 
 C                     0.        3.72911   0.68359 
 C                     0.        3.69726  -0.69103 
 C                     0.        2.43436  -1.39514 
 C                     0.       -2.49196  -1.41994 
 C                     0.       -3.67046  -0.73663 
 C                     0.       -3.67391   0.66039 
 C                     0.       -2.47346   1.36083 
 C                     0.        0.0144    1.45337 
 C                     0.       -0.0342   -1.42919 
 C                     0.        1.24745   0.66767 
 C                     0.        1.22127  -0.7366 
 C                     0.       -1.27666   0.68647 
 C                     0.       -1.25367  -0.725 
 H                     0.        2.50747   2.44365 
 H                     0.        4.66835   1.21549 
 H                     0.        4.61626  -1.26155 
 H                     0.        2.44095  -2.47806 
 H                     0.       -0.041    -2.51027 
 H                     0.       -2.49415  -2.50206 
 H                     0.       -4.60226  -1.28315 
 H                     0.       -4.60515   1.20789 
 H                     0.       -2.46867   2.44365 
 H                    -0.85959   0.072     2.14579 
 H                     0.85959   0.072     2.14579 
 
                          Input orientation:                          
 ---------------------------------------------------------------------
 Center     Atomic      Atomic             Coordinates (Angstroms)
 Number     Number       Type             X           Y           Z
 ---------------------------------------------------------------------
      1          6           0        0.000000    2.511855    1.360031
      2          6           0        0.000000    3.729108    0.683589
      3          6           0        0.000000    3.697261   -0.691030
      4          6           0        0.000000    2.434356   -1.395138
      5          6           0        0.000000   -2.491956   -1.419938
      6          6           0        0.000000   -3.670461   -0.736630
      7          6           0        0.000000   -3.673908    0.660389
      8          6           0        0.000000   -2.473455    1.360831
      9          6           0        0.000000    0.014400    1.453369
     10          6           0        0.000000   -0.034200   -1.429189
     11          6           0        0.000000    1.247455    0.667665
     12          6           0        0.000000    1.221271   -0.736604
     13          6           0        0.000000   -1.276655    0.686465
     14          6           0        0.000000   -1.253671   -0.725004
     15          1           0        0.000000    2.507471    2.443647
     16          1           0        0.000000    4.668353    1.215489
     17          1           0        0.000000    4.616262   -1.261549
     18          1           0        0.000000    2.440950   -2.478059
     19          1           0        0.000000   -0.041000   -2.510266
     20          1           0        0.000000   -2.494150   -2.502059
     21          1           0        0.000000   -4.602262   -1.283149
     22          1           0        0.000000   -4.605153    1.207889
     23          1           0        0.000000   -2.468671    2.443647
     24          1           0       -0.859585    0.072000    2.145787
     25          1           0        0.859585    0.072000    2.145787
 ---------------------------------------------------------------------
                    Distance matrix (angstroms):
                    1          2          3          4          5
     1  C    0.000000
     2  C    1.392580   0.000000
     3  C    2.368974   1.374988   0.000000
     4  C    2.756259   2.448977   1.445924   0.000000
     5  C    5.724190   6.567074   6.231991   4.926374   0.000000
     6  C    6.528171   7.534630   7.367863   6.140230   1.362272
     7  C    6.225204   7.403052   7.494029   6.444849   2.392649
     8  C    4.985310   6.239427   6.502912   5.628674   2.780831
     9  C    2.499199   3.793628   4.261680   3.737670   3.812835
    10  C    3.776525   4.315822   3.803772   2.468791   2.457773
    11  C    1.441554   2.481704   2.801357   2.379893   4.282672
    12  C    2.462008   2.882047   2.476409   1.380305   3.775579
    13  C    3.847921   5.005764   5.161137   4.254959   2.431849
    14  C    4.304249   5.178052   4.951049   3.748416   1.419959
    15  H    1.083625   2.142475   3.352879   3.839481   6.318351
    16  H    2.161337   1.079397   2.139587   3.436003   7.629908
    17  H    3.361727   2.137897   1.081691   2.185992   7.109982
    18  H    3.838745   3.413996   2.184443   1.082941   5.045115
    19  H    4.636407   4.941095   4.157429   2.714940   2.682536
    20  H    6.322644   6.991230   6.450845   5.051282   1.082123
    21  H    7.589273   8.560361   8.320618   7.037509   2.114735
    22  H    7.118634   8.350736   8.516805   7.505361   3.372103
    23  H    5.097045   6.442846   6.917002   6.227033   3.863655
    24  H    2.703552   4.031296   4.682834   4.342552   4.475171
    25  H    2.703552   4.031296   4.682834   4.342552   4.475171
                    6          7          8          9         10
     6  C    0.000000
     7  C    1.397023   0.000000
     8  C    2.414988   1.389858   0.000000
     9  C    4.286525   3.772590   2.489575   0.000000
    10  C    3.701626   4.196881   3.705965   2.882968   0.000000
    11  C    5.114484   4.921368   3.784924   1.462106   2.457526
    12  C    4.891732   5.090616   4.248557   2.500504   1.433835
    13  C    2.784871   2.397395   1.373717   1.501654   2.453505
    14  C    2.416818   2.788702   2.416316   2.520578   1.408185
    15  H    6.948453   6.433464   5.097265   2.682546   4.632381
    16  H    8.564262   8.360709   7.143287   4.660028   5.395213
    17  H    8.303332   8.510039   7.559164   5.343025   4.653483
    18  H    6.354677   6.873234   6.236061   4.619986   2.688214
    19  H    4.039650   4.821937   4.571896   3.964022   1.081098
    20  H    2.121426   3.375338   3.862945   4.683827   2.683730
    21  H    1.080248   2.153876   3.394473   5.366759   4.570396
    22  H    2.157499   1.080265   2.137177   4.626071   5.277101
    23  H    3.399774   2.152349   1.082827   2.673255   4.574441
    24  H    4.801378   4.120330   2.798997   1.105281   3.678399
    25  H    4.801378   4.120330   2.798997   1.105281   3.678399
                   11         12         13         14         15
    11  C    0.000000
    12  C    1.404513   0.000000
    13  C    2.524180   2.874850   0.000000
    14  C    2.862719   2.474969   1.411656   0.000000
    15  H    2.177557   3.430497   4.172205   4.917981   0.000000
    16  H    3.464485   3.961444   5.968500   6.231844   2.485515
    17  H    3.882103   3.435336   6.206547   5.894404   4.263271
    18  H    3.364522   2.126096   4.882090   4.089429   4.922156
    19  H    3.429193   2.176972   3.427234   2.158178   5.570993
    20  H    4.903749   4.113537   3.413060   2.167190   7.033933
    21  H    6.166430   5.849124   3.865106   3.394788   8.027285
    22  H    5.877488   6.142334   3.369092   3.868915   7.219177
    23  H    4.118702   4.871311   2.123344   3.393608   4.976142
    24  H    2.074952   3.219921   2.165035   3.276848   2.599832
    25  H    2.074952   3.219921   2.165035   3.276848   2.599832
                   16         17         18         19         20
    16  H    0.000000
    17  H    2.477586   0.000000
    18  H    4.313192   2.492364   0.000000
    19  H    6.004936   4.821761   2.482159   0.000000
    20  H    8.069796   7.217813   4.935158   2.453164   0.000000
    21  H    9.601432   9.218549   7.143854   4.723444   2.435134
    22  H    9.273509   9.546341   7.951967   5.886949   4.268495
    23  H    7.241925   7.995296   6.951803   5.516778   4.945772
    24  H    4.767683   5.744488   5.266001   4.736083   5.378335
    25  H    4.767683   5.744488   5.266001   4.736083   5.378335
                   21         22         23         24         25
    21  H    0.000000
    22  H    2.491040   0.000000
    23  H    4.294324   2.468127   0.000000
    24  H    5.860479   4.847092   2.698632   0.000000
    25  H    5.860479   4.847092   2.698632   1.719170   0.000000
 Stoichiometry    C14H11(1+)
 Framework group  CS[SG(C14H9),X(H2)]
 Deg. of freedom    46
 Full point group                 CS      NOp   2
 Largest Abelian subgroup         CS      NOp   2
 Largest concise Abelian subgroup CS      NOp   2
                         Standard orientation:                         
 ---------------------------------------------------------------------
 Center     Atomic      Atomic             Coordinates (Angstroms)
 Number     Number       Type             X           Y           Z
 ---------------------------------------------------------------------
      1          6           0        0.013507    2.855880    0.000000
      2          6           0       -1.157431    3.609659    0.000000
      3          6           0       -2.354221    2.932693    0.000000
      4          6           0       -2.378786    1.486977    0.000000
      5          6           0       -0.075174   -2.867623    0.000000
      6          6           0        1.083525   -3.584002    0.000000
      7          6           0        2.316724   -2.927575    0.000000
      8          6           0        2.367537   -1.538646    0.000000
      9          6           0        1.274720    0.698257    0.000000
     10          6           0       -1.243518   -0.705304    0.000000
     11          6           0        0.000000    1.414389    0.000000
     12          6           0       -1.225602    0.728419    0.000000
     13          6           0        1.208084   -0.801918    0.000000
     14          6           0       -0.047075   -1.447942    0.000000
     15          1           0        0.970861    3.363538    0.000000
     16          1           0       -1.131895    4.688755    0.000000
     17          1           0       -3.290990    3.473543    0.000000
     18          1           0       -3.336570    0.981595    0.000000
     19          1           0       -2.193354   -1.221623    0.000000
     20          1           0       -1.028105   -3.380374    0.000000
     21          1           0        1.041588   -4.663436    0.000000
     22          1           0        3.238980   -3.490085    0.000000
     23          1           0        3.319858   -1.023283    0.000000
     24          1           0        1.857945    1.075893    0.859585
     25          1           0        1.857945    1.075893   -0.859585
 ---------------------------------------------------------------------
 Rotational constants (GHZ):           2.1364975           0.4445687           0.3687951
 Standard basis: 6-311++G(d,p) (5D, 7F)
 There are   299 symmetry adapted cartesian basis functions of A'  symmetry.
 There are   100 symmetry adapted cartesian basis functions of A"  symmetry.
 There are   285 symmetry adapted basis functions of A'  symmetry.
 There are   100 symmetry adapted basis functions of A"  symmetry.
   385 basis functions,   603 primitive gaussians,   399 cartesian basis functions
    47 alpha electrons       47 beta electrons
       nuclear repulsion energy       781.2498337463 Hartrees.
 NAtoms=   25 NActive=   25 NUniq=   24 SFac= 1.09D+00 NAtFMM=   60 NAOKFM=F Big=F
 Integral buffers will be    131072 words long.
 Regular integral format.
 Two-electron integral symmetry is turned on.
 Nuclear repulsion after empirical dispersion term =      781.2488546789 Hartrees.
 One-electron integrals computed using PRISM.
 NBasis=   385 RedAO= T EigKep=  1.13D-06  NBF=   285   100
 NBsUse=   379 1.00D-06 EigRej=  8.35D-07 NBFU=   279   100
 ExpMin= 3.60D-02 ExpMax= 4.56D+03 ExpMxC= 6.82D+02 IAcc=3 IRadAn=         5 AccDes= 0.00D+00
 Harris functional with IExCor= 1009 and IRadAn=       5 diagonalized for initial guess.
 HarFok:  IExCor= 1009 AccDes= 0.00D+00 IRadAn=         5 IDoV= 1 UseB2=F ITyADJ=14
 ICtDFT=  3500011 ScaDFX=  1.000000  1.000000  1.000000  1.000000
 FoFCou: FMM=F IPFlag=           0 FMFlag=      100000 FMFlg1=           0
         NFxFlg=           0 DoJE=T BraDBF=F KetDBF=T FulRan=T
         wScrn=  0.000000 ICntrl=       500 IOpCl=  0 I1Cent=   200000004 NGrid=           0
         NMat0=    1 NMatS0=      1 NMatT0=    0 NMatD0=    1 NMtDS0=    0 NMtDT0=    0
 Petite list used in FoFCou.
 Initial guess orbital symmetries:
       Occupied  (A') (A') (A') (A') (A') (A') (A') (A') (A') (A')
                 (A') (A') (A') (A') (A') (A') (A') (A') (A') (A')
                 (A') (A') (A') (A') (A') (A') (A') (A') (A') (A')
                 (A') (A') (A") (A') (A') (A') (A') (A') (A") (A')
                 (A") (A') (A') (A") (A") (A") (A")
       Virtual   (A") (A") (A") (A") (A") (A') (A') (A') (A') (A")
                 (A") (A') (A') (A') (A") (A') (A') (A') (A') (A")
                 (A') (A") (A') (A') (A') (A") (A') (A") (A') (A')
                 (A') (A') (A') (A') (A") (A') (A") (A') (A') (A')
                 (A") (A') (A') (A") (A') (A') (A') (A') (A') (A")
                 (A') (A') (A") (A") (A') (A') (A') (A") (A") (A')
                 (A') (A') (A') (A') (A') (A') (A") (A') (A') (A")
                 (A') (A') (A') (A') (A') (A') (A') (A') (A') (A')
                 (A') (A') (A') (A') (A') (A') (A') (A') (A') (A')
                 (A') (A') (A') (A') (A') (A') (A') (A") (A') (A")
                 (A') (A") (A') (A") (A') (A") (A') (A") (A") (A')
                 (A") (A') (A') (A') (A") (A') (A') (A") (A") (A')
                 (A") (A") (A') (A') (A') (A") (A') (A') (A') (A")
                 (A') (A') (A') (A') (A') (A') (A") (A') (A') (A')
                 (A') (A') (A') (A') (A') (A') (A') (A') (A') (A")
                 (A") (A') (A") (A") (A') (A') (A') (A") (A") (A')
                 (A") (A') (A") (A") (A") (A') (A') (A') (A') (A')
                 (A') (A") (A') (A') (A") (A') (A') (A') (A') (A")
                 (A') (A') (A') (A') (A") (A') (A") (A') (A") (A")
                 (A") (A') (A') (A") (A') (A') (A') (A") (A') (A')
                 (A") (A") (A") (A') (A') (A") (A') (A") (A') (A')
                 (A") (A") (A') (A") (A') (A") (A') (A') (A') (A")
                 (A') (A') (A') (A') (A") (A') (A') (A') (A") (A")
                 (A') (A') (A') (A") (A') (A') (A") (A') (A") (A')
                 (A") (A') (A') (A') (A') (A") (A') (A') (A') (A")
                 (A') (A') (A") (A') (A") (A') (A') (A") (A') (A')
                 (A') (A") (A') (A") (A') (A') (A') (A") (A') (A")
                 (A') (A') (A') (A') (A") (A') (A") (A') (A") (A')
                 (A") (A') (A") (A") (A") (A') (A') (A') (A') (A')
                 (A') (A') (A') (A') (A') (A') (A') (A') (A') (A')
                 (A') (A') (A') (A') (A") (A') (A') (A') (A') (A')
                 (A') (A') (A') (A') (A') (A') (A') (A') (A') (A')
                 (A') (A') (A') (A') (A') (A') (A') (A') (A') (A')
                 (A') (A')
 The electronic state of the initial guess is 1-A'.
 Requested convergence on RMS density matrix=1.00D-08 within 128 cycles.
 Requested convergence on MAX density matrix=1.00D-06.
 Requested convergence on             energy=1.00D-06.
 No special actions if energy rises.
 SCF Done:  E(RM062X) =  -539.753471384     A.U. after   15 cycles
            NFock= 15  Conv=0.99D-08     -V/T= 2.0041
 DoSCS=F DFT=T ScalE2(SS,OS)=  1.000000  1.000000
 ExpMin= 3.60D-02 ExpMax= 4.56D+03 ExpMxC= 6.82D+02 IAcc=3 IRadAn=         5 AccDes= 0.00D+00
 HarFok:  IExCor=  205 AccDes= 0.00D+00 IRadAn=         5 IDoV=-2 UseB2=F ITyADJ=14
 ICtDFT= 12500011 ScaDFX=  1.000000  1.000000  1.000000  1.000000
 Range of M.O.s used for correlation:    15   379
 NBasis=   385 NAE=    47 NBE=    47 NFC=    14 NFV=     0
 NROrb=    365 NOA=    33 NOB=    33 NVA=   332 NVB=   332

 **** Warning!!: The largest alpha MO coefficient is  0.14065171D+03

 Orbital symmetries:
       Occupied  (A') (A') (A') (A') (A') (A') (A') (A') (A') (A')
                 (A') (A') (A') (A') (A') (A') (A') (A') (A') (A')
                 (A') (A') (A') (A') (A') (A') (A') (A') (A') (A')
                 (A') (A') (A") (A') (A') (A') (A') (A") (A") (A')
                 (A') (A') (A') (A") (A") (A") (A")
       Virtual   (A") (A") (A") (A") (A') (A') (A') (A') (A") (A')
                 (A') (A") (A') (A') (A") (A') (A") (A') (A') (A')
                 (A") (A") (A') (A') (A') (A") (A') (A") (A') (A')
                 (A") (A') (A") (A') (A') (A') (A') (A') (A") (A')
                 (A") (A') (A') (A") (A") (A') (A") (A') (A") (A')
                 (A') (A') (A') (A') (A') (A") (A') (A') (A') (A')
                 (A') (A") (A') (A') (A') (A") (A') (A') (A') (A')
                 (A') (A') (A') (A') (A') (A') (A') (A') (A') (A')
                 (A') (A') (A') (A') (A') (A') (A') (A') (A') (A')
                 (A') (A') (A') (A') (A") (A') (A") (A") (A') (A")
                 (A') (A') (A') (A') (A") (A") (A') (A") (A") (A')
                 (A') (A') (A") (A') (A') (A") (A') (A") (A') (A")
                 (A") (A') (A") (A') (A') (A') (A") (A') (A') (A')
                 (A') (A') (A') (A') (A') (A') (A') (A') (A') (A')
                 (A') (A') (A') (A") (A') (A') (A') (A') (A') (A')
                 (A') (A') (A") (A') (A") (A') (A") (A") (A') (A")
                 (A") (A') (A') (A") (A") (A') (A") (A") (A') (A')
                 (A') (A') (A") (A') (A') (A") (A') (A') (A') (A")
                 (A') (A') (A') (A") (A') (A") (A') (A') (A") (A")
                 (A") (A') (A') (A") (A') (A") (A') (A') (A') (A')
                 (A") (A") (A") (A') (A") (A') (A') (A") (A') (A')
                 (A') (A") (A") (A') (A") (A') (A") (A') (A') (A")
                 (A') (A') (A') (A') (A") (A') (A') (A') (A") (A")
                 (A') (A') (A') (A") (A') (A') (A') (A") (A") (A')
                 (A") (A') (A') (A") (A') (A') (A') (A') (A') (A')
                 (A") (A') (A') (A') (A') (A") (A") (A") (A') (A')
                 (A') (A') (A') (A') (A') (A') (A") (A') (A') (A')
                 (A') (A") (A') (A") (A") (A") (A') (A") (A') (A")
                 (A') (A") (A") (A') (A") (A") (A') (A') (A') (A')
                 (A') (A') (A') (A') (A') (A') (A') (A') (A') (A')
                 (A') (A') (A') (A") (A') (A') (A') (A') (A') (A')
                 (A') (A') (A') (A') (A') (A') (A') (A') (A') (A')
                 (A') (A') (A') (A') (A') (A') (A') (A') (A') (A')
                 (A') (A')
     4 initial guesses have been made.
 Convergence on wavefunction:    0.001000000000000
 Iteration     1 Dimension     4 NMult     0 NNew      4
 CISAX will form     4 AO SS matrices at one time.
 Iteration     2 Dimension     6 NMult     4 NNew      2
 Iteration     3 Dimension     8 NMult     6 NNew      2
 Iteration     4 Dimension    10 NMult     8 NNew      2
 Iteration     5 Dimension    12 NMult    10 NNew      2
 Iteration     6 Dimension    14 NMult    12 NNew      2
 ***********************************************************************
 Excited states from <AA,BB:AA,BB> singles matrix:
 ***********************************************************************
 
 Ground to excited state transition densities written to RWF  633
 Ground to excited state transition electric dipole moments (Au):
       state          X           Y           Z        Dip. S.      Osc.
         1         0.4508      0.3537      0.0000      0.3284      0.0215
 Ground to excited state transition velocity dipole moments (Au):
       state          X           Y           Z        Dip. S.      Osc.
         1        -0.0522     -0.0349     -0.0000      0.0039      0.0268
 Ground to excited state transition magnetic dipole moments (Au):
       state          X           Y           Z
         1        -0.0000     -0.0000      0.2332
 Ground to excited state transition velocity quadrupole moments (Au):
       state          XX          YY          ZZ          XY          XZ          YZ
         1         0.1523      0.1143     -0.0082     -0.1423     -0.0000      0.0000
 <0|del|b> * <b|rxdel|0> + <0|del|b> * <b|delr+rdel|0>
 Rotatory Strengths (R) in cgs (10**-40 erg-esu-cm/Gauss)
       state          XX          YY          ZZ    R(velocity)    E-M Angle
         1        -0.0000     -0.0000      0.0000      0.0000       90.00
 1/2[<0|r|b>*<b|rxdel|0> + (<0|rxdel|b>*<b|r|0>)*]
 Rotatory Strengths (R) in cgs (10**-40 erg-esu-cm/Gauss)
       state          XX          YY          ZZ     R(length)
         1         0.0000      0.0000     -0.0000     -0.0000
  1/2[<0|del|b>*<b|r|0> + (<0|r|b>*<b|del|0>)*] (Au)
       state          X           Y           Z        Dip. S.   Osc.(frdel)
         1        -0.0236     -0.0123     -0.0000      0.0359      0.0239

 Excitation energies and oscillator strengths:
 
 Excited State   1:      Singlet-A'     2.6740 eV  463.66 nm  f=0.0215  <S**2>=0.000
      47 -> 48         0.70337
 This state for optimization and/or second-order correction.
 Total Energy, E(TD-HF/TD-DFT) =  -539.655202565    
 Copying the excited state density for this state as the 1-particle RhoCI density.
 SavETr:  write IOETrn=   770 NScale= 10 NData=  16 NLR=1 NState=    1 LETran=      28.

 **********************************************************************

            Population analysis using the SCF Density.

 **********************************************************************

 Orbital symmetries:
       Occupied  (A') (A') (A') (A') (A') (A') (A') (A') (A') (A')
                 (A') (A') (A') (A') (A') (A') (A') (A') (A') (A')
                 (A') (A') (A') (A') (A') (A') (A') (A') (A') (A')
                 (A') (A') (A") (A') (A') (A') (A') (A") (A") (A')
                 (A') (A') (A') (A") (A") (A") (A")
       Virtual   (A") (A") (A") (A") (A') (A') (A') (A') (A") (A')
                 (A') (A") (A') (A') (A") (A') (A") (A') (A') (A')
                 (A") (A") (A') (A') (A') (A") (A') (A") (A') (A')
                 (A") (A') (A") (A') (A') (A') (A') (A') (A") (A')
                 (A") (A') (A') (A") (A") (A') (A") (A') (A") (A')
                 (A') (A') (A') (A') (A') (A") (A') (A') (A') (A')
                 (A') (A") (A') (A') (A') (A") (A') (A') (A') (A')
                 (A') (A') (A') (A') (A') (A') (A') (A') (A') (A')
                 (A') (A') (A') (A') (A') (A') (A') (A') (A') (A')
                 (A') (A') (A') (A') (A") (A') (A") (A") (A') (A")
                 (A') (A') (A') (A') (A") (A") (A') (A") (A") (A')
                 (A') (A') (A") (A') (A') (A") (A') (A") (A') (A")
                 (A") (A') (A") (A') (A') (A') (A") (A') (A') (A')
                 (A') (A') (A') (A') (A') (A') (A') (A') (A') (A')
                 (A') (A') (A') (A") (A') (A') (A') (A') (A') (A')
                 (A') (A') (A") (A') (A") (A') (A") (A") (A') (A")
                 (A") (A') (A') (A") (A") (A') (A") (A") (A') (A')
                 (A') (A') (A") (A') (A') (A") (A') (A') (A') (A")
                 (A') (A') (A') (A") (A') (A") (A') (A') (A") (A")
                 (A") (A') (A') (A") (A') (A") (A') (A') (A') (A')
                 (A") (A") (A") (A') (A") (A') (A') (A") (A') (A')
                 (A') (A") (A") (A') (A") (A') (A") (A') (A') (A")
                 (A') (A') (A') (A') (A") (A') (A') (A') (A") (A")
                 (A') (A') (A') (A") (A') (A') (A') (A") (A") (A')
                 (A") (A') (A') (A") (A') (A') (A') (A') (A') (A')
                 (A") (A') (A') (A') (A') (A") (A") (A") (A') (A')
                 (A') (A') (A') (A') (A') (A') (A") (A') (A') (A')
                 (A') (A") (A') (A") (A") (A") (A') (A") (A') (A")
                 (A') (A") (A") (A') (A") (A") (A') (A') (A') (A')
                 (A') (A') (A') (A') (A') (A') (A') (A') (A') (A')
                 (A') (A') (A') (A") (A') (A') (A') (A') (A') (A')
                 (A') (A') (A') (A') (A') (A') (A') (A') (A') (A')
                 (A') (A') (A') (A') (A') (A') (A') (A') (A') (A')
                 (A') (A')
 The electronic state is 1-A'.
 Alpha  occ. eigenvalues --  -10.77623 -10.73564 -10.72926 -10.72757 -10.72069
 Alpha  occ. eigenvalues --  -10.71783 -10.71557 -10.71104 -10.71002 -10.70273
 Alpha  occ. eigenvalues --  -10.70065 -10.69877 -10.69704 -10.69523  -1.16531
 Alpha  occ. eigenvalues --   -1.12497  -1.06908  -1.05822  -1.01332  -1.00446
 Alpha  occ. eigenvalues --   -0.95573  -0.91019  -0.86459  -0.85884  -0.83810
 Alpha  occ. eigenvalues --   -0.78326  -0.76138  -0.74354  -0.69639  -0.69307
 Alpha  occ. eigenvalues --   -0.68418  -0.68129  -0.68089  -0.65104  -0.64349
 Alpha  occ. eigenvalues --   -0.62778  -0.61654  -0.60406  -0.59304  -0.59112
 Alpha  occ. eigenvalues --   -0.56936  -0.55345  -0.54545  -0.52424  -0.47223
 Alpha  occ. eigenvalues --   -0.46128  -0.43874
 Alpha virt. eigenvalues --   -0.26097  -0.14731  -0.14040  -0.12755  -0.11185
 Alpha virt. eigenvalues --   -0.10091  -0.09247  -0.07968  -0.07933  -0.07483
 Alpha virt. eigenvalues --   -0.07208  -0.07138  -0.05648  -0.05576  -0.05343
 Alpha virt. eigenvalues --   -0.03845  -0.03660  -0.03283  -0.03131  -0.02158
 Alpha virt. eigenvalues --   -0.01352  -0.00956   0.00187   0.00594   0.00648
 Alpha virt. eigenvalues --    0.01062   0.01505   0.01955   0.02157   0.02294
 Alpha virt. eigenvalues --    0.02449   0.02668   0.02767   0.03242   0.03451
 Alpha virt. eigenvalues --    0.04223   0.04478   0.04703   0.05034   0.05385
 Alpha virt. eigenvalues --    0.06024   0.06292   0.06578   0.07056   0.07264
 Alpha virt. eigenvalues --    0.07905   0.08136   0.08352   0.08584   0.08911
 Alpha virt. eigenvalues --    0.09445   0.09634   0.09963   0.10817   0.11003
 Alpha virt. eigenvalues --    0.11116   0.12097   0.12271   0.12750   0.13057
 Alpha virt. eigenvalues --    0.13430   0.13520   0.14028   0.14260   0.15991
 Alpha virt. eigenvalues --    0.16324   0.16402   0.17318   0.17505   0.17727
 Alpha virt. eigenvalues --    0.18100   0.19004   0.19300   0.19666   0.19980
 Alpha virt. eigenvalues --    0.21523   0.21590   0.22696   0.23124   0.23571
 Alpha virt. eigenvalues --    0.23941   0.24560   0.25366   0.26917   0.27625
 Alpha virt. eigenvalues --    0.28867   0.29306   0.29874   0.31375   0.35816
 Alpha virt. eigenvalues --    0.36356   0.38214   0.39290   0.41059   0.41327
 Alpha virt. eigenvalues --    0.41979   0.42036   0.42999   0.43658   0.44361
 Alpha virt. eigenvalues --    0.44983   0.45130   0.45819   0.46415   0.47877
 Alpha virt. eigenvalues --    0.48425   0.48778   0.49082   0.50506   0.51155
 Alpha virt. eigenvalues --    0.51198   0.52117   0.52124   0.52777   0.54081
 Alpha virt. eigenvalues --    0.54139   0.54693   0.55600   0.55885   0.57516
 Alpha virt. eigenvalues --    0.58232   0.58975   0.61504   0.62094   0.62483
 Alpha virt. eigenvalues --    0.63184   0.63476   0.64900   0.65260   0.67506
 Alpha virt. eigenvalues --    0.70237   0.70513   0.71191   0.72503   0.72909
 Alpha virt. eigenvalues --    0.75537   0.76095   0.76528   0.76755   0.77093
 Alpha virt. eigenvalues --    0.77899   0.78018   0.78275   0.79923   0.80373
 Alpha virt. eigenvalues --    0.81297   0.81537   0.82379   0.83038   0.85251
 Alpha virt. eigenvalues --    0.87061   0.88175   0.88181   0.89290   0.90484
 Alpha virt. eigenvalues --    0.91081   0.91506   0.93291   0.94591   0.96265
 Alpha virt. eigenvalues --    0.96936   1.00289   1.01354   1.01572   1.02745
 Alpha virt. eigenvalues --    1.03113   1.03368   1.04846   1.06123   1.08870
 Alpha virt. eigenvalues --    1.19632   1.22959   1.23918   1.24230   1.28965
 Alpha virt. eigenvalues --    1.29220   1.32346   1.34247   1.35727   1.35977
 Alpha virt. eigenvalues --    1.39193   1.39953   1.40954   1.42766   1.43503
 Alpha virt. eigenvalues --    1.43597   1.44268   1.46393   1.46393   1.46709
 Alpha virt. eigenvalues --    1.47598   1.48269   1.51818   1.53655   1.55407
 Alpha virt. eigenvalues --    1.55796   1.56453   1.56930   1.57875   1.61468
 Alpha virt. eigenvalues --    1.63037   1.63430   1.64126   1.66075   1.68321
 Alpha virt. eigenvalues --    1.68381   1.68736   1.69823   1.74429   1.76062
 Alpha virt. eigenvalues --    1.77104   1.77974   1.79588   1.79964   1.81390
 Alpha virt. eigenvalues --    1.82913   1.83194   1.83521   1.83639   1.84209
 Alpha virt. eigenvalues --    1.84781   1.85428   1.86460   1.88334   1.91415
 Alpha virt. eigenvalues --    1.92116   1.93911   1.95652   1.97724   1.98236
 Alpha virt. eigenvalues --    1.99720   2.02464   2.04691   2.07212   2.11703
 Alpha virt. eigenvalues --    2.12216   2.14275   2.15253   2.19055   2.21238
 Alpha virt. eigenvalues --    2.22730   2.28429   2.30359   2.34343   2.34835
 Alpha virt. eigenvalues --    2.36266   2.38661   2.39595   2.42335   2.44419
 Alpha virt. eigenvalues --    2.46045   2.46572   2.49355   2.52877   2.53703
 Alpha virt. eigenvalues --    2.54415   2.56788   2.57937   2.58369   2.59453
 Alpha virt. eigenvalues --    2.59909   2.61471   2.62061   2.63384   2.63737
 Alpha virt. eigenvalues --    2.64891   2.65062   2.65264   2.65459   2.67860
 Alpha virt. eigenvalues --    2.68778   2.70966   2.71506   2.73353   2.74795
 Alpha virt. eigenvalues --    2.76304   2.78442   2.79654   2.83002   2.83194
 Alpha virt. eigenvalues --    2.85013   2.86288   2.92101   2.97057   2.99463
 Alpha virt. eigenvalues --    3.00101   3.05049   3.09263   3.11243   3.14489
 Alpha virt. eigenvalues --    3.20884   3.22214   3.26490   3.28357   3.30401
 Alpha virt. eigenvalues --    3.32925   3.34820   3.43952   3.46397   3.46710
 Alpha virt. eigenvalues --    3.48258   3.50733   3.56624   3.65587   3.66532
 Alpha virt. eigenvalues --    3.68068   3.93907   3.93990   3.95292   3.96278
 Alpha virt. eigenvalues --    4.03997   4.06310   4.07821   4.12490   4.35326
 Alpha virt. eigenvalues --    4.61128   4.68738   4.71583  23.45200  23.60242
 Alpha virt. eigenvalues --   23.79933  23.84047  23.85361  23.89463  23.89940
 Alpha virt. eigenvalues --   23.94739  23.95119  23.97459  24.03370  24.07016
 Alpha virt. eigenvalues --   24.10795  24.14348
          Condensed to atoms (all electrons):
               1          2          3          4          5          6
     1  C    8.946566   0.099447  -0.443536   2.236666  -0.040857  -0.105110
     2  C    0.099447   7.114604   0.273638  -1.134534   0.004180  -0.013588
     3  C   -0.443536   0.273638   6.581032   0.794515  -0.129712   0.016974
     4  C    2.236666  -1.134534   0.794515  10.887187  -0.367725  -0.116632
     5  C   -0.040857   0.004180  -0.129712  -0.367725  11.164079   0.739625
     6  C   -0.105110  -0.013588   0.016974  -0.116632   0.739625   6.605614
     7  C   -0.013454   0.001143  -0.015300  -0.039903  -1.031036   0.421398
     8  C    0.400785  -0.023882  -0.085882  -0.032520   1.733657  -0.618173
     9  C   -1.233095  -0.768523   0.291311  -0.414481   0.005291   0.291259
    10  C   -1.376802   0.339268  -0.432426  -2.463083  -2.672306  -0.272806
    11  C    0.189774  -0.927195   1.075557  -0.603000  -1.441484  -0.222847
    12  C   -2.332862   1.550125  -1.408614  -1.444575  -0.577084  -0.130043
    13  C    0.149847  -0.265282  -0.125397  -1.580926   0.036019   0.923712
    14  C   -0.985123  -0.126942  -0.264767  -0.084489  -1.780167  -1.403975
    15  H    0.370146  -0.109156   0.000068   0.030812   0.004635   0.000971
    16  H   -0.018789   0.374802  -0.013171   0.009626  -0.001342  -0.000298
    17  H   -0.031705  -0.008292   0.367575  -0.065603   0.000495   0.000384
    18  H    0.053449   0.002288  -0.083991   0.451291   0.006575  -0.005191
    19  H   -0.050413  -0.007871   0.051337  -0.066423  -0.075218   0.050962
    20  H    0.007280   0.001996  -0.005000   0.005834   0.466762  -0.084277
    21  H   -0.001434  -0.000376   0.000414   0.000138  -0.070321   0.382615
    22  H    0.000997   0.000397  -0.000358  -0.001742   0.018022  -0.020027
    23  H    0.005362  -0.002924   0.001229   0.006659   0.023599  -0.002505
    24  H    0.025259   0.013047  -0.001991  -0.014538  -0.010174  -0.001072
    25  H    0.025259   0.013047  -0.001991  -0.014538  -0.010174  -0.001072
               7          8          9         10         11         12
     1  C   -0.013454   0.400785  -1.233095  -1.376802   0.189774  -2.332862
     2  C    0.001143  -0.023882  -0.768523   0.339268  -0.927195   1.550125
     3  C   -0.015300  -0.085882   0.291311  -0.432426   1.075557  -1.408614
     4  C   -0.039903  -0.032520  -0.414481  -2.463083  -0.603000  -1.444575
     5  C   -1.031036   1.733657   0.005291  -2.672306  -1.441484  -0.577084
     6  C    0.421398  -0.618173   0.291259  -0.272806  -0.222847  -0.130043
     7  C    7.204316   0.489571  -0.846198   0.160676  -0.229975  -0.264504
     8  C    0.489571   8.302260  -1.086541  -1.189093   0.276779  -1.171624
     9  C   -0.846198  -1.086541   9.615471   0.254611   1.463596  -1.685290
    10  C    0.160676  -1.189093   0.254611   9.147781  -0.514363   2.415467
    11  C   -0.229975   0.276779   1.463596  -0.514363  14.478621  -3.255172
    12  C   -0.264504  -1.171624  -1.685290   2.415467  -3.255172  15.606288
    13  C   -0.871348   0.399480   1.731610  -0.368044   1.086919  -4.792114
    14  C    1.166409  -1.884018  -2.200805   2.423192  -4.787124   3.076433
    15  H   -0.002374   0.006188   0.095486  -0.012109  -0.031711  -0.036030
    16  H    0.000324   0.000418   0.004174  -0.008116   0.026845  -0.032085
    17  H   -0.000417  -0.001208  -0.006887   0.021293  -0.030183   0.098891
    18  H    0.002112   0.006891  -0.026915   0.018403  -0.005968  -0.064890
    19  H   -0.007416  -0.042180   0.074918   0.421656   0.082610  -0.042086
    20  H    0.003298   0.046862  -0.021922   0.005386  -0.012366  -0.023635
    21  H   -0.022700  -0.019242  -0.004410   0.019471  -0.006301   0.005233
    22  H    0.381495  -0.019310   0.002324  -0.010590   0.003423  -0.010513
    23  H   -0.102779   0.365941   0.086443  -0.007097  -0.003547   0.007232
    24  H    0.015854   0.038963   0.357418   0.005606   0.003883  -0.061004
    25  H    0.015854   0.038963   0.357418   0.005606   0.003883  -0.061004
              13         14         15         16         17         18
     1  C    0.149847  -0.985123   0.370146  -0.018789  -0.031705   0.053449
     2  C   -0.265282  -0.126942  -0.109156   0.374802  -0.008292   0.002288
     3  C   -0.125397  -0.264767   0.000068  -0.013171   0.367575  -0.083991
     4  C   -1.580926  -0.084489   0.030812   0.009626  -0.065603   0.451291
     5  C    0.036019  -1.780167   0.004635  -0.001342   0.000495   0.006575
     6  C    0.923712  -1.403975   0.000971  -0.000298   0.000384  -0.005191
     7  C   -0.871348   1.166409  -0.002374   0.000324  -0.000417   0.002112
     8  C    0.399480  -1.884018   0.006188   0.000418  -0.001208   0.006891
     9  C    1.731610  -2.200805   0.095486   0.004174  -0.006887  -0.026915
    10  C   -0.368044   2.423192  -0.012109  -0.008116   0.021293   0.018403
    11  C    1.086919  -4.787124  -0.031711   0.026845  -0.030183  -0.005968
    12  C   -4.792114   3.076433  -0.036030  -0.032085   0.098891  -0.064890
    13  C   14.541982  -4.298176   0.006612   0.002579  -0.006327  -0.012120
    14  C   -4.298176  16.628931   0.005837  -0.007668   0.005409  -0.005136
    15  H    0.006612   0.005837   0.442480  -0.008805   0.001235   0.000109
    16  H    0.002579  -0.007668  -0.008805   0.422585  -0.005993   0.001801
    17  H   -0.006327   0.005409   0.001235  -0.005993   0.422707  -0.009707
    18  H   -0.012120  -0.005136   0.000109   0.001801  -0.009707   0.458360
    19  H    0.075766  -0.090048   0.000216  -0.000489   0.001139  -0.006939
    20  H   -0.006246  -0.045996  -0.000099   0.000010  -0.000118   0.001265
    21  H   -0.023193   0.082937   0.000011  -0.000007   0.000010  -0.000170
    22  H    0.025756  -0.032521  -0.000129   0.000007  -0.000007   0.000021
    23  H   -0.030949  -0.012009   0.000572  -0.000124   0.000016  -0.000128
    24  H    0.023140  -0.059170  -0.000743   0.000638  -0.000151   0.000232
    25  H    0.023140  -0.059170  -0.000743   0.000638  -0.000151   0.000232
              19         20         21         22         23         24
     1  C   -0.050413   0.007280  -0.001434   0.000997   0.005362   0.025259
     2  C   -0.007871   0.001996  -0.000376   0.000397  -0.002924   0.013047
     3  C    0.051337  -0.005000   0.000414  -0.000358   0.001229  -0.001991
     4  C   -0.066423   0.005834   0.000138  -0.001742   0.006659  -0.014538
     5  C   -0.075218   0.466762  -0.070321   0.018022   0.023599  -0.010174
     6  C    0.050962  -0.084277   0.382615  -0.020027  -0.002505  -0.001072
     7  C   -0.007416   0.003298  -0.022700   0.381495  -0.102779   0.015854
     8  C   -0.042180   0.046862  -0.019242  -0.019310   0.365941   0.038963
     9  C    0.074918  -0.021922  -0.004410   0.002324   0.086443   0.357418
    10  C    0.421656   0.005386   0.019471  -0.010590  -0.007097   0.005606
    11  C    0.082610  -0.012366  -0.006301   0.003423  -0.003547   0.003883
    12  C   -0.042086  -0.023635   0.005233  -0.010513   0.007232  -0.061004
    13  C    0.075766  -0.006246  -0.023193   0.025756  -0.030949   0.023140
    14  C   -0.090048  -0.045996   0.082937  -0.032521  -0.012009  -0.059170
    15  H    0.000216  -0.000099   0.000011  -0.000129   0.000572  -0.000743
    16  H   -0.000489   0.000010  -0.000007   0.000007  -0.000124   0.000638
    17  H    0.001139  -0.000118   0.000010  -0.000007   0.000016  -0.000151
    18  H   -0.006939   0.001265  -0.000170   0.000021  -0.000128   0.000232
    19  H    0.443608  -0.005652   0.001713  -0.000591   0.000404   0.000605
    20  H   -0.005652   0.449304  -0.010802   0.002046   0.000211   0.000132
    21  H    0.001713  -0.010802   0.422318  -0.007106   0.001661  -0.000131
    22  H   -0.000591   0.002046  -0.007106   0.415807  -0.008944   0.000615
    23  H    0.000404   0.000211   0.001661  -0.008944   0.435978  -0.001044
    24  H    0.000605   0.000132  -0.000131   0.000615  -0.001044   0.493222
    25  H    0.000605   0.000132  -0.000131   0.000615  -0.001044  -0.079253
              25
     1  C    0.025259
     2  C    0.013047
     3  C   -0.001991
     4  C   -0.014538
     5  C   -0.010174
     6  C   -0.001072
     7  C    0.015854
     8  C    0.038963
     9  C    0.357418
    10  C    0.005606
    11  C    0.003883
    12  C   -0.061004
    13  C    0.023140
    14  C   -0.059170
    15  H   -0.000743
    16  H    0.000638
    17  H   -0.000151
    18  H    0.000232
    19  H    0.000605
    20  H    0.000132
    21  H   -0.000131
    22  H    0.000615
    23  H   -0.001044
    24  H   -0.079253
    25  H    0.493222
 Mulliken charges:
               1
     1  C    0.122343
     2  C   -0.399415
     3  C   -0.441512
     4  C    0.021987
     5  C    0.004661
     6  C   -0.435897
     7  C   -0.415045
     8  C    0.066914
     9  C   -0.336265
    10  C    0.088419
    11  C   -0.620652
    12  C    0.633459
    13  C   -0.646439
    14  C    0.738158
    15  H    0.236519
    16  H    0.252437
    17  H    0.247596
    18  H    0.218125
    19  H    0.189789
    20  H    0.225595
    21  H    0.249804
    22  H    0.260312
    23  H    0.237786
    24  H    0.250660
    25  H    0.250660
 Sum of Mulliken charges =   1.00000
 Mulliken charges with hydrogens summed into heavy atoms:
               1
     1  C    0.358863
     2  C   -0.146977
     3  C   -0.193916
     4  C    0.240112
     5  C    0.230256
     6  C   -0.186093
     7  C   -0.154733
     8  C    0.304701
     9  C    0.165055
    10  C    0.278209
    11  C   -0.620652
    12  C    0.633459
    13  C   -0.646439
    14  C    0.738158
 Electronic spatial extent (au):  <R**2>=           2856.1197
 Charge=              1.0000 electrons
 Dipole moment (field-independent basis, Debye):
    X=              0.2097    Y=             -0.7584    Z=              0.0000  Tot=              0.7869
 Quadrupole moment (field-independent basis, Debye-Ang):
   XX=            -51.1089   YY=            -36.2267   ZZ=            -84.1327
   XY=            -10.1925   XZ=              0.0000   YZ=              0.0000
 Traceless Quadrupole moment (field-independent basis, Debye-Ang):
   XX=              6.0472   YY=             20.9294   ZZ=            -26.9766
   XY=            -10.1925   XZ=              0.0000   YZ=              0.0000
 Octapole moment (field-independent basis, Debye-Ang**2):
  XXX=              2.6927  YYY=             -0.6289  ZZZ=              0.0000  XYY=              1.5120
  XXY=             -7.1737  XXZ=             -0.0000  XZZ=              3.3547  YZZ=              0.2676
  YYZ=             -0.0000  XYZ=              0.0000
 Hexadecapole moment (field-independent basis, Debye-Ang**3):
 XXXX=           -993.5886 YYYY=          -1844.0755 ZZZZ=            -99.3181 XXXY=            349.4984
 XXXZ=              0.0000 YYYX=            275.8925 YYYZ=             -0.0000 ZZZX=              0.0000
 ZZZY=             -0.0000 XXYY=           -454.4750 XXZZ=           -242.4033 YYZZ=           -493.9827
 XXYZ=              0.0000 YYXZ=              0.0000 ZZXY=            183.5179
 N-N= 7.812488546789D+02 E-N=-2.798851359390D+03  KE= 5.375312349669D+02
 Symmetry A'   KE= 5.228787086023D+02
 Symmetry A"   KE= 1.465252636454D+01
 Unable to Open any file for archive entry.
 1\1\GINC-GADI-CPU-CLX-2072\SP\RM062X TD-FC\6-311++G(d,p)\C14H11(1+)\TS
 1578\28-Jul-2022\0\\#n M062X/6-311++G(d,p) TD(NStates=1) EmpiricalDisp
 ersion=GD3 SP\\SP_-14\\1,1\C,0,0.,2.511855,1.360031\C,0,0.,3.729108,0.
 683589\C,0,0.,3.697261,-0.69103\C,0,0.,2.434356,-1.395138\C,0,0.,-2.49
 1956,-1.419938\C,0,0.,-3.670461,-0.73663\C,0,0.,-3.673908,0.660389\C,0
 ,0.,-2.473455,1.360831\C,0,0.,0.0144,1.453369\C,0,0.,-0.0342,-1.429189
 \C,0,0.,1.247455,0.667665\C,0,0.,1.221271,-0.736604\C,0,0.,-1.276655,0
 .686465\C,0,0.,-1.253671,-0.725004\H,0,0.,2.507471,2.443647\H,0,0.,4.6
 68353,1.215489\H,0,0.,4.616262,-1.261549\H,0,0.,2.44095,-2.478059\H,0,
 0.,-0.041,-2.510266\H,0,0.,-2.49415,-2.502059\H,0,0.,-4.602262,-1.2831
 49\H,0,0.,-4.605153,1.207889\H,0,0.,-2.468671,2.443647\H,0,-0.859585,0
 .072,2.145787\H,0,0.859585,0.072,2.145787\\Version=ES64L-G16RevC.01\St
 ate=1-A'\HF=-539.7534714\RMSD=9.911e-09\PG=CS [SG(C14H9),X(H2)]\\@
 The archive entry for this job was punched.


 EVERYTHING'S GOT A MORAL, IF ONLY YOU CAN FIND IT.

                                    -- LEWIS CARROL, ALICE IN WONDERLAND
 Job cpu time:       0 days  0 hours 52 minutes 39.6 seconds.
 Elapsed time:       0 days  0 hours  1 minutes  6.0 seconds.
 File lengths (MBytes):  RWF=    460 Int=      0 D2E=      0 Chk=     15 Scr=      1
 Normal termination of Gaussian 16 at Thu Jul 28 13:11:49 2022.
