 Entering Gaussian System, Link 0=g16
 Initial command:
 /apps/gaussian/g16c01/g16/l1.exe "/jobfs/53005151.gadi-pbs/Gau-4189028.inp" -scrdir="/jobfs/53005151.gadi-pbs/"
 Entering Link 1 = /apps/gaussian/g16c01/g16/l1.exe PID=   4189029.
  
 Copyright (c) 1988-2019, Gaussian, Inc.  All Rights Reserved.
  
 This is part of the Gaussian(R) 16 program.  It is based on
 the Gaussian(R) 09 system (copyright 2009, Gaussian, Inc.),
 the Gaussian(R) 03 system (copyright 2003, Gaussian, Inc.),
 the Gaussian(R) 98 system (copyright 1998, Gaussian, Inc.),
 the Gaussian(R) 94 system (copyright 1995, Gaussian, Inc.),
 the Gaussian 92(TM) system (copyright 1992, Gaussian, Inc.),
 the Gaussian 90(TM) system (copyright 1990, Gaussian, Inc.),
 the Gaussian 88(TM) system (copyright 1988, Gaussian, Inc.),
 the Gaussian 86(TM) system (copyright 1986, Carnegie Mellon
 University), and the Gaussian 82(TM) system (copyright 1983,
 Carnegie Mellon University). Gaussian is a federally registered
 trademark of Gaussian, Inc.
  
 This software contains proprietary and confidential information,
 including trade secrets, belonging to Gaussian, Inc.
  
 This software is provided under written license and may be
 used, copied, transmitted, or stored only in accord with that
 written license.
  
 The following legend is applicable only to US Government
 contracts under FAR:
  
                    RESTRICTED RIGHTS LEGEND
  
 Use, reproduction and disclosure by the US Government is
 subject to restrictions as set forth in subparagraphs (a)
 and (c) of the Commercial Computer Software - Restricted
 Rights clause in FAR 52.227-19.
  
 Gaussian, Inc.
 340 Quinnipiac St., Bldg. 40, Wallingford CT 06492
  
  
 ---------------------------------------------------------------
 Warning -- This program may not be used in any manner that
 competes with the business of Gaussian, Inc. or will provide
 assistance to any competitor of Gaussian, Inc.  The licensee
 of this program is prohibited from giving any competitor of
 Gaussian, Inc. access to this program.  By using this program,
 the user acknowledges that Gaussian, Inc. is engaged in the
 business of creating and licensing software in the field of
 computational chemistry and represents and warrants to the
 licensee that it is not a competitor of Gaussian, Inc. and that
 it will not use this program in any manner prohibited above.
 ---------------------------------------------------------------
  

 Cite this work as:
 Gaussian 16, Revision C.01,
 M. J. Frisch, G. W. Trucks, H. B. Schlegel, G. E. Scuseria, 
 M. A. Robb, J. R. Cheeseman, G. Scalmani, V. Barone, 
 G. A. Petersson, H. Nakatsuji, X. Li, M. Caricato, A. V. Marenich, 
 J. Bloino, B. G. Janesko, R. Gomperts, B. Mennucci, H. P. Hratchian, 
 J. V. Ortiz, A. F. Izmaylov, J. L. Sonnenberg, D. Williams-Young, 
 F. Ding, F. Lipparini, F. Egidi, J. Goings, B. Peng, A. Petrone, 
 T. Henderson, D. Ranasinghe, V. G. Zakrzewski, J. Gao, N. Rega, 
 G. Zheng, W. Liang, M. Hada, M. Ehara, K. Toyota, R. Fukuda, 
 J. Hasegawa, M. Ishida, T. Nakajima, Y. Honda, O. Kitao, H. Nakai, 
 T. Vreven, K. Throssell, J. A. Montgomery, Jr., J. E. Peralta, 
 F. Ogliaro, M. J. Bearpark, J. J. Heyd, E. N. Brothers, K. N. Kudin, 
 V. N. Staroverov, T. A. Keith, R. Kobayashi, J. Normand, 
 K. Raghavachari, A. P. Rendell, J. C. Burant, S. S. Iyengar, 
 J. Tomasi, M. Cossi, J. M. Millam, M. Klene, C. Adamo, R. Cammi, 
 J. W. Ochterski, R. L. Martin, K. Morokuma, O. Farkas, 
 J. B. Foresman, and D. J. Fox, Gaussian, Inc., Wallingford CT, 2019.
 
 ******************************************
 Gaussian 16:  ES64L-G16RevC.01  3-Jul-2019
                28-Jul-2022 
 ******************************************
 %NProcShared=48
 Will use up to   48 processors via shared memory.
 %mem = 190GB
 ---------------------------------------------------------------
 #n M062X/6-311++G(d,p) TD(NStates=1) EmpiricalDispersion=GD3 SP
 ---------------------------------------------------------------
 1/38=1,172=1/1;
 2/12=2,17=6,18=5,40=1/2;
 3/5=4,6=6,7=1111,11=9,25=1,30=1,74=-55,124=31/1,2,3,8;
 4//1;
 5/5=2,38=5/2;
 8/6=1,10=2,108=1/1;
 9/41=1,42=1,70=2/14;
 6/7=2,8=2,9=2,10=2/1;
 99/5=1,9=1/99;
 ----
 SP_6
 ----
 Symbolic Z-matrix:
 Charge =  1 Multiplicity = 1
 C                     0.        2.48146   1.36023 
 C                     0.        3.69191   0.66739 
 C                     0.        3.67886  -0.72323 
 C                     0.        2.47476  -1.41174 
 C                     0.       -2.45156  -1.40334 
 C                     0.       -3.68886  -0.70443 
 C                     0.       -3.71111   0.67659 
 C                     0.       -2.50386   1.36063 
 C                     0.       -0.0032    1.45337 
 C                     0.        0.0206   -1.42919 
 C                     0.        1.26646   0.68667 
 C                     0.        1.24107  -0.735 
 C                     0.       -1.25765   0.66747 
 C                     0.       -1.23387  -0.7266 
 H                     0.        2.49127   2.44365 
 H                     0.        4.62915   1.20449 
 H                     0.        4.61146  -1.26955 
 H                     0.        2.46595  -2.49446 
 H                     0.        0.012    -2.51027 
 H                     0.       -2.46915  -2.48566 
 H                     0.       -4.60706  -1.27515 
 H                     0.       -4.64435   1.21889 
 H                     0.       -2.48487   2.44365 
 H                    -0.85959  -0.0212    2.14579 
 H                     0.85959  -0.0212    2.14579 
 
                          Input orientation:                          
 ---------------------------------------------------------------------
 Center     Atomic      Atomic             Coordinates (Angstroms)
 Number     Number       Type             X           Y           Z
 ---------------------------------------------------------------------
      1          6           0        0.000000    2.481455    1.360231
      2          6           0        0.000000    3.691908    0.667389
      3          6           0        0.000000    3.678861   -0.723230
      4          6           0        0.000000    2.474756   -1.411738
      5          6           0        0.000000   -2.451556   -1.403338
      6          6           0        0.000000   -3.688861   -0.704430
      7          6           0        0.000000   -3.711108    0.676589
      8          6           0        0.000000   -2.503855    1.360631
      9          6           0        0.000000   -0.003200    1.453369
     10          6           0        0.000000    0.020600   -1.429189
     11          6           0        0.000000    1.266455    0.686665
     12          6           0        0.000000    1.241071   -0.735004
     13          6           0        0.000000   -1.257655    0.667465
     14          6           0        0.000000   -1.233871   -0.726604
     15          1           0        0.000000    2.491271    2.443647
     16          1           0        0.000000    4.629153    1.204489
     17          1           0        0.000000    4.611462   -1.269549
     18          1           0        0.000000    2.465950   -2.494459
     19          1           0        0.000000    0.012000   -2.510266
     20          1           0        0.000000   -2.469150   -2.485659
     21          1           0        0.000000   -4.607062   -1.275149
     22          1           0        0.000000   -4.644353    1.218889
     23          1           0        0.000000   -2.484871    2.443647
     24          1           0       -0.859585   -0.021200    2.145787
     25          1           0        0.859585   -0.021200    2.145787
 ---------------------------------------------------------------------
                    Distance matrix (angstroms):
                    1          2          3          4          5
     1  C    0.000000
     2  C    1.394714   0.000000
     3  C    2.403038   1.390680   0.000000
     4  C    2.771977   2.409197   1.387052   0.000000
     5  C    5.654371   6.483059   6.168027   4.926319   0.000000
     6  C    6.506583   7.507172   7.367746   6.204068   1.421055
     7  C    6.230185   7.403022   7.521379   6.528861   2.431577
     8  C    4.985310   6.234426   6.524450   5.698473   2.764464
     9  C    2.486400   3.777775   4.277284   3.788021   3.762343
    10  C    3.719768   4.227782   3.725755   2.454218   2.472291
    11  C    1.389214   2.425530   2.794192   2.421422   4.265175
    12  C    2.434864   2.823705   2.437818   1.407106   3.752621
    13  C    3.802745   4.949563   5.128667   4.272467   2.390319
    14  C    4.261282   5.119230   4.912733   3.771382   1.393099
    15  H    1.083460   2.143973   3.382230   3.855420   6.263452
    16  H    2.153337   1.080234   2.149222   3.389111   7.545674
    17  H    3.384180   2.144133   1.080837   2.141432   7.064285
    18  H    3.854721   3.391203   2.146720   1.082757   5.037103
    19  H    4.591182   4.862018   4.079138   2.696652   2.700814
    20  H    6.268920   6.921008   6.395639   5.059201   1.082464
    21  H    7.562559   8.523283   8.304284   7.083135   2.159314
    22  H    7.127210   8.354484   8.546796   7.589592   3.418250
    23  H    5.083127   6.427106   6.929697   6.281870   3.847129
    24  H    2.760302   4.087997   4.760315   4.429974   4.386548
    25  H    2.760302   4.087997   4.760315   4.429974   4.386548
                    6          7          8          9         10
     6  C    0.000000
     7  C    1.381198   0.000000
     8  C    2.380907   1.387578   0.000000
     9  C    4.270854   3.788399   2.502374   0.000000
    10  C    3.779600   4.284851   3.762442   2.882656   0.000000
    11  C    5.146873   4.977573   3.830074   1.483192   2.455401
    12  C    4.930027   5.149434   4.291405   2.517377   1.404081
    13  C    2.791569   2.453470   1.426006   1.480305   2.455584
    14  C    2.455090   2.847043   2.443237   2.503364   1.437819
    15  H    6.935735   6.449186   5.111185   2.683847   4.593808
    16  H    8.534244   8.356951   7.134717   4.639034   5.308015
    17  H    8.319539   8.547083   7.585880   5.358114   4.593637
    18  H    6.409829   6.943457   6.289728   4.656399   2.667309
    19  H    4.117938   4.900773   4.616641   3.963664   1.081111
    20  H    2.158813   3.397392   3.846447   4.647241   2.704623
    21  H    1.081117   2.147560   3.372064   5.351669   4.630225
    22  H    2.147585   1.079368   2.145186   4.647072   5.364150
    23  H    3.370457   2.150849   1.083182   2.671955   4.612618
    24  H    4.723808   4.063601   2.742067   1.103926   3.677103
    25  H    4.723808   4.063601   2.742067   1.103926   3.677103
                   11         12         13         14         15
    11  C    0.000000
    12  C    1.421896   0.000000
    13  C    2.524183   2.865406   0.000000
    14  C    2.872100   2.474956   1.394272   0.000000
    15  H    2.141766   3.415673   4.148406   4.891541   0.000000
    16  H    3.402334   3.903938   5.911252   6.172858   2.471043
    17  H    3.875028   3.412517   6.180498   5.870495   4.275867
    18  H    3.399756   2.143831   4.884977   4.100486   4.938171
    19  H    3.434243   2.159206   3.421987   2.175694   5.539679
    20  H    4.900855   4.102503   3.377856   2.149462   6.993128
    21  H    6.192489   5.873024   3.871986   3.417502   8.013475
    22  H    5.934721   6.201283   3.431296   3.926364   7.239970
    23  H    4.142395   4.897598   2.158908   3.408151   4.976142
    24  H    2.127435   3.260548   2.110247   3.234206   2.672100
    25  H    2.127435   3.260548   2.110247   3.234206   2.672100
                   16         17         18         19         20
    16  H    0.000000
    17  H    2.474101   0.000000
    18  H    4.285051   2.470552   0.000000
    19  H    5.926003   4.763867   2.454001   0.000000
    20  H    8.000194   7.184288   4.935108   2.481272   0.000000
    21  H    9.563277   9.218526   7.177340   4.781344   2.456828
    22  H    9.273517   9.584489   8.021556   5.965586   4.295950
    23  H    7.221139   8.009105   6.992533   5.547578   4.929331
    24  H    4.821899   5.819361   5.334481   4.734851   5.308638
    25  H    4.821899   5.819361   5.334481   4.734851   5.308638
                   21         22         23         24         25
    21  H    0.000000
    22  H    2.494317   0.000000
    23  H    4.281721   2.482619   0.000000
    24  H    5.785484   4.792867   2.626268   0.000000
    25  H    5.785484   4.792867   2.626268   1.719170   0.000000
 Stoichiometry    C14H11(1+)
 Framework group  CS[SG(C14H9),X(H2)]
 Deg. of freedom    46
 Full point group                 CS      NOp   2
 Largest Abelian subgroup         CS      NOp   2
 Largest concise Abelian subgroup CS      NOp   2
                         Standard orientation:                         
 ---------------------------------------------------------------------
 Center     Atomic      Atomic             Coordinates (Angstroms)
 Number     Number       Type             X           Y           Z
 ---------------------------------------------------------------------
      1          6           0       -2.364871   -1.554236    0.000000
      2          6           0       -2.320366   -2.948239    0.000000
      3          6           0       -1.085922   -3.588659    0.000000
      4          6           0        0.086738   -2.847861    0.000000
      5          6           0        2.388852    1.507468    0.000000
      6          6           0        2.351577    2.928034    0.000000
      7          6           0        1.142158    3.595128    0.000000
      8          6           0       -0.028032    2.849456    0.000000
      9          6           0       -1.282294    0.684115    0.000000
     10          6           0        1.252700   -0.688297    0.000000
     11          6           0       -1.200302   -0.796809    0.000000
     12          6           0        0.067353   -1.440889    0.000000
     13          6           0        0.000000    1.423725    0.000000
     14          6           0        1.220225    0.749155    0.000000
     15          1           0       -3.326450   -1.054983    0.000000
     16          1           0       -3.234180   -3.524303    0.000000
     17          1           0       -1.040578   -4.668545    0.000000
     18          1           0        1.047230   -3.347680    0.000000
     19          1           0        2.211642   -1.187526    0.000000
     20          1           0        3.353110    1.015599    0.000000
     21          1           0        3.286158    3.471515    0.000000
     22          1           0        1.100667    4.673698    0.000000
     23          1           0       -0.993556    3.340423    0.000000
     24          1           0       -1.885466    1.024630    0.859585
     25          1           0       -1.885466    1.024630   -0.859585
 ---------------------------------------------------------------------
 Rotational constants (GHZ):           2.1362498           0.4446171           0.3688210
 Standard basis: 6-311++G(d,p) (5D, 7F)
 There are   299 symmetry adapted cartesian basis functions of A'  symmetry.
 There are   100 symmetry adapted cartesian basis functions of A"  symmetry.
 There are   285 symmetry adapted basis functions of A'  symmetry.
 There are   100 symmetry adapted basis functions of A"  symmetry.
   385 basis functions,   603 primitive gaussians,   399 cartesian basis functions
    47 alpha electrons       47 beta electrons
       nuclear repulsion energy       781.2115233173 Hartrees.
 NAtoms=   25 NActive=   25 NUniq=   24 SFac= 1.09D+00 NAtFMM=   60 NAOKFM=F Big=F
 Integral buffers will be    131072 words long.
 Regular integral format.
 Two-electron integral symmetry is turned on.
 Nuclear repulsion after empirical dispersion term =      781.2105438638 Hartrees.
 One-electron integrals computed using PRISM.
 NBasis=   385 RedAO= T EigKep=  1.12D-06  NBF=   285   100
 NBsUse=   379 1.00D-06 EigRej=  8.39D-07 NBFU=   279   100
 ExpMin= 3.60D-02 ExpMax= 4.56D+03 ExpMxC= 6.82D+02 IAcc=3 IRadAn=         5 AccDes= 0.00D+00
 Harris functional with IExCor= 1009 and IRadAn=       5 diagonalized for initial guess.
 HarFok:  IExCor= 1009 AccDes= 0.00D+00 IRadAn=         5 IDoV= 1 UseB2=F ITyADJ=14
 ICtDFT=  3500011 ScaDFX=  1.000000  1.000000  1.000000  1.000000
 FoFCou: FMM=F IPFlag=           0 FMFlag=      100000 FMFlg1=           0
         NFxFlg=           0 DoJE=T BraDBF=F KetDBF=T FulRan=T
         wScrn=  0.000000 ICntrl=       500 IOpCl=  0 I1Cent=   200000004 NGrid=           0
         NMat0=    1 NMatS0=      1 NMatT0=    0 NMatD0=    1 NMtDS0=    0 NMtDT0=    0
 Petite list used in FoFCou.
 Initial guess orbital symmetries:
       Occupied  (A') (A') (A') (A') (A') (A') (A') (A') (A') (A')
                 (A') (A') (A') (A') (A') (A') (A') (A') (A') (A')
                 (A') (A') (A') (A') (A') (A') (A') (A') (A') (A')
                 (A') (A') (A") (A') (A') (A') (A') (A') (A') (A")
                 (A") (A') (A') (A") (A") (A") (A")
       Virtual   (A") (A") (A") (A") (A") (A') (A') (A') (A') (A")
                 (A") (A') (A') (A') (A") (A') (A') (A') (A') (A")
                 (A') (A") (A') (A') (A') (A") (A') (A") (A') (A')
                 (A') (A') (A') (A") (A') (A') (A") (A') (A') (A')
                 (A") (A') (A') (A") (A') (A') (A') (A') (A') (A")
                 (A') (A') (A") (A") (A') (A') (A') (A") (A") (A')
                 (A') (A') (A') (A') (A') (A') (A") (A') (A') (A")
                 (A') (A') (A') (A') (A') (A') (A') (A') (A') (A')
                 (A') (A') (A') (A') (A') (A') (A') (A') (A') (A')
                 (A') (A') (A') (A') (A') (A') (A') (A") (A') (A")
                 (A') (A') (A") (A") (A') (A") (A') (A") (A') (A")
                 (A") (A') (A') (A') (A") (A') (A') (A") (A") (A')
                 (A") (A") (A') (A') (A') (A") (A') (A') (A') (A")
                 (A') (A') (A') (A') (A') (A') (A") (A') (A') (A')
                 (A') (A') (A') (A') (A') (A') (A') (A') (A') (A")
                 (A") (A') (A") (A") (A') (A') (A') (A") (A") (A')
                 (A") (A') (A") (A") (A") (A') (A') (A') (A') (A')
                 (A') (A") (A") (A') (A') (A') (A') (A') (A') (A")
                 (A') (A') (A') (A') (A') (A") (A") (A') (A") (A")
                 (A') (A") (A') (A") (A') (A') (A') (A") (A') (A')
                 (A") (A") (A") (A') (A') (A") (A') (A") (A') (A')
                 (A") (A") (A') (A") (A') (A") (A') (A') (A') (A")
                 (A') (A') (A') (A') (A") (A') (A') (A') (A") (A")
                 (A') (A') (A') (A") (A') (A') (A") (A') (A") (A')
                 (A") (A') (A') (A') (A') (A") (A') (A') (A') (A")
                 (A') (A') (A") (A') (A") (A') (A') (A") (A') (A')
                 (A') (A") (A') (A") (A') (A') (A') (A") (A') (A")
                 (A') (A') (A') (A') (A") (A') (A") (A') (A") (A')
                 (A") (A') (A") (A") (A") (A') (A') (A') (A') (A')
                 (A') (A') (A') (A') (A') (A') (A') (A') (A') (A')
                 (A') (A') (A') (A') (A') (A") (A') (A') (A') (A')
                 (A') (A') (A') (A') (A') (A') (A') (A') (A') (A')
                 (A') (A') (A') (A') (A') (A') (A') (A') (A') (A')
                 (A') (A')
 The electronic state of the initial guess is 1-A'.
 Requested convergence on RMS density matrix=1.00D-08 within 128 cycles.
 Requested convergence on MAX density matrix=1.00D-06.
 Requested convergence on             energy=1.00D-06.
 No special actions if energy rises.
 SCF Done:  E(RM062X) =  -539.758648085     A.U. after   15 cycles
            NFock= 15  Conv=0.69D-08     -V/T= 2.0042
 DoSCS=F DFT=T ScalE2(SS,OS)=  1.000000  1.000000
 ExpMin= 3.60D-02 ExpMax= 4.56D+03 ExpMxC= 6.82D+02 IAcc=3 IRadAn=         5 AccDes= 0.00D+00
 HarFok:  IExCor=  205 AccDes= 0.00D+00 IRadAn=         5 IDoV=-2 UseB2=F ITyADJ=14
 ICtDFT= 12500011 ScaDFX=  1.000000  1.000000  1.000000  1.000000
 Range of M.O.s used for correlation:    15   379
 NBasis=   385 NAE=    47 NBE=    47 NFC=    14 NFV=     0
 NROrb=    365 NOA=    33 NOB=    33 NVA=   332 NVB=   332

 **** Warning!!: The largest alpha MO coefficient is  0.13446348D+03

 Orbital symmetries:
       Occupied  (A') (A') (A') (A') (A') (A') (A') (A') (A') (A')
                 (A') (A') (A') (A') (A') (A') (A') (A') (A') (A')
                 (A') (A') (A') (A') (A') (A') (A') (A') (A') (A')
                 (A') (A') (A") (A') (A') (A') (A') (A") (A") (A')
                 (A') (A') (A') (A") (A") (A") (A")
       Virtual   (A") (A") (A") (A") (A') (A') (A') (A') (A") (A')
                 (A') (A") (A') (A') (A") (A') (A") (A') (A') (A')
                 (A") (A") (A') (A') (A') (A") (A') (A") (A') (A')
                 (A") (A') (A") (A') (A') (A') (A') (A') (A") (A')
                 (A") (A') (A') (A") (A") (A') (A") (A') (A") (A')
                 (A') (A') (A') (A') (A') (A") (A') (A') (A') (A')
                 (A') (A") (A') (A') (A') (A") (A') (A') (A') (A')
                 (A') (A') (A') (A') (A') (A') (A') (A') (A') (A')
                 (A') (A') (A') (A') (A') (A') (A') (A') (A') (A')
                 (A') (A') (A') (A') (A") (A') (A") (A") (A') (A")
                 (A') (A') (A') (A') (A") (A") (A') (A") (A") (A')
                 (A') (A') (A") (A') (A') (A") (A') (A") (A') (A")
                 (A") (A') (A") (A') (A') (A') (A") (A') (A') (A')
                 (A') (A') (A') (A') (A') (A') (A') (A') (A') (A')
                 (A') (A') (A') (A") (A') (A') (A') (A') (A') (A')
                 (A') (A') (A") (A') (A") (A') (A") (A") (A') (A")
                 (A") (A') (A') (A") (A") (A") (A') (A") (A') (A')
                 (A') (A') (A') (A") (A") (A') (A') (A') (A') (A")
                 (A') (A') (A') (A") (A") (A') (A') (A') (A") (A")
                 (A") (A') (A') (A") (A') (A") (A') (A') (A') (A')
                 (A") (A") (A") (A') (A') (A") (A') (A") (A') (A')
                 (A') (A") (A') (A") (A") (A') (A") (A') (A') (A")
                 (A') (A') (A') (A') (A") (A') (A') (A') (A") (A")
                 (A') (A') (A') (A") (A') (A') (A') (A") (A") (A')
                 (A") (A') (A') (A") (A') (A') (A') (A') (A') (A')
                 (A") (A') (A') (A') (A') (A") (A") (A") (A') (A')
                 (A') (A') (A') (A') (A') (A') (A') (A") (A') (A')
                 (A') (A") (A') (A") (A") (A") (A') (A") (A') (A")
                 (A') (A") (A") (A') (A") (A") (A') (A') (A') (A')
                 (A') (A') (A') (A') (A') (A') (A') (A') (A') (A')
                 (A') (A') (A') (A") (A') (A') (A') (A') (A') (A')
                 (A') (A') (A') (A') (A') (A') (A') (A') (A') (A')
                 (A') (A') (A') (A') (A') (A') (A') (A') (A') (A')
                 (A') (A')
     4 initial guesses have been made.
 Convergence on wavefunction:    0.001000000000000
 Iteration     1 Dimension     4 NMult     0 NNew      4
 CISAX will form     4 AO SS matrices at one time.
 Iteration     2 Dimension     6 NMult     4 NNew      2
 Iteration     3 Dimension     8 NMult     6 NNew      2
 Iteration     4 Dimension    10 NMult     8 NNew      2
 Iteration     5 Dimension    12 NMult    10 NNew      2
 Iteration     6 Dimension    14 NMult    12 NNew      2
 ***********************************************************************
 Excited states from <AA,BB:AA,BB> singles matrix:
 ***********************************************************************
 
 Ground to excited state transition densities written to RWF  633
 Ground to excited state transition electric dipole moments (Au):
       state          X           Y           Z        Dip. S.      Osc.
         1        -0.5343      0.2870      0.0000      0.3678      0.0251
 Ground to excited state transition velocity dipole moments (Au):
       state          X           Y           Z        Dip. S.      Osc.
         1         0.0622     -0.0307     -0.0000      0.0048      0.0314
 Ground to excited state transition magnetic dipole moments (Au):
       state          X           Y           Z
         1        -0.0000     -0.0000     -0.0934
 Ground to excited state transition velocity quadrupole moments (Au):
       state          XX          YY          ZZ          XY          XZ          YZ
         1         0.1269      0.1823     -0.0093      0.1298      0.0000      0.0000
 <0|del|b> * <b|rxdel|0> + <0|del|b> * <b|delr+rdel|0>
 Rotatory Strengths (R) in cgs (10**-40 erg-esu-cm/Gauss)
       state          XX          YY          ZZ    R(velocity)    E-M Angle
         1         0.0000     -0.0000     -0.0000     -0.0000       90.00
 1/2[<0|r|b>*<b|rxdel|0> + (<0|rxdel|b>*<b|r|0>)*]
 Rotatory Strengths (R) in cgs (10**-40 erg-esu-cm/Gauss)
       state          XX          YY          ZZ     R(length)
         1        -0.0000      0.0000      0.0000     -0.0000
  1/2[<0|del|b>*<b|r|0> + (<0|r|b>*<b|del|0>)*] (Au)
       state          X           Y           Z        Dip. S.   Osc.(frdel)
         1        -0.0332     -0.0088     -0.0000      0.0420      0.0280

 Excitation energies and oscillator strengths:
 
 Excited State   1:      Singlet-A'     2.7808 eV  445.86 nm  f=0.0251  <S**2>=0.000
      47 -> 48         0.70385
 This state for optimization and/or second-order correction.
 Total Energy, E(TD-HF/TD-DFT) =  -539.656456494    
 Copying the excited state density for this state as the 1-particle RhoCI density.
 SavETr:  write IOETrn=   770 NScale= 10 NData=  16 NLR=1 NState=    1 LETran=      28.

 **********************************************************************

            Population analysis using the SCF Density.

 **********************************************************************

 Orbital symmetries:
       Occupied  (A') (A') (A') (A') (A') (A') (A') (A') (A') (A')
                 (A') (A') (A') (A') (A') (A') (A') (A') (A') (A')
                 (A') (A') (A') (A') (A') (A') (A') (A') (A') (A')
                 (A') (A') (A") (A') (A') (A') (A') (A") (A") (A')
                 (A') (A') (A') (A") (A") (A") (A")
       Virtual   (A") (A") (A") (A") (A') (A') (A') (A') (A") (A')
                 (A') (A") (A') (A') (A") (A') (A") (A') (A') (A')
                 (A") (A") (A') (A') (A') (A") (A') (A") (A') (A')
                 (A") (A') (A") (A') (A') (A') (A') (A') (A") (A')
                 (A") (A') (A') (A") (A") (A') (A") (A') (A") (A')
                 (A') (A') (A') (A') (A') (A") (A') (A') (A') (A')
                 (A') (A") (A') (A') (A') (A") (A') (A') (A') (A')
                 (A') (A') (A') (A') (A') (A') (A') (A') (A') (A')
                 (A') (A') (A') (A') (A') (A') (A') (A') (A') (A')
                 (A') (A') (A') (A') (A") (A') (A") (A") (A') (A")
                 (A') (A') (A') (A') (A") (A") (A') (A") (A") (A')
                 (A') (A') (A") (A') (A') (A") (A') (A") (A') (A")
                 (A") (A') (A") (A') (A') (A') (A") (A') (A') (A')
                 (A') (A') (A') (A') (A') (A') (A') (A') (A') (A')
                 (A') (A') (A') (A") (A') (A') (A') (A') (A') (A')
                 (A') (A') (A") (A') (A") (A') (A") (A") (A') (A")
                 (A") (A') (A') (A") (A") (A") (A') (A") (A') (A')
                 (A') (A') (A') (A") (A") (A') (A') (A') (A') (A")
                 (A') (A') (A') (A") (A") (A') (A') (A') (A") (A")
                 (A") (A') (A') (A") (A') (A") (A') (A') (A') (A')
                 (A") (A") (A") (A') (A') (A") (A') (A") (A') (A')
                 (A') (A") (A') (A") (A") (A') (A") (A') (A') (A")
                 (A') (A') (A') (A') (A") (A') (A') (A') (A") (A")
                 (A') (A') (A') (A") (A') (A') (A') (A") (A") (A')
                 (A") (A') (A') (A") (A') (A') (A') (A') (A') (A')
                 (A") (A') (A') (A') (A') (A") (A") (A") (A') (A')
                 (A') (A') (A') (A') (A') (A') (A') (A") (A') (A')
                 (A') (A") (A') (A") (A") (A") (A') (A") (A') (A")
                 (A') (A") (A") (A') (A") (A") (A') (A') (A') (A')
                 (A') (A') (A') (A') (A') (A') (A') (A') (A') (A')
                 (A') (A') (A') (A") (A') (A') (A') (A') (A') (A')
                 (A') (A') (A') (A') (A') (A') (A') (A') (A') (A')
                 (A') (A') (A') (A') (A') (A') (A') (A') (A') (A')
                 (A') (A')
 The electronic state is 1-A'.
 Alpha  occ. eigenvalues --  -10.77634 -10.73555 -10.72909 -10.72660 -10.72182
 Alpha  occ. eigenvalues --  -10.71681 -10.71601 -10.71046 -10.70978 -10.70431
 Alpha  occ. eigenvalues --  -10.70137 -10.69825 -10.69806 -10.69433  -1.16466
 Alpha  occ. eigenvalues --   -1.12465  -1.06950  -1.05769  -1.01298  -1.00223
 Alpha  occ. eigenvalues --   -0.95744  -0.91060  -0.86417  -0.85895  -0.83807
 Alpha  occ. eigenvalues --   -0.78385  -0.76056  -0.74406  -0.69694  -0.69218
 Alpha  occ. eigenvalues --   -0.68449  -0.68135  -0.68100  -0.64902  -0.64242
 Alpha  occ. eigenvalues --   -0.62954  -0.61825  -0.60155  -0.59535  -0.59159
 Alpha  occ. eigenvalues --   -0.56867  -0.55312  -0.54668  -0.52443  -0.46806
 Alpha  occ. eigenvalues --   -0.46082  -0.44305
 Alpha virt. eigenvalues --   -0.26096  -0.14666  -0.14088  -0.12767  -0.11182
 Alpha virt. eigenvalues --   -0.10088  -0.09239  -0.07977  -0.07955  -0.07478
 Alpha virt. eigenvalues --   -0.07205  -0.07141  -0.05644  -0.05579  -0.05338
 Alpha virt. eigenvalues --   -0.03833  -0.03651  -0.03276  -0.03133  -0.02163
 Alpha virt. eigenvalues --   -0.01362  -0.00936   0.00191   0.00588   0.00659
 Alpha virt. eigenvalues --    0.01060   0.01511   0.01931   0.02196   0.02295
 Alpha virt. eigenvalues --    0.02451   0.02673   0.02767   0.03278   0.03403
 Alpha virt. eigenvalues --    0.04236   0.04511   0.04708   0.05035   0.05370
 Alpha virt. eigenvalues --    0.06033   0.06295   0.06594   0.07047   0.07258
 Alpha virt. eigenvalues --    0.07893   0.08130   0.08360   0.08578   0.08921
 Alpha virt. eigenvalues --    0.09535   0.09563   0.10010   0.10848   0.11014
 Alpha virt. eigenvalues --    0.11121   0.12151   0.12247   0.12822   0.12989
 Alpha virt. eigenvalues --    0.13441   0.13526   0.14006   0.14391   0.16060
 Alpha virt. eigenvalues --    0.16359   0.16412   0.17345   0.17599   0.17815
 Alpha virt. eigenvalues --    0.18122   0.19066   0.19332   0.19619   0.19767
 Alpha virt. eigenvalues --    0.21552   0.21599   0.22703   0.23117   0.23567
 Alpha virt. eigenvalues --    0.23843   0.24561   0.25351   0.26927   0.27612
 Alpha virt. eigenvalues --    0.28834   0.29311   0.29884   0.31358   0.35762
 Alpha virt. eigenvalues --    0.36511   0.38183   0.39267   0.41134   0.41363
 Alpha virt. eigenvalues --    0.41962   0.42190   0.42985   0.43701   0.44323
 Alpha virt. eigenvalues --    0.44777   0.45136   0.46104   0.46204   0.47936
 Alpha virt. eigenvalues --    0.48489   0.48851   0.49016   0.50460   0.51145
 Alpha virt. eigenvalues --    0.51439   0.51848   0.52125   0.52875   0.54031
 Alpha virt. eigenvalues --    0.54095   0.54619   0.55680   0.55825   0.57486
 Alpha virt. eigenvalues --    0.58237   0.58848   0.61457   0.62211   0.62364
 Alpha virt. eigenvalues --    0.63201   0.63494   0.64947   0.65156   0.67302
 Alpha virt. eigenvalues --    0.70407   0.70559   0.71085   0.72433   0.72885
 Alpha virt. eigenvalues --    0.75747   0.76016   0.76299   0.76847   0.77130
 Alpha virt. eigenvalues --    0.77792   0.77962   0.78253   0.79892   0.80401
 Alpha virt. eigenvalues --    0.81220   0.81646   0.82219   0.83007   0.85201
 Alpha virt. eigenvalues --    0.87160   0.88194   0.88520   0.89148   0.90484
 Alpha virt. eigenvalues --    0.91083   0.91263   0.93216   0.94634   0.96444
 Alpha virt. eigenvalues --    0.96670   1.00379   1.01271   1.01635   1.02787
 Alpha virt. eigenvalues --    1.03185   1.03742   1.04774   1.05562   1.08796
 Alpha virt. eigenvalues --    1.19551   1.23217   1.24066   1.25125   1.28157
 Alpha virt. eigenvalues --    1.29667   1.31791   1.34304   1.35793   1.36003
 Alpha virt. eigenvalues --    1.39327   1.40106   1.40902   1.43015   1.43502
 Alpha virt. eigenvalues --    1.43522   1.44715   1.45869   1.46321   1.46672
 Alpha virt. eigenvalues --    1.47689   1.48040   1.51743   1.53634   1.55779
 Alpha virt. eigenvalues --    1.55779   1.56311   1.56583   1.57811   1.61456
 Alpha virt. eigenvalues --    1.63176   1.63345   1.63970   1.66101   1.68314
 Alpha virt. eigenvalues --    1.68323   1.68697   1.69743   1.74400   1.76001
 Alpha virt. eigenvalues --    1.77171   1.78126   1.79979   1.80042   1.80797
 Alpha virt. eigenvalues --    1.83054   1.83207   1.83615   1.83935   1.84187
 Alpha virt. eigenvalues --    1.84306   1.85717   1.86212   1.88258   1.91395
 Alpha virt. eigenvalues --    1.92070   1.94150   1.95228   1.97692   1.98181
 Alpha virt. eigenvalues --    1.99761   2.02423   2.04434   2.07289   2.11785
 Alpha virt. eigenvalues --    2.12109   2.14167   2.15238   2.19114   2.21261
 Alpha virt. eigenvalues --    2.22806   2.28573   2.30186   2.34627   2.34914
 Alpha virt. eigenvalues --    2.36245   2.38620   2.39657   2.42335   2.44648
 Alpha virt. eigenvalues --    2.46166   2.46514   2.49263   2.52999   2.53867
 Alpha virt. eigenvalues --    2.54245   2.56799   2.57872   2.58340   2.59553
 Alpha virt. eigenvalues --    2.59889   2.61581   2.62091   2.63564   2.63806
 Alpha virt. eigenvalues --    2.64793   2.65087   2.65110   2.65492   2.67897
 Alpha virt. eigenvalues --    2.68618   2.70939   2.71404   2.73366   2.74819
 Alpha virt. eigenvalues --    2.76298   2.78676   2.79706   2.82970   2.83101
 Alpha virt. eigenvalues --    2.84893   2.86290   2.92126   2.97023   2.99406
 Alpha virt. eigenvalues --    3.00171   3.05059   3.10605   3.11390   3.13418
 Alpha virt. eigenvalues --    3.20749   3.23243   3.26582   3.28501   3.30719
 Alpha virt. eigenvalues --    3.32682   3.34196   3.43526   3.46016   3.46657
 Alpha virt. eigenvalues --    3.48476   3.50098   3.56485   3.65843   3.66730
 Alpha virt. eigenvalues --    3.67814   3.94107   3.94347   3.95294   3.96259
 Alpha virt. eigenvalues --    4.03983   4.06855   4.07433   4.12514   4.35448
 Alpha virt. eigenvalues --    4.61217   4.69663   4.71498  23.45294  23.60349
 Alpha virt. eigenvalues --   23.81450  23.83930  23.86711  23.89082  23.91728
 Alpha virt. eigenvalues --   23.94056  23.96943  23.98269  24.01324  24.02597
 Alpha virt. eigenvalues --   24.10990  24.11101
          Condensed to atoms (all electrons):
               1          2          3          4          5          6
     1  C    8.525721   0.403368  -0.593991   1.924408  -0.008851  -0.091007
     2  C    0.403368   7.143581   0.412349  -1.063036  -0.028640  -0.014120
     3  C   -0.593991   0.412349   6.616449   0.732478  -0.116230   0.016897
     4  C    1.924408  -1.063036   0.732478  11.523003  -0.374525  -0.135227
     5  C   -0.008851  -0.028640  -0.116230  -0.374525  10.600396   0.808667
     6  C   -0.091007  -0.014120   0.016897  -0.135227   0.808667   6.578273
     7  C   -0.027019   0.001069  -0.014644  -0.003043  -1.111232   0.282091
     8  C    0.405358  -0.009786  -0.100463  -0.056309   2.058684  -0.479763
     9  C   -1.178619  -0.844324   0.291821  -0.098205  -0.316842   0.299126
    10  C   -1.255679   0.213891  -0.312492  -2.706640  -2.461218  -0.398656
    11  C    0.277700  -0.795505   0.899458  -0.535666  -1.367973  -0.123356
    12  C   -1.931273   1.163898  -1.350851  -1.582317  -0.312645  -0.265424
    13  C    0.182329  -0.211094  -0.221272  -1.628233  -0.032301   1.123473
    14  C   -1.129101  -0.251433  -0.137351  -0.380257  -1.675260  -1.475372
    15  H    0.367315  -0.106332  -0.003223   0.027903   0.005929   0.001108
    16  H   -0.019888   0.379890  -0.018732   0.014576  -0.001561  -0.000331
    17  H   -0.021809  -0.019761   0.376908  -0.067556   0.000255   0.000396
    18  H    0.049507   0.002673  -0.084823   0.464713   0.006317  -0.005088
    19  H   -0.046211  -0.007386   0.050146  -0.081419  -0.060108   0.052274
    20  H    0.007108   0.001985  -0.005124   0.006188   0.452845  -0.084429
    21  H   -0.001316  -0.000404   0.000404   0.000360  -0.068298   0.372476
    22  H    0.000542   0.000342  -0.000326  -0.001499   0.012590  -0.014809
    23  H    0.006401  -0.002504   0.001099   0.005381   0.027110   0.000727
    24  H    0.034267   0.015170  -0.001621  -0.012755  -0.011696  -0.001459
    25  H    0.034267   0.015170  -0.001621  -0.012755  -0.011696  -0.001459
               7          8          9         10         11         12
     1  C   -0.027019   0.405358  -1.178619  -1.255679   0.277700  -1.931273
     2  C    0.001069  -0.009786  -0.844324   0.213891  -0.795505   1.163898
     3  C   -0.014644  -0.100463   0.291821  -0.312492   0.899458  -1.350851
     4  C   -0.003043  -0.056309  -0.098205  -2.706640  -0.535666  -1.582317
     5  C   -1.111232   2.058684  -0.316842  -2.461218  -1.367973  -0.312645
     6  C    0.282091  -0.479763   0.299126  -0.398656  -0.123356  -0.265424
     7  C    7.158495   0.201018  -0.778159   0.290786  -0.289674  -0.129322
     8  C    0.201018   8.694164  -1.142686  -1.317962   0.251566  -1.040145
     9  C   -0.778159  -1.142686   9.619932   0.253369   1.572263  -2.046976
    10  C    0.290786  -1.317962   0.253369   9.158445  -0.341786   2.385259
    11  C   -0.289674   0.251566   1.572263  -0.341786  14.624081  -3.795381
    12  C   -0.129322  -1.040145  -2.046976   2.385259  -3.795381  16.072376
    13  C   -1.028099   0.338257   1.621103  -0.559808   1.077429  -4.709457
    14  C    1.580948  -2.300300  -1.831689   2.501197  -4.878129   3.084659
    15  H   -0.002763   0.005169   0.091438  -0.009307  -0.031740  -0.018373
    16  H    0.000384   0.000886   0.003552  -0.009575   0.027779  -0.033502
    17  H   -0.000394  -0.001319  -0.005459   0.019908  -0.025130   0.087342
    18  H    0.002120   0.007259  -0.023988   0.010752  -0.009308  -0.051626
    19  H   -0.008110  -0.046943   0.075485   0.421746   0.076259  -0.080142
    20  H    0.003052   0.051208  -0.025510   0.014075  -0.011839  -0.010007
    21  H   -0.012056  -0.028701  -0.006016   0.020877  -0.006283   0.005197
    22  H    0.377859  -0.018509   0.003210  -0.009124   0.002604  -0.008371
    23  H   -0.106625   0.367819   0.091856  -0.009918   0.004572   0.005173
    24  H    0.013680   0.031357   0.356173   0.005340   0.019621  -0.060454
    25  H    0.013680   0.031357   0.356173   0.005340   0.019621  -0.060454
              13         14         15         16         17         18
     1  C    0.182329  -1.129101   0.367315  -0.019888  -0.021809   0.049507
     2  C   -0.211094  -0.251433  -0.106332   0.379890  -0.019761   0.002673
     3  C   -0.221272  -0.137351  -0.003223  -0.018732   0.376908  -0.084823
     4  C   -1.628233  -0.380257   0.027903   0.014576  -0.067556   0.464713
     5  C   -0.032301  -1.675260   0.005929  -0.001561   0.000255   0.006317
     6  C    1.123473  -1.475372   0.001108  -0.000331   0.000396  -0.005088
     7  C   -1.028099   1.580948  -0.002763   0.000384  -0.000394   0.002120
     8  C    0.338257  -2.300300   0.005169   0.000886  -0.001319   0.007259
     9  C    1.621103  -1.831689   0.091438   0.003552  -0.005459  -0.023988
    10  C   -0.559808   2.501197  -0.009307  -0.009575   0.019908   0.010752
    11  C    1.077429  -4.878129  -0.031740   0.027779  -0.025130  -0.009308
    12  C   -4.709457   3.084659  -0.018373  -0.033502   0.087342  -0.051626
    13  C   14.347975  -3.712792  -0.000982   0.003454  -0.006323  -0.012050
    14  C   -3.712792  16.119838   0.007486  -0.009754   0.005375  -0.018667
    15  H   -0.000982   0.007486   0.435648  -0.008785   0.001483   0.000244
    16  H    0.003454  -0.009754  -0.008785   0.416939  -0.006678   0.001922
    17  H   -0.006323   0.005375   0.001483  -0.006678   0.420613  -0.010038
    18  H   -0.012050  -0.018667   0.000244   0.001922  -0.010038   0.451731
    19  H    0.080714  -0.050678   0.000335  -0.000543   0.001503  -0.006117
    20  H   -0.004122  -0.058689  -0.000114   0.000016  -0.000150   0.001261
    21  H   -0.029452   0.097074   0.000015  -0.000007   0.000010  -0.000137
    22  H    0.025395  -0.032375  -0.000126   0.000008  -0.000007   0.000014
    23  H   -0.029538  -0.031180   0.000574  -0.000128   0.000012  -0.000112
    24  H    0.007398  -0.059417  -0.000906   0.000627  -0.000140   0.000169
    25  H    0.007398  -0.059417  -0.000906   0.000627  -0.000140   0.000169
              19         20         21         22         23         24
     1  C   -0.046211   0.007108  -0.001316   0.000542   0.006401   0.034267
     2  C   -0.007386   0.001985  -0.000404   0.000342  -0.002504   0.015170
     3  C    0.050146  -0.005124   0.000404  -0.000326   0.001099  -0.001621
     4  C   -0.081419   0.006188   0.000360  -0.001499   0.005381  -0.012755
     5  C   -0.060108   0.452845  -0.068298   0.012590   0.027110  -0.011696
     6  C    0.052274  -0.084429   0.372476  -0.014809   0.000727  -0.001459
     7  C   -0.008110   0.003052  -0.012056   0.377859  -0.106625   0.013680
     8  C   -0.046943   0.051208  -0.028701  -0.018509   0.367819   0.031357
     9  C    0.075485  -0.025510  -0.006016   0.003210   0.091856   0.356173
    10  C    0.421746   0.014075   0.020877  -0.009124  -0.009918   0.005340
    11  C    0.076259  -0.011839  -0.006283   0.002604   0.004572   0.019621
    12  C   -0.080142  -0.010007   0.005197  -0.008371   0.005173  -0.060454
    13  C    0.080714  -0.004122  -0.029452   0.025395  -0.029538   0.007398
    14  C   -0.050678  -0.058689   0.097074  -0.032375  -0.031180  -0.059417
    15  H    0.000335  -0.000114   0.000015  -0.000126   0.000574  -0.000906
    16  H   -0.000543   0.000016  -0.000007   0.000008  -0.000128   0.000627
    17  H    0.001503  -0.000150   0.000010  -0.000007   0.000012  -0.000140
    18  H   -0.006117   0.001261  -0.000137   0.000014  -0.000112   0.000169
    19  H    0.443023  -0.006326   0.001331  -0.000535   0.000283   0.000596
    20  H   -0.006326   0.455542  -0.010465   0.001926   0.000097   0.000194
    21  H    0.001331  -0.010465   0.424055  -0.006533   0.001446  -0.000144
    22  H   -0.000535   0.001926  -0.006533   0.421877  -0.009231   0.000635
    23  H    0.000283   0.000097   0.001446  -0.009231   0.442587  -0.000902
    24  H    0.000596   0.000194  -0.000144   0.000635  -0.000902   0.493825
    25  H    0.000596   0.000194  -0.000144   0.000635  -0.000902  -0.079589
              25
     1  C    0.034267
     2  C    0.015170
     3  C   -0.001621
     4  C   -0.012755
     5  C   -0.011696
     6  C   -0.001459
     7  C    0.013680
     8  C    0.031357
     9  C    0.356173
    10  C    0.005340
    11  C    0.019621
    12  C   -0.060454
    13  C    0.007398
    14  C   -0.059417
    15  H   -0.000906
    16  H    0.000627
    17  H   -0.000140
    18  H    0.000169
    19  H    0.000596
    20  H    0.000194
    21  H   -0.000144
    22  H    0.000635
    23  H   -0.000902
    24  H   -0.079589
    25  H    0.493825
 Mulliken charges:
               1
     1  C    0.086473
     2  C   -0.399062
     3  C   -0.435246
     4  C    0.040430
     5  C   -0.013716
     6  C   -0.445008
     7  C   -0.414042
     8  C    0.098784
     9  C   -0.337031
    10  C    0.091178
    11  C   -0.641187
    12  C    0.682816
    13  C   -0.629403
    14  C    0.695285
    15  H    0.238909
    16  H    0.258825
    17  H    0.251099
    18  H    0.223102
    19  H    0.190230
    20  H    0.221084
    21  H    0.246711
    22  H    0.253808
    23  H    0.235900
    24  H    0.250031
    25  H    0.250031
 Sum of Mulliken charges =   1.00000
 Mulliken charges with hydrogens summed into heavy atoms:
               1
     1  C    0.325381
     2  C   -0.140237
     3  C   -0.184147
     4  C    0.263532
     5  C    0.207368
     6  C   -0.198297
     7  C   -0.160234
     8  C    0.334684
     9  C    0.163030
    10  C    0.281408
    11  C   -0.641187
    12  C    0.682816
    13  C   -0.629403
    14  C    0.695285
 Electronic spatial extent (au):  <R**2>=           2855.9316
 Charge=              1.0000 electrons
 Dipole moment (field-independent basis, Debye):
    X=             -0.1241    Y=             -0.6238    Z=              0.0000  Tot=              0.6361
 Quadrupole moment (field-independent basis, Debye-Ang):
   XX=            -50.7593   YY=            -36.5869   ZZ=            -84.1378
   XY=             10.4135   XZ=             -0.0000   YZ=              0.0000
 Traceless Quadrupole moment (field-independent basis, Debye-Ang):
   XX=              6.4020   YY=             20.5744   ZZ=            -26.9765
   XY=             10.4135   XZ=             -0.0000   YZ=              0.0000
 Octapole moment (field-independent basis, Debye-Ang**2):
  XXX=             -1.4548  YYY=             -0.7075  ZZZ=              0.0000  XYY=             -2.6242
  XXY=             -6.9861  XXZ=              0.0000  XZZ=             -3.1127  YZZ=              0.7258
  YYZ=              0.0000  XYZ=             -0.0000
 Hexadecapole moment (field-independent basis, Debye-Ang**3):
 XXXX=           -990.2608 YYYY=          -1850.4866 ZZZZ=            -99.3210 XXXY=           -347.3078
 XXXZ=             -0.0000 YYYX=           -274.8229 YYYZ=              0.0000 ZZZX=             -0.0000
 ZZZY=             -0.0000 XXYY=           -452.9471 XXZZ=           -242.5717 YYZZ=           -493.8495
 XXYZ=              0.0000 YYXZ=             -0.0000 ZZXY=           -183.6362
 N-N= 7.812105438638D+02 E-N=-2.798768553213D+03  KE= 5.375133569394D+02
 Symmetry A'   KE= 5.228639999740D+02
 Symmetry A"   KE= 1.464935696542D+01
 Unable to Open any file for archive entry.
 1\1\GINC-GADI-CPU-CLX-2072\SP\RM062X TD-FC\6-311++G(d,p)\C14H11(1+)\TS
 1578\28-Jul-2022\0\\#n M062X/6-311++G(d,p) TD(NStates=1) EmpiricalDisp
 ersion=GD3 SP\\SP_6\\1,1\C,0,0.,2.481455,1.360231\C,0,0.,3.691908,0.66
 7389\C,0,0.,3.678861,-0.72323\C,0,0.,2.474756,-1.411738\C,0,0.,-2.4515
 56,-1.403338\C,0,0.,-3.688861,-0.70443\C,0,0.,-3.711108,0.676589\C,0,0
 .,-2.503855,1.360631\C,0,0.,-0.0032,1.453369\C,0,0.,0.0206,-1.429189\C
 ,0,0.,1.266455,0.686665\C,0,0.,1.241071,-0.735004\C,0,0.,-1.257655,0.6
 67465\C,0,0.,-1.233871,-0.726604\H,0,0.,2.491271,2.443647\H,0,0.,4.629
 153,1.204489\H,0,0.,4.611462,-1.269549\H,0,0.,2.46595,-2.494459\H,0,0.
 ,0.012,-2.510266\H,0,0.,-2.46915,-2.485659\H,0,0.,-4.607062,-1.275149\
 H,0,0.,-4.644353,1.218889\H,0,0.,-2.484871,2.443647\H,0,-0.859585,-0.0
 212,2.145787\H,0,0.859585,-0.0212,2.145787\\Version=ES64L-G16RevC.01\S
 tate=1-A'\HF=-539.7586481\RMSD=6.855e-09\PG=CS [SG(C14H9),X(H2)]\\@
 The archive entry for this job was punched.


 JUST WHEN YOU THINK YOU'VE GOT THE WORLD ON A STRING,
 YOU FIND OUT IT'S YOUR LEASH.
 Job cpu time:       0 days  0 hours 55 minutes 35.4 seconds.
 Elapsed time:       0 days  0 hours  1 minutes 20.1 seconds.
 File lengths (MBytes):  RWF=    460 Int=      0 D2E=      0 Chk=     15 Scr=      1
 Normal termination of Gaussian 16 at Thu Jul 28 14:29:58 2022.
