 Entering Gaussian System, Link 0=g16
 Initial command:
 /apps/gaussian/g16c01/g16/l1.exe "/jobfs/53005151.gadi-pbs/Gau-4155622.inp" -scrdir="/jobfs/53005151.gadi-pbs/"
 Entering Link 1 = /apps/gaussian/g16c01/g16/l1.exe PID=   4155623.
  
 Copyright (c) 1988-2019, Gaussian, Inc.  All Rights Reserved.
  
 This is part of the Gaussian(R) 16 program.  It is based on
 the Gaussian(R) 09 system (copyright 2009, Gaussian, Inc.),
 the Gaussian(R) 03 system (copyright 2003, Gaussian, Inc.),
 the Gaussian(R) 98 system (copyright 1998, Gaussian, Inc.),
 the Gaussian(R) 94 system (copyright 1995, Gaussian, Inc.),
 the Gaussian 92(TM) system (copyright 1992, Gaussian, Inc.),
 the Gaussian 90(TM) system (copyright 1990, Gaussian, Inc.),
 the Gaussian 88(TM) system (copyright 1988, Gaussian, Inc.),
 the Gaussian 86(TM) system (copyright 1986, Carnegie Mellon
 University), and the Gaussian 82(TM) system (copyright 1983,
 Carnegie Mellon University). Gaussian is a federally registered
 trademark of Gaussian, Inc.
  
 This software contains proprietary and confidential information,
 including trade secrets, belonging to Gaussian, Inc.
  
 This software is provided under written license and may be
 used, copied, transmitted, or stored only in accord with that
 written license.
  
 The following legend is applicable only to US Government
 contracts under FAR:
  
                    RESTRICTED RIGHTS LEGEND
  
 Use, reproduction and disclosure by the US Government is
 subject to restrictions as set forth in subparagraphs (a)
 and (c) of the Commercial Computer Software - Restricted
 Rights clause in FAR 52.227-19.
  
 Gaussian, Inc.
 340 Quinnipiac St., Bldg. 40, Wallingford CT 06492
  
  
 ---------------------------------------------------------------
 Warning -- This program may not be used in any manner that
 competes with the business of Gaussian, Inc. or will provide
 assistance to any competitor of Gaussian, Inc.  The licensee
 of this program is prohibited from giving any competitor of
 Gaussian, Inc. access to this program.  By using this program,
 the user acknowledges that Gaussian, Inc. is engaged in the
 business of creating and licensing software in the field of
 computational chemistry and represents and warrants to the
 licensee that it is not a competitor of Gaussian, Inc. and that
 it will not use this program in any manner prohibited above.
 ---------------------------------------------------------------
  

 Cite this work as:
 Gaussian 16, Revision C.01,
 M. J. Frisch, G. W. Trucks, H. B. Schlegel, G. E. Scuseria, 
 M. A. Robb, J. R. Cheeseman, G. Scalmani, V. Barone, 
 G. A. Petersson, H. Nakatsuji, X. Li, M. Caricato, A. V. Marenich, 
 J. Bloino, B. G. Janesko, R. Gomperts, B. Mennucci, H. P. Hratchian, 
 J. V. Ortiz, A. F. Izmaylov, J. L. Sonnenberg, D. Williams-Young, 
 F. Ding, F. Lipparini, F. Egidi, J. Goings, B. Peng, A. Petrone, 
 T. Henderson, D. Ranasinghe, V. G. Zakrzewski, J. Gao, N. Rega, 
 G. Zheng, W. Liang, M. Hada, M. Ehara, K. Toyota, R. Fukuda, 
 J. Hasegawa, M. Ishida, T. Nakajima, Y. Honda, O. Kitao, H. Nakai, 
 T. Vreven, K. Throssell, J. A. Montgomery, Jr., J. E. Peralta, 
 F. Ogliaro, M. J. Bearpark, J. J. Heyd, E. N. Brothers, K. N. Kudin, 
 V. N. Staroverov, T. A. Keith, R. Kobayashi, J. Normand, 
 K. Raghavachari, A. P. Rendell, J. C. Burant, S. S. Iyengar, 
 J. Tomasi, M. Cossi, J. M. Millam, M. Klene, C. Adamo, R. Cammi, 
 J. W. Ochterski, R. L. Martin, K. Morokuma, O. Farkas, 
 J. B. Foresman, and D. J. Fox, Gaussian, Inc., Wallingford CT, 2019.
 
 ******************************************
 Gaussian 16:  ES64L-G16RevC.01  3-Jul-2019
                28-Jul-2022 
 ******************************************
 %NProcShared=48
 Will use up to   48 processors via shared memory.
 %mem = 190GB
 ---------------------------------------------------------------
 #n M062X/6-311++G(d,p) TD(NStates=1) EmpiricalDispersion=GD3 SP
 ---------------------------------------------------------------
 1/38=1,172=1/1;
 2/12=2,17=6,18=5,40=1/2;
 3/5=4,6=6,7=1111,11=9,25=1,30=1,74=-55,124=31/1,2,3,8;
 4//1;
 5/5=2,38=5/2;
 8/6=1,10=2,108=1/1;
 9/41=1,42=1,70=2/14;
 6/7=2,8=2,9=2,10=2/1;
 99/5=1,9=1/99;
 ------
 SP_-10
 ------
 Symbolic Z-matrix:
 Charge =  1 Multiplicity = 1
 C                     0.        2.51026   1.36063 
 C                     0.        3.71831   0.67979 
 C                     0.        3.69246  -0.69803 
 C                     0.        2.44356  -1.40014 
 C                     0.       -2.48276  -1.41494 
 C                     0.       -3.67526  -0.72963 
 C                     0.       -3.68471   0.66419 
 C                     0.       -2.47506   1.36023 
 C                     0.        0.0064    1.45337 
 C                     0.       -0.0322   -1.42919 
 C                     0.        1.25406   0.66307 
 C                     0.        1.23027  -0.7262 
 C                     0.       -1.27006   0.69107 
 C                     0.       -1.24467  -0.7354 
 H                     0.        2.48687   2.44365 
 H                     0.        4.65155   1.22169 
 H                     0.        4.60746  -1.27435 
 H                     0.        2.46555  -2.48246 
 H                     0.       -0.022    -2.51027 
 H                     0.       -2.46955  -2.49766 
 H                     0.       -4.61106  -1.27035 
 H                     0.       -4.62195   1.20169 
 H                     0.       -2.48927   2.44365 
 H                    -0.85959   0.0388    2.14579 
 H                     0.85959   0.0388    2.14579 
 
                          Input orientation:                          
 ---------------------------------------------------------------------
 Center     Atomic      Atomic             Coordinates (Angstroms)
 Number     Number       Type             X           Y           Z
 ---------------------------------------------------------------------
      1          6           0        0.000000    2.510255    1.360631
      2          6           0        0.000000    3.718308    0.679789
      3          6           0        0.000000    3.692461   -0.698030
      4          6           0        0.000000    2.443556   -1.400138
      5          6           0        0.000000   -2.482756   -1.414938
      6          6           0        0.000000   -3.675261   -0.729630
      7          6           0        0.000000   -3.684708    0.664189
      8          6           0        0.000000   -2.475055    1.360231
      9          6           0        0.000000    0.006400    1.453369
     10          6           0        0.000000   -0.032200   -1.429189
     11          6           0        0.000000    1.254055    0.663065
     12          6           0        0.000000    1.230271   -0.726204
     13          6           0        0.000000   -1.270055    0.691065
     14          6           0        0.000000   -1.244671   -0.735404
     15          1           0        0.000000    2.486871    2.443647
     16          1           0        0.000000    4.651553    1.221689
     17          1           0        0.000000    4.607462   -1.274349
     18          1           0        0.000000    2.465550   -2.482459
     19          1           0        0.000000   -0.022000   -2.510266
     20          1           0        0.000000   -2.469550   -2.497659
     21          1           0        0.000000   -4.611062   -1.270349
     22          1           0        0.000000   -4.621953    1.201689
     23          1           0        0.000000   -2.489271    2.443647
     24          1           0       -0.859585    0.038800    2.145787
     25          1           0        0.859585    0.038800    2.145787
 ---------------------------------------------------------------------
                    Distance matrix (angstroms):
                    1          2          3          4          5
     1  C    0.000000
     2  C    1.386700   0.000000
     3  C    2.373962   1.378061   0.000000
     4  C    2.761575   2.439485   1.432731   0.000000
     5  C    5.712613   6.545309   6.216692   4.926334   0.000000
     6  C    6.529150   7.526707   7.367790   6.155445   1.375396
     7  C    6.233987   7.403032   7.501884   6.466612   2.401553
     8  C    4.985310   6.230630   6.501899   5.640246   2.775180
     9  C    2.505572   3.791660   4.267969   3.752630   3.797773
    10  C    3.774543   4.302801   3.795747   2.475926   2.450597
    11  C    1.436884   2.464310   2.792562   2.381537   4.275728
    12  C    2.448109   2.857822   2.462351   1.387893   3.776364
    13  C    3.839149   4.988376   5.153266   4.261929   2.430204
    14  C    4.300329   5.160807   4.937273   3.747651   1.412310
    15  H    1.083268   2.151193   3.365053   3.844029   6.291730
    16  H    2.145801   1.079167   2.145968   3.427715   7.605930
    17  H    3.367699   2.146916   1.081374   2.167559   7.091612
    18  H    3.843350   3.401355   2.165525   1.082544   5.062147
    19  H    4.625598   4.915929   4.132967   2.703951   2.693523
    20  H    6.299592   6.955988   6.419427   5.034199   1.082802
    21  H    7.591786   8.554615   8.323223   7.055812   2.133212
    22  H    7.133979   8.356574   8.528682   7.529337   3.379778
    23  H    5.115485   6.453312   6.934259   6.253596   3.858591
    24  H    2.731931   4.053001   4.709078   4.369819   4.447010
    25  H    2.731931   4.053001   4.709078   4.369819   4.447010
                    6          7          8          9         10
     6  C    0.000000
     7  C    1.393851   0.000000
     8  C    2.409982   1.395613   0.000000
     9  C    4.280200   3.774531   2.483202   0.000000
    10  C    3.709619   4.209875   3.707884   2.882816   0.000000
    11  C    5.122280   4.938763   3.793719   1.476897   2.456009
    12  C    4.905533   5.107858   4.252370   2.499680   1.444999
    13  C    2.793455   2.414803   1.378335   1.486756   2.455150
    14  C    2.430597   2.812942   2.430130   2.521092   1.396934
    15  H    6.931202   6.422994   5.078829   2.670840   4.620019
    16  H    8.552396   8.354882   7.127955   4.650927   5.381886
    17  H    8.300616   8.515751   7.556657   5.348852   4.642245
    18  H    6.386076   6.908478   6.259061   4.640922   2.710744
    19  H    4.064109   4.846916   4.582382   3.963737   1.081125
    20  H    2.140015   3.387313   3.857894   4.662719   2.661260
    21  H    1.080787   2.144894   3.388580   5.360932   4.581616
    22  H    2.150865   1.080433   2.152744   4.635191   5.290307
    23  H    3.387663   2.143721   1.083509   2.684963   4.586508
    24  H    4.775056   4.098601   2.770461   1.104255   3.677551
    25  H    4.775056   4.098601   2.770461   1.104255   3.677551
                   11         12         13         14         15
    11  C    0.000000
    12  C    1.389473   0.000000
    13  C    2.524265   2.874071   0.000000
    14  C    2.863450   2.474959   1.426695   0.000000
    15  H    2.165712   3.409839   4.145604   4.902119   0.000000
    16  H    3.443117   3.936935   5.945335   6.212541   2.485765
    17  H    3.872843   3.421386   6.197424   5.876897   4.280234
    18  H    3.370763   2.147172   4.901632   4.100968   4.926152
    19  H    3.420284   2.179693   3.436010   2.155240   5.552989
    20  H    4.884200   4.102040   3.406868   2.146129   6.998758
    21  H    6.175572   5.866623   3.874206   3.408629   8.010894
    22  H    5.900643   6.161599   3.390569   3.893374   7.216498
    23  H    4.145234   4.887018   2.134955   3.414000   4.976142
    24  H    2.100999   3.225961   2.137336   3.269166   2.611639
    25  H    2.100999   3.225961   2.137336   3.269166   2.611639
                   16         17         18         19         20
    16  H    0.000000
    17  H    2.496427   0.000000
    18  H    4.301084   2.459129   0.000000
    19  H    5.980768   4.791598   2.487705   0.000000
    20  H    8.033907   7.181963   4.935123   2.447582   0.000000
    21  H    9.591991   9.218525   7.179669   4.753618   2.468271
    22  H    9.273528   9.555777   7.987844   5.910853   4.279955
    23  H    7.244622   8.011686   6.986900   5.534318   4.941345
    24  H    4.782294   5.771385   5.296099   4.735125   5.347177
    25  H    4.782294   5.771385   5.296099   4.735125   5.347177
                   21         22         23         24         25
    21  H    0.000000
    22  H    2.472062   0.000000
    23  H    4.277355   2.467953   0.000000
    24  H    5.833531   4.832476   2.686773   0.000000
    25  H    5.833531   4.832476   2.686773   1.719170   0.000000
 Stoichiometry    C14H11(1+)
 Framework group  CS[SG(C14H9),X(H2)]
 Deg. of freedom    46
 Full point group                 CS      NOp   2
 Largest Abelian subgroup         CS      NOp   2
 Largest concise Abelian subgroup CS      NOp   2
                         Standard orientation:                         
 ---------------------------------------------------------------------
 Center     Atomic      Atomic             Coordinates (Angstroms)
 Number     Number       Type             X           Y           Z
 ---------------------------------------------------------------------
      1          6           0        0.029404    2.854967    0.000000
      2          6           0       -1.137203    3.604612    0.000000
      3          6           0       -2.343118    2.937661    0.000000
      4          6           0       -2.379947    1.505403    0.000000
      5          6           0       -0.090082   -2.856395    0.000000
      6          6           0        1.073205   -3.590207    0.000000
      7          6           0        2.309763   -2.946977    0.000000
      8          6           0        2.359579   -1.552254    0.000000
      9          6           0        1.281885    0.684903    0.000000
     10          6           0       -1.248264   -0.696756    0.000000
     11          6           0        0.000000    1.418384    0.000000
     12          6           0       -1.217001    0.747904    0.000000
     13          6           0        1.204721   -0.799850    0.000000
     14          6           0       -0.068150   -1.444255    0.000000
     15          1           0        0.997726    3.340583    0.000000
     16          1           0       -1.094434    4.682931    0.000000
     17          1           0       -3.280330    3.477108    0.000000
     18          1           0       -3.347005    1.018883    0.000000
     19          1           0       -2.208708   -1.193120    0.000000
     20          1           0       -1.053385   -3.350871    0.000000
     21          1           0        1.032675   -4.670234    0.000000
     22          1           0        3.223057   -3.524235    0.000000
     23          1           0        3.323969   -1.058346    0.000000
     24          1           0        1.878839    1.037235    0.859585
     25          1           0        1.878839    1.037235   -0.859585
 ---------------------------------------------------------------------
 Rotational constants (GHZ):           2.1363150           0.4445998           0.3688110
 Standard basis: 6-311++G(d,p) (5D, 7F)
 There are   299 symmetry adapted cartesian basis functions of A'  symmetry.
 There are   100 symmetry adapted cartesian basis functions of A"  symmetry.
 There are   285 symmetry adapted basis functions of A'  symmetry.
 There are   100 symmetry adapted basis functions of A"  symmetry.
   385 basis functions,   603 primitive gaussians,   399 cartesian basis functions
    47 alpha electrons       47 beta electrons
       nuclear repulsion energy       781.2323595346 Hartrees.
 NAtoms=   25 NActive=   25 NUniq=   24 SFac= 1.09D+00 NAtFMM=   60 NAOKFM=F Big=F
 Integral buffers will be    131072 words long.
 Regular integral format.
 Two-electron integral symmetry is turned on.
 Nuclear repulsion after empirical dispersion term =      781.2313801718 Hartrees.
 One-electron integrals computed using PRISM.
 NBasis=   385 RedAO= T EigKep=  1.11D-06  NBF=   285   100
 NBsUse=   379 1.00D-06 EigRej=  8.38D-07 NBFU=   279   100
 ExpMin= 3.60D-02 ExpMax= 4.56D+03 ExpMxC= 6.82D+02 IAcc=3 IRadAn=         5 AccDes= 0.00D+00
 Harris functional with IExCor= 1009 and IRadAn=       5 diagonalized for initial guess.
 HarFok:  IExCor= 1009 AccDes= 0.00D+00 IRadAn=         5 IDoV= 1 UseB2=F ITyADJ=14
 ICtDFT=  3500011 ScaDFX=  1.000000  1.000000  1.000000  1.000000
 FoFCou: FMM=F IPFlag=           0 FMFlag=      100000 FMFlg1=           0
         NFxFlg=           0 DoJE=T BraDBF=F KetDBF=T FulRan=T
         wScrn=  0.000000 ICntrl=       500 IOpCl=  0 I1Cent=   200000004 NGrid=           0
         NMat0=    1 NMatS0=      1 NMatT0=    0 NMatD0=    1 NMtDS0=    0 NMtDT0=    0
 Petite list used in FoFCou.
 Initial guess orbital symmetries:
       Occupied  (A') (A') (A') (A') (A') (A') (A') (A') (A') (A')
                 (A') (A') (A') (A') (A') (A') (A') (A') (A') (A')
                 (A') (A') (A') (A') (A') (A') (A') (A') (A') (A')
                 (A') (A') (A") (A') (A') (A') (A') (A') (A") (A')
                 (A") (A') (A') (A") (A") (A") (A")
       Virtual   (A") (A") (A") (A") (A") (A') (A') (A') (A') (A")
                 (A") (A') (A') (A') (A") (A') (A') (A') (A') (A")
                 (A') (A") (A') (A') (A') (A") (A') (A") (A') (A')
                 (A') (A') (A') (A') (A") (A') (A") (A') (A') (A')
                 (A") (A') (A') (A") (A') (A') (A') (A') (A") (A')
                 (A') (A') (A") (A") (A') (A') (A') (A") (A") (A')
                 (A') (A') (A') (A') (A') (A') (A") (A') (A') (A")
                 (A') (A') (A') (A') (A') (A') (A') (A') (A') (A')
                 (A') (A') (A') (A') (A') (A') (A') (A') (A') (A')
                 (A') (A') (A') (A') (A') (A') (A') (A") (A') (A")
                 (A') (A') (A") (A") (A') (A") (A') (A") (A") (A')
                 (A") (A') (A') (A') (A") (A') (A') (A") (A") (A')
                 (A") (A") (A') (A') (A') (A") (A') (A') (A') (A")
                 (A') (A') (A') (A') (A') (A') (A") (A') (A') (A')
                 (A') (A') (A') (A') (A') (A') (A') (A') (A') (A")
                 (A") (A') (A") (A") (A') (A') (A') (A") (A") (A')
                 (A") (A') (A") (A") (A") (A') (A') (A') (A') (A')
                 (A') (A") (A') (A") (A') (A') (A') (A') (A') (A")
                 (A') (A') (A') (A') (A") (A') (A") (A') (A") (A")
                 (A') (A") (A') (A") (A') (A') (A') (A") (A') (A')
                 (A") (A") (A") (A') (A') (A") (A') (A") (A') (A')
                 (A") (A") (A') (A") (A') (A") (A') (A') (A') (A")
                 (A') (A') (A') (A') (A") (A') (A') (A') (A") (A")
                 (A') (A') (A') (A") (A') (A') (A") (A') (A") (A')
                 (A") (A') (A') (A') (A') (A") (A') (A') (A') (A")
                 (A') (A') (A') (A") (A") (A') (A') (A") (A') (A')
                 (A') (A") (A') (A") (A') (A') (A') (A") (A') (A")
                 (A') (A') (A') (A') (A") (A') (A") (A') (A") (A')
                 (A") (A') (A") (A") (A") (A') (A') (A') (A') (A')
                 (A') (A') (A') (A') (A') (A') (A') (A') (A') (A')
                 (A') (A') (A') (A') (A") (A') (A') (A') (A') (A')
                 (A') (A') (A') (A') (A') (A') (A') (A') (A') (A')
                 (A') (A') (A') (A') (A') (A') (A') (A') (A') (A')
                 (A') (A')
 The electronic state of the initial guess is 1-A'.
 Requested convergence on RMS density matrix=1.00D-08 within 128 cycles.
 Requested convergence on MAX density matrix=1.00D-06.
 Requested convergence on             energy=1.00D-06.
 No special actions if energy rises.
 SCF Done:  E(RM062X) =  -539.756325433     A.U. after   15 cycles
            NFock= 15  Conv=0.83D-08     -V/T= 2.0042
 DoSCS=F DFT=T ScalE2(SS,OS)=  1.000000  1.000000
 ExpMin= 3.60D-02 ExpMax= 4.56D+03 ExpMxC= 6.82D+02 IAcc=3 IRadAn=         5 AccDes= 0.00D+00
 HarFok:  IExCor=  205 AccDes= 0.00D+00 IRadAn=         5 IDoV=-2 UseB2=F ITyADJ=14
 ICtDFT= 12500011 ScaDFX=  1.000000  1.000000  1.000000  1.000000
 Range of M.O.s used for correlation:    15   379
 NBasis=   385 NAE=    47 NBE=    47 NFC=    14 NFV=     0
 NROrb=    365 NOA=    33 NOB=    33 NVA=   332 NVB=   332

 **** Warning!!: The largest alpha MO coefficient is  0.13743463D+03

 Orbital symmetries:
       Occupied  (A') (A') (A') (A') (A') (A') (A') (A') (A') (A')
                 (A') (A') (A') (A') (A') (A') (A') (A') (A') (A')
                 (A') (A') (A') (A') (A') (A') (A') (A') (A') (A')
                 (A') (A") (A') (A') (A') (A') (A') (A") (A") (A')
                 (A') (A') (A') (A") (A") (A") (A")
       Virtual   (A") (A") (A") (A") (A') (A') (A') (A') (A") (A')
                 (A') (A") (A') (A') (A") (A') (A") (A') (A') (A')
                 (A") (A") (A') (A') (A') (A") (A') (A") (A') (A')
                 (A") (A') (A") (A') (A') (A') (A') (A') (A") (A')
                 (A") (A') (A') (A") (A") (A') (A") (A') (A") (A')
                 (A') (A') (A') (A') (A') (A") (A') (A') (A') (A')
                 (A') (A") (A') (A') (A') (A") (A') (A') (A') (A')
                 (A') (A') (A') (A') (A') (A') (A') (A') (A') (A')
                 (A') (A') (A') (A') (A') (A') (A') (A') (A') (A')
                 (A') (A') (A') (A') (A") (A') (A") (A") (A') (A")
                 (A') (A') (A') (A') (A") (A") (A') (A") (A") (A')
                 (A') (A') (A") (A') (A') (A") (A') (A") (A') (A")
                 (A") (A') (A") (A') (A') (A') (A") (A') (A') (A')
                 (A') (A') (A') (A') (A') (A') (A') (A') (A') (A')
                 (A') (A') (A') (A") (A') (A') (A') (A') (A') (A')
                 (A') (A') (A") (A') (A") (A') (A") (A") (A') (A")
                 (A") (A') (A') (A") (A") (A") (A') (A") (A') (A')
                 (A') (A') (A') (A") (A") (A') (A') (A') (A') (A")
                 (A') (A') (A') (A") (A") (A') (A') (A') (A") (A")
                 (A") (A') (A') (A") (A') (A") (A') (A') (A') (A')
                 (A") (A") (A") (A') (A") (A') (A') (A") (A') (A')
                 (A') (A") (A") (A') (A") (A') (A") (A') (A') (A")
                 (A') (A') (A') (A') (A") (A') (A') (A') (A") (A")
                 (A') (A') (A') (A") (A') (A') (A') (A") (A") (A')
                 (A") (A') (A') (A") (A') (A') (A') (A') (A') (A')
                 (A") (A') (A') (A') (A') (A") (A") (A") (A') (A')
                 (A') (A') (A') (A') (A') (A') (A') (A") (A') (A')
                 (A') (A") (A') (A") (A") (A") (A') (A") (A') (A")
                 (A') (A") (A") (A') (A") (A") (A') (A') (A') (A')
                 (A') (A') (A') (A') (A') (A') (A') (A') (A') (A')
                 (A') (A') (A') (A") (A') (A') (A') (A') (A') (A')
                 (A') (A') (A') (A') (A') (A') (A') (A') (A') (A')
                 (A') (A') (A') (A') (A') (A') (A') (A') (A') (A')
                 (A') (A')
     4 initial guesses have been made.
 Convergence on wavefunction:    0.001000000000000
 Iteration     1 Dimension     4 NMult     0 NNew      4
 CISAX will form     4 AO SS matrices at one time.
 Iteration     2 Dimension     6 NMult     4 NNew      2
 Iteration     3 Dimension     8 NMult     6 NNew      2
 Iteration     4 Dimension    10 NMult     8 NNew      2
 Iteration     5 Dimension    12 NMult    10 NNew      2
 Iteration     6 Dimension    14 NMult    12 NNew      2
 ***********************************************************************
 Excited states from <AA,BB:AA,BB> singles matrix:
 ***********************************************************************
 
 Ground to excited state transition densities written to RWF  633
 Ground to excited state transition electric dipole moments (Au):
       state          X           Y           Z        Dip. S.      Osc.
         1         0.4919      0.2884     -0.0000      0.3252      0.0217
 Ground to excited state transition velocity dipole moments (Au):
       state          X           Y           Z        Dip. S.      Osc.
         1        -0.0570     -0.0293      0.0000      0.0041      0.0273
 Ground to excited state transition magnetic dipole moments (Au):
       state          X           Y           Z
         1        -0.0000      0.0000      0.1304
 Ground to excited state transition velocity quadrupole moments (Au):
       state          XX          YY          ZZ          XY          XZ          YZ
         1         0.1348      0.1491     -0.0087     -0.1334      0.0000      0.0000
 <0|del|b> * <b|rxdel|0> + <0|del|b> * <b|delr+rdel|0>
 Rotatory Strengths (R) in cgs (10**-40 erg-esu-cm/Gauss)
       state          XX          YY          ZZ    R(velocity)    E-M Angle
         1        -0.0000      0.0000     -0.0000      0.0000       90.00
 1/2[<0|r|b>*<b|rxdel|0> + (<0|rxdel|b>*<b|r|0>)*]
 Rotatory Strengths (R) in cgs (10**-40 erg-esu-cm/Gauss)
       state          XX          YY          ZZ     R(length)
         1         0.0000     -0.0000      0.0000      0.0000
  1/2[<0|del|b>*<b|r|0> + (<0|r|b>*<b|del|0>)*] (Au)
       state          X           Y           Z        Dip. S.   Osc.(frdel)
         1        -0.0280     -0.0084     -0.0000      0.0365      0.0243

 Excitation energies and oscillator strengths:
 
 Excited State   1:      Singlet-A'     2.7235 eV  455.24 nm  f=0.0217  <S**2>=0.000
      47 -> 48         0.70358
 This state for optimization and/or second-order correction.
 Total Energy, E(TD-HF/TD-DFT) =  -539.656238319    
 Copying the excited state density for this state as the 1-particle RhoCI density.
 SavETr:  write IOETrn=   770 NScale= 10 NData=  16 NLR=1 NState=    1 LETran=      28.

 **********************************************************************

            Population analysis using the SCF Density.

 **********************************************************************

 Orbital symmetries:
       Occupied  (A') (A') (A') (A') (A') (A') (A') (A') (A') (A')
                 (A') (A') (A') (A') (A') (A') (A') (A') (A') (A')
                 (A') (A') (A') (A') (A') (A') (A') (A') (A') (A')
                 (A') (A") (A') (A') (A') (A') (A') (A") (A") (A')
                 (A') (A') (A') (A") (A") (A") (A")
       Virtual   (A") (A") (A") (A") (A') (A') (A') (A') (A") (A')
                 (A') (A") (A') (A') (A") (A') (A") (A') (A') (A')
                 (A") (A") (A') (A') (A') (A") (A') (A") (A') (A')
                 (A") (A') (A") (A') (A') (A') (A') (A') (A") (A')
                 (A") (A') (A') (A") (A") (A') (A") (A') (A") (A')
                 (A') (A') (A') (A') (A') (A") (A') (A') (A') (A')
                 (A') (A") (A') (A') (A') (A") (A') (A') (A') (A')
                 (A') (A') (A') (A') (A') (A') (A') (A') (A') (A')
                 (A') (A') (A') (A') (A') (A') (A') (A') (A') (A')
                 (A') (A') (A') (A') (A") (A') (A") (A") (A') (A")
                 (A') (A') (A') (A') (A") (A") (A') (A") (A") (A')
                 (A') (A') (A") (A') (A') (A") (A') (A") (A') (A")
                 (A") (A') (A") (A') (A') (A') (A") (A') (A') (A')
                 (A') (A') (A') (A') (A') (A') (A') (A') (A') (A')
                 (A') (A') (A') (A") (A') (A') (A') (A') (A') (A')
                 (A') (A') (A") (A') (A") (A') (A") (A") (A') (A")
                 (A") (A') (A') (A") (A") (A") (A') (A") (A') (A')
                 (A') (A') (A') (A") (A") (A') (A') (A') (A') (A")
                 (A') (A') (A') (A") (A") (A') (A') (A') (A") (A")
                 (A") (A') (A') (A") (A') (A") (A') (A') (A') (A')
                 (A") (A") (A") (A') (A") (A') (A') (A") (A') (A')
                 (A') (A") (A") (A') (A") (A') (A") (A') (A') (A")
                 (A') (A') (A') (A') (A") (A') (A') (A') (A") (A")
                 (A') (A') (A') (A") (A') (A') (A') (A") (A") (A')
                 (A") (A') (A') (A") (A') (A') (A') (A') (A') (A')
                 (A") (A') (A') (A') (A') (A") (A") (A") (A') (A')
                 (A') (A') (A') (A') (A') (A') (A') (A") (A') (A')
                 (A') (A") (A') (A") (A") (A") (A') (A") (A') (A")
                 (A') (A") (A") (A') (A") (A") (A') (A') (A') (A')
                 (A') (A') (A') (A') (A') (A') (A') (A') (A') (A')
                 (A') (A') (A') (A") (A') (A') (A') (A') (A') (A')
                 (A') (A') (A') (A') (A') (A') (A') (A') (A') (A')
                 (A') (A') (A') (A') (A') (A') (A') (A') (A') (A')
                 (A') (A')
 The electronic state is 1-A'.
 Alpha  occ. eigenvalues --  -10.77596 -10.73695 -10.72767 -10.72755 -10.72038
 Alpha  occ. eigenvalues --  -10.71911 -10.71800 -10.70980 -10.70903 -10.70201
 Alpha  occ. eigenvalues --  -10.70152 -10.69896 -10.69741 -10.69357  -1.16501
 Alpha  occ. eigenvalues --   -1.12467  -1.06949  -1.05818  -1.01285  -1.00296
 Alpha  occ. eigenvalues --   -0.95677  -0.91057  -0.86422  -0.85887  -0.83800
 Alpha  occ. eigenvalues --   -0.78360  -0.76100  -0.74386  -0.69798  -0.69229
 Alpha  occ. eigenvalues --   -0.68380  -0.68095  -0.68076  -0.65081  -0.64230
 Alpha  occ. eigenvalues --   -0.62825  -0.61751  -0.60305  -0.59394  -0.59221
 Alpha  occ. eigenvalues --   -0.56844  -0.55386  -0.54504  -0.52446  -0.47056
 Alpha  occ. eigenvalues --   -0.46106  -0.44048
 Alpha virt. eigenvalues --   -0.26106  -0.14669  -0.14072  -0.12760  -0.11187
 Alpha virt. eigenvalues --   -0.10091  -0.09251  -0.07969  -0.07935  -0.07481
 Alpha virt. eigenvalues --   -0.07208  -0.07136  -0.05645  -0.05576  -0.05345
 Alpha virt. eigenvalues --   -0.03841  -0.03658  -0.03271  -0.03133  -0.02159
 Alpha virt. eigenvalues --   -0.01355  -0.00945   0.00189   0.00585   0.00656
 Alpha virt. eigenvalues --    0.01063   0.01507   0.01925   0.02170   0.02302
 Alpha virt. eigenvalues --    0.02451   0.02675   0.02789   0.03245   0.03431
 Alpha virt. eigenvalues --    0.04229   0.04512   0.04720   0.05039   0.05378
 Alpha virt. eigenvalues --    0.06031   0.06293   0.06589   0.07051   0.07264
 Alpha virt. eigenvalues --    0.07897   0.08100   0.08357   0.08619   0.08913
 Alpha virt. eigenvalues --    0.09521   0.09564   0.09980   0.10827   0.10994
 Alpha virt. eigenvalues --    0.11125   0.12121   0.12250   0.12728   0.13007
 Alpha virt. eigenvalues --    0.13473   0.13528   0.13993   0.14372   0.15948
 Alpha virt. eigenvalues --    0.16359   0.16461   0.17341   0.17550   0.17816
 Alpha virt. eigenvalues --    0.18119   0.19068   0.19407   0.19634   0.19820
 Alpha virt. eigenvalues --    0.21540   0.21610   0.22674   0.23130   0.23576
 Alpha virt. eigenvalues --    0.23896   0.24545   0.25373   0.26939   0.27615
 Alpha virt. eigenvalues --    0.28834   0.29316   0.29908   0.31356   0.35748
 Alpha virt. eigenvalues --    0.36550   0.38189   0.39263   0.41092   0.41310
 Alpha virt. eigenvalues --    0.41959   0.42158   0.42986   0.43716   0.44362
 Alpha virt. eigenvalues --    0.44725   0.45158   0.46064   0.46269   0.47916
 Alpha virt. eigenvalues --    0.48434   0.48824   0.49015   0.50507   0.51140
 Alpha virt. eigenvalues --    0.51323   0.51990   0.52136   0.52826   0.54105
 Alpha virt. eigenvalues --    0.54107   0.54599   0.55665   0.55907   0.57511
 Alpha virt. eigenvalues --    0.58232   0.58904   0.61481   0.62242   0.62381
 Alpha virt. eigenvalues --    0.63178   0.63493   0.64924   0.65164   0.67389
 Alpha virt. eigenvalues --    0.70370   0.70509   0.71167   0.72474   0.72915
 Alpha virt. eigenvalues --    0.75686   0.76021   0.76344   0.76786   0.77152
 Alpha virt. eigenvalues --    0.77806   0.78016   0.78277   0.79908   0.80405
 Alpha virt. eigenvalues --    0.81207   0.81624   0.82329   0.82998   0.85234
 Alpha virt. eigenvalues --    0.87142   0.88215   0.88382   0.89196   0.90574
 Alpha virt. eigenvalues --    0.91080   0.91308   0.93250   0.94633   0.96405
 Alpha virt. eigenvalues --    0.96742   1.00339   1.01266   1.01582   1.02858
 Alpha virt. eigenvalues --    1.03194   1.03548   1.04823   1.05814   1.08834
 Alpha virt. eigenvalues --    1.19566   1.23123   1.24108   1.24807   1.28469
 Alpha virt. eigenvalues --    1.29540   1.31898   1.34291   1.35813   1.36001
 Alpha virt. eigenvalues --    1.39321   1.39981   1.40855   1.42995   1.43467
 Alpha virt. eigenvalues --    1.43581   1.44443   1.46243   1.46303   1.46654
 Alpha virt. eigenvalues --    1.47733   1.48099   1.51772   1.53650   1.55783
 Alpha virt. eigenvalues --    1.55789   1.56278   1.56577   1.57831   1.61473
 Alpha virt. eigenvalues --    1.63033   1.63317   1.64124   1.66091   1.68288
 Alpha virt. eigenvalues --    1.68344   1.68697   1.69773   1.74419   1.76013
 Alpha virt. eigenvalues --    1.77175   1.78191   1.79887   1.79934   1.80957
 Alpha virt. eigenvalues --    1.82941   1.83198   1.83593   1.83997   1.84211
 Alpha virt. eigenvalues --    1.84411   1.85569   1.86345   1.88318   1.91415
 Alpha virt. eigenvalues --    1.92116   1.94114   1.95298   1.97725   1.98193
 Alpha virt. eigenvalues --    1.99787   2.02419   2.04493   2.07322   2.11752
 Alpha virt. eigenvalues --    2.12174   2.14249   2.15264   2.19124   2.21277
 Alpha virt. eigenvalues --    2.22800   2.28501   2.30245   2.34570   2.34871
 Alpha virt. eigenvalues --    2.36285   2.38569   2.39710   2.42320   2.44589
 Alpha virt. eigenvalues --    2.46153   2.46517   2.49191   2.53061   2.53905
 Alpha virt. eigenvalues --    2.54273   2.56823   2.57911   2.58392   2.59475
 Alpha virt. eigenvalues --    2.59946   2.61571   2.62080   2.63604   2.63790
 Alpha virt. eigenvalues --    2.64807   2.65042   2.65099   2.65578   2.67897
 Alpha virt. eigenvalues --    2.68598   2.70924   2.71415   2.73390   2.74816
 Alpha virt. eigenvalues --    2.76292   2.78517   2.79678   2.83144   2.83164
 Alpha virt. eigenvalues --    2.84892   2.86288   2.92141   2.97058   2.99371
 Alpha virt. eigenvalues --    3.00219   3.05023   3.09964   3.11328   3.13854
 Alpha virt. eigenvalues --    3.20523   3.22633   3.26371   3.28727   3.30744
 Alpha virt. eigenvalues --    3.32730   3.34702   3.43780   3.46155   3.46820
 Alpha virt. eigenvalues --    3.48440   3.50026   3.56500   3.65758   3.66845
 Alpha virt. eigenvalues --    3.68023   3.93932   3.94161   3.95343   3.96332
 Alpha virt. eigenvalues --    4.03961   4.06748   4.07413   4.12480   4.35345
 Alpha virt. eigenvalues --    4.61042   4.69451   4.71276  23.45232  23.60151
 Alpha virt. eigenvalues --   23.80507  23.82508  23.85674  23.89064  23.92409
 Alpha virt. eigenvalues --   23.95173  23.96171  23.97980  24.02849  24.04709
 Alpha virt. eigenvalues --   24.11459  24.12123
          Condensed to atoms (all electrons):
               1          2          3          4          5          6
     1  C    8.794962   0.119566  -0.437526   2.124526  -0.069176  -0.103511
     2  C    0.119566   7.175818   0.239588  -1.135940   0.007175  -0.014444
     3  C   -0.437526   0.239588   6.582764   0.830735  -0.140833   0.016880
     4  C    2.124526  -1.135940   0.830735  10.473583  -0.381973  -0.113720
     5  C   -0.069176   0.007175  -0.140833  -0.381973  11.726602   0.722028
     6  C   -0.103511  -0.014444   0.016880  -0.113720   0.722028   6.634674
     7  C   -0.005992   0.000458  -0.014018  -0.033683  -1.055992   0.435344
     8  C    0.406457  -0.030398  -0.088163  -0.004567   1.870525  -0.616565
     9  C   -1.140478  -0.772376   0.301773  -0.369084  -0.016329   0.291967
    10  C   -1.345504   0.320828  -0.426534  -2.409961  -2.761643  -0.288706
    11  C    0.345455  -1.068787   1.170728  -0.017557  -1.653455  -0.241556
    12  C   -2.434023   1.699465  -1.512487  -1.680887  -0.440728  -0.109003
    13  C    0.265895  -0.313234  -0.098017  -1.336736  -0.579688   0.856554
    14  C   -1.020979  -0.093224  -0.297782  -0.275712  -1.615797  -1.349363
    15  H    0.368521  -0.107692   0.001786   0.027533   0.005015   0.001080
    16  H   -0.018044   0.376835  -0.013797   0.011682  -0.001440  -0.000320
    17  H   -0.031208  -0.009093   0.370437  -0.067982   0.000386   0.000403
    18  H    0.052119   0.002955  -0.084257   0.450853   0.006156  -0.005179
    19  H   -0.047366  -0.008393   0.052760  -0.056915  -0.086276   0.049907
    20  H    0.007248   0.002154  -0.005108   0.006177   0.468982  -0.084731
    21  H   -0.001340  -0.000388   0.000398   0.000206  -0.067819   0.378556
    22  H    0.000989   0.000394  -0.000337  -0.001588   0.015565  -0.019976
    23  H    0.004949  -0.002819   0.001132   0.006077   0.027458  -0.003829
    24  H    0.029825   0.013178  -0.001505  -0.011848  -0.012533  -0.001569
    25  H    0.029825   0.013178  -0.001505  -0.011848  -0.012533  -0.001569
               7          8          9         10         11         12
     1  C   -0.005992   0.406457  -1.140478  -1.345504   0.345455  -2.434023
     2  C    0.000458  -0.030398  -0.772376   0.320828  -1.068787   1.699465
     3  C   -0.014018  -0.088163   0.301773  -0.426534   1.170728  -1.512487
     4  C   -0.033683  -0.004567  -0.369084  -2.409961  -0.017557  -1.680887
     5  C   -1.055992   1.870525  -0.016329  -2.761643  -1.653455  -0.440728
     6  C    0.435344  -0.616565   0.291967  -0.288706  -0.241556  -0.109003
     7  C    7.164908   0.449755  -0.870089   0.191577  -0.203270  -0.275374
     8  C    0.449755   8.465608  -1.165012  -1.234437   0.189779  -1.161632
     9  C   -0.870089  -1.165012   9.644675   0.245161   1.583960  -1.754394
    10  C    0.191577  -1.234437   0.245161   9.150957  -0.601707   2.528406
    11  C   -0.203270   0.189779   1.583960  -0.601707  14.286283  -3.599266
    12  C   -0.275374  -1.161632  -1.754394   2.528406  -3.599266  16.070905
    13  C   -0.755269   0.297948   1.558789  -0.297454   1.065947  -4.893753
    14  C    1.090634  -1.874499  -2.115621   2.381077  -4.669292   3.081451
    15  H   -0.002385   0.006700   0.092772  -0.010376  -0.029496  -0.035241
    16  H    0.000328   0.000449   0.003148  -0.008789   0.024735  -0.031676
    17  H   -0.000407  -0.001301  -0.006240   0.020995  -0.030248   0.099592
    18  H    0.001987   0.007002  -0.025963   0.015172  -0.003065  -0.061915
    19  H   -0.007336  -0.045220   0.075124   0.421499   0.082685  -0.042605
    20  H    0.002658   0.048853  -0.023170   0.008766  -0.012200  -0.021814
    21  H   -0.021478  -0.020248  -0.005158   0.019543  -0.006333   0.005381
    22  H    0.380602  -0.019984   0.003286  -0.009777   0.003619  -0.010162
    23  H   -0.106252   0.367131   0.090795  -0.008790  -0.002361   0.007747
    24  H    0.015546   0.035672   0.356065   0.005334   0.003945  -0.059119
    25  H    0.015546   0.035672   0.356065   0.005334   0.003945  -0.059119
              13         14         15         16         17         18
     1  C    0.265895  -1.020979   0.368521  -0.018044  -0.031208   0.052119
     2  C   -0.313234  -0.093224  -0.107692   0.376835  -0.009093   0.002955
     3  C   -0.098017  -0.297782   0.001786  -0.013797   0.370437  -0.084257
     4  C   -1.336736  -0.275712   0.027533   0.011682  -0.067982   0.450853
     5  C   -0.579688  -1.615797   0.005015  -0.001440   0.000386   0.006156
     6  C    0.856554  -1.349363   0.001080  -0.000320   0.000403  -0.005179
     7  C   -0.755269   1.090634  -0.002385   0.000328  -0.000407   0.001987
     8  C    0.297948  -1.874499   0.006700   0.000449  -0.001301   0.007002
     9  C    1.558789  -2.115621   0.092772   0.003148  -0.006240  -0.025963
    10  C   -0.297454   2.381077  -0.010376  -0.008789   0.020995   0.015172
    11  C    1.065947  -4.669292  -0.029496   0.024735  -0.030248  -0.003065
    12  C   -4.893753   3.081451  -0.035241  -0.031676   0.099592  -0.061915
    13  C   14.678543  -3.880828   0.006574   0.002355  -0.006266  -0.011908
    14  C   -3.880828  16.179150   0.004423  -0.007896   0.005135  -0.007576
    15  H    0.006574   0.004423   0.444289  -0.009266   0.001402   0.000056
    16  H    0.002355  -0.007896  -0.009266   0.423068  -0.006381   0.001912
    17  H   -0.006266   0.005135   0.001402  -0.006381   0.424470  -0.010419
    18  H   -0.011908  -0.007576   0.000056   0.001912  -0.010419   0.456864
    19  H    0.076113  -0.088449   0.000266  -0.000527   0.001265  -0.006507
    20  H   -0.009930  -0.049919  -0.000110   0.000013  -0.000131   0.001260
    21  H   -0.023734   0.084647   0.000012  -0.000007   0.000010  -0.000156
    22  H    0.027702  -0.033228  -0.000129   0.000008  -0.000007   0.000017
    23  H   -0.032232  -0.014691   0.000570  -0.000126   0.000016  -0.000117
    24  H    0.022865  -0.060256  -0.000870   0.000638  -0.000146   0.000206
    25  H    0.022865  -0.060256  -0.000870   0.000638  -0.000146   0.000206
              19         20         21         22         23         24
     1  C   -0.047366   0.007248  -0.001340   0.000989   0.004949   0.029825
     2  C   -0.008393   0.002154  -0.000388   0.000394  -0.002819   0.013178
     3  C    0.052760  -0.005108   0.000398  -0.000337   0.001132  -0.001505
     4  C   -0.056915   0.006177   0.000206  -0.001588   0.006077  -0.011848
     5  C   -0.086276   0.468982  -0.067819   0.015565   0.027458  -0.012533
     6  C    0.049907  -0.084731   0.378556  -0.019976  -0.003829  -0.001569
     7  C   -0.007336   0.002658  -0.021478   0.380602  -0.106252   0.015546
     8  C   -0.045220   0.048853  -0.020248  -0.019984   0.367131   0.035672
     9  C    0.075124  -0.023170  -0.005158   0.003286   0.090795   0.356065
    10  C    0.421499   0.008766   0.019543  -0.009777  -0.008790   0.005334
    11  C    0.082685  -0.012200  -0.006333   0.003619  -0.002361   0.003945
    12  C   -0.042605  -0.021814   0.005381  -0.010162   0.007747  -0.059119
    13  C    0.076113  -0.009930  -0.023734   0.027702  -0.032232   0.022865
    14  C   -0.088449  -0.049919   0.084647  -0.033228  -0.014691  -0.060256
    15  H    0.000266  -0.000110   0.000012  -0.000129   0.000570  -0.000870
    16  H   -0.000527   0.000013  -0.000007   0.000008  -0.000126   0.000638
    17  H    0.001265  -0.000131   0.000010  -0.000007   0.000016  -0.000146
    18  H   -0.006507   0.001260  -0.000156   0.000017  -0.000117   0.000206
    19  H    0.443475  -0.006038   0.001578  -0.000553   0.000362   0.000595
    20  H   -0.006038   0.450521  -0.010043   0.001944   0.000264   0.000158
    21  H    0.001578  -0.010043   0.419944  -0.006748   0.001518  -0.000138
    22  H   -0.000553   0.001944  -0.006748   0.415598  -0.008707   0.000624
    23  H    0.000362   0.000264   0.001518  -0.008707   0.434228  -0.000923
    24  H    0.000595   0.000158  -0.000138   0.000624  -0.000923   0.493631
    25  H    0.000595   0.000158  -0.000138   0.000624  -0.000923  -0.079485
              25
     1  C    0.029825
     2  C    0.013178
     3  C   -0.001505
     4  C   -0.011848
     5  C   -0.012533
     6  C   -0.001569
     7  C    0.015546
     8  C    0.035672
     9  C    0.356065
    10  C    0.005334
    11  C    0.003945
    12  C   -0.059119
    13  C    0.022865
    14  C   -0.060256
    15  H   -0.000870
    16  H    0.000638
    17  H   -0.000146
    18  H    0.000206
    19  H    0.000595
    20  H    0.000158
    21  H   -0.000138
    22  H    0.000624
    23  H   -0.000923
    24  H   -0.079485
    25  H    0.493631
 Mulliken charges:
               1
     1  C    0.104811
     2  C   -0.414805
     3  C   -0.447116
     4  C   -0.021372
     5  C    0.046322
     6  C   -0.433352
     7  C   -0.397796
     8  C    0.080474
     9  C   -0.339665
    10  C    0.089028
    11  C   -0.622487
    12  C    0.690250
    13  C   -0.643101
    14  C    0.688849
    15  H    0.235439
    16  H    0.252462
    17  H    0.245864
    18  H    0.220297
    19  H    0.189960
    20  H    0.224037
    21  H    0.251935
    22  H    0.260221
    23  H    0.239525
    24  H    0.250111
    25  H    0.250111
 Sum of Mulliken charges =   1.00000
 Mulliken charges with hydrogens summed into heavy atoms:
               1
     1  C    0.340250
     2  C   -0.162344
     3  C   -0.201252
     4  C    0.198925
     5  C    0.270359
     6  C   -0.181418
     7  C   -0.137575
     8  C    0.319999
     9  C    0.160558
    10  C    0.278988
    11  C   -0.622487
    12  C    0.690250
    13  C   -0.643101
    14  C    0.688849
 Electronic spatial extent (au):  <R**2>=           2855.9680
 Charge=              1.0000 electrons
 Dipole moment (field-independent basis, Debye):
    X=              0.2715    Y=             -0.8892    Z=              0.0000  Tot=              0.9297
 Quadrupole moment (field-independent basis, Debye-Ang):
   XX=            -50.8630   YY=            -36.4411   ZZ=            -84.1327
   XY=            -10.3629   XZ=              0.0000   YZ=             -0.0000
 Traceless Quadrupole moment (field-independent basis, Debye-Ang):
   XX=              6.2826   YY=             20.7045   ZZ=            -26.9871
   XY=            -10.3629   XZ=              0.0000   YZ=             -0.0000
 Octapole moment (field-independent basis, Debye-Ang**2):
  XXX=              2.5439  YYY=             -3.3700  ZZZ=             -0.0000  XYY=              3.4415
  XXY=             -7.8597  XXZ=              0.0000  XZZ=              3.3287  YZZ=              0.3173
  YYZ=              0.0000  XYZ=              0.0000
 Hexadecapole moment (field-independent basis, Debye-Ang**3):
 XXXX=           -985.3326 YYYY=          -1854.6015 ZZZZ=            -99.3121 XXXY=            345.6563
 XXXZ=              0.0000 YYYX=            272.9401 YYYZ=             -0.0000 ZZZX=              0.0000
 ZZZY=              0.0000 XXYY=           -453.0535 XXZZ=           -241.3443 YYZZ=           -495.0279
 XXYZ=              0.0000 YYXZ=              0.0000 ZZXY=            182.7731
 N-N= 7.812313801718D+02 E-N=-2.798817997102D+03  KE= 5.375245235625D+02
 Symmetry A'   KE= 5.228723630148D+02
 Symmetry A"   KE= 1.465216054775D+01
 Unable to Open any file for archive entry.
 1\1\GINC-GADI-CPU-CLX-2072\SP\RM062X TD-FC\6-311++G(d,p)\C14H11(1+)\TS
 1578\28-Jul-2022\0\\#n M062X/6-311++G(d,p) TD(NStates=1) EmpiricalDisp
 ersion=GD3 SP\\SP_-10\\1,1\C,0,0.,2.510255,1.360631\C,0,0.,3.718308,0.
 679789\C,0,0.,3.692461,-0.69803\C,0,0.,2.443556,-1.400138\C,0,0.,-2.48
 2756,-1.414938\C,0,0.,-3.675261,-0.72963\C,0,0.,-3.684708,0.664189\C,0
 ,0.,-2.475055,1.360231\C,0,0.,0.0064,1.453369\C,0,0.,-0.0322,-1.429189
 \C,0,0.,1.254055,0.663065\C,0,0.,1.230271,-0.726204\C,0,0.,-1.270055,0
 .691065\C,0,0.,-1.244671,-0.735404\H,0,0.,2.486871,2.443647\H,0,0.,4.6
 51553,1.221689\H,0,0.,4.607462,-1.274349\H,0,0.,2.46555,-2.482459\H,0,
 0.,-0.022,-2.510266\H,0,0.,-2.46955,-2.497659\H,0,0.,-4.611062,-1.2703
 49\H,0,0.,-4.621953,1.201689\H,0,0.,-2.489271,2.443647\H,0,-0.859585,0
 .0388,2.145787\H,0,0.859585,0.0388,2.145787\\Version=ES64L-G16RevC.01\
 State=1-A'\HF=-539.7563254\RMSD=8.347e-09\PG=CS [SG(C14H9),X(H2)]\\@
 The archive entry for this job was punched.


 I FIND THAT THE THREE TRULY GREAT TIMES FOR THINKING THOUGHTS
 ARE WHEN I AM STANDING IN THE SHOWER, SITTING ON THE JOHN, OR WALKING.

                                    -- COLIN FLETCHER
 Job cpu time:       0 days  0 hours 52 minutes 10.5 seconds.
 Elapsed time:       0 days  0 hours  1 minutes  5.5 seconds.
 File lengths (MBytes):  RWF=    460 Int=      0 D2E=      0 Chk=     15 Scr=      1
 Normal termination of Gaussian 16 at Thu Jul 28 13:30:39 2022.
