 Entering Gaussian System, Link 0=g16
 Initial command:
 /apps/gaussian/g16c01/g16/l1.exe "/jobfs/53827536.gadi-pbs/Gau-1598555.inp" -scrdir="/jobfs/53827536.gadi-pbs/"
 Entering Link 1 = /apps/gaussian/g16c01/g16/l1.exe PID=   1598556.
  
 Copyright (c) 1988-2019, Gaussian, Inc.  All Rights Reserved.
  
 This is part of the Gaussian(R) 16 program.  It is based on
 the Gaussian(R) 09 system (copyright 2009, Gaussian, Inc.),
 the Gaussian(R) 03 system (copyright 2003, Gaussian, Inc.),
 the Gaussian(R) 98 system (copyright 1998, Gaussian, Inc.),
 the Gaussian(R) 94 system (copyright 1995, Gaussian, Inc.),
 the Gaussian 92(TM) system (copyright 1992, Gaussian, Inc.),
 the Gaussian 90(TM) system (copyright 1990, Gaussian, Inc.),
 the Gaussian 88(TM) system (copyright 1988, Gaussian, Inc.),
 the Gaussian 86(TM) system (copyright 1986, Carnegie Mellon
 University), and the Gaussian 82(TM) system (copyright 1983,
 Carnegie Mellon University). Gaussian is a federally registered
 trademark of Gaussian, Inc.
  
 This software contains proprietary and confidential information,
 including trade secrets, belonging to Gaussian, Inc.
  
 This software is provided under written license and may be
 used, copied, transmitted, or stored only in accord with that
 written license.
  
 The following legend is applicable only to US Government
 contracts under FAR:
  
                    RESTRICTED RIGHTS LEGEND
  
 Use, reproduction and disclosure by the US Government is
 subject to restrictions as set forth in subparagraphs (a)
 and (c) of the Commercial Computer Software - Restricted
 Rights clause in FAR 52.227-19.
  
 Gaussian, Inc.
 340 Quinnipiac St., Bldg. 40, Wallingford CT 06492
  
  
 ---------------------------------------------------------------
 Warning -- This program may not be used in any manner that
 competes with the business of Gaussian, Inc. or will provide
 assistance to any competitor of Gaussian, Inc.  The licensee
 of this program is prohibited from giving any competitor of
 Gaussian, Inc. access to this program.  By using this program,
 the user acknowledges that Gaussian, Inc. is engaged in the
 business of creating and licensing software in the field of
 computational chemistry and represents and warrants to the
 licensee that it is not a competitor of Gaussian, Inc. and that
 it will not use this program in any manner prohibited above.
 ---------------------------------------------------------------
  

 Cite this work as:
 Gaussian 16, Revision C.01,
 M. J. Frisch, G. W. Trucks, H. B. Schlegel, G. E. Scuseria, 
 M. A. Robb, J. R. Cheeseman, G. Scalmani, V. Barone, 
 G. A. Petersson, H. Nakatsuji, X. Li, M. Caricato, A. V. Marenich, 
 J. Bloino, B. G. Janesko, R. Gomperts, B. Mennucci, H. P. Hratchian, 
 J. V. Ortiz, A. F. Izmaylov, J. L. Sonnenberg, D. Williams-Young, 
 F. Ding, F. Lipparini, F. Egidi, J. Goings, B. Peng, A. Petrone, 
 T. Henderson, D. Ranasinghe, V. G. Zakrzewski, J. Gao, N. Rega, 
 G. Zheng, W. Liang, M. Hada, M. Ehara, K. Toyota, R. Fukuda, 
 J. Hasegawa, M. Ishida, T. Nakajima, Y. Honda, O. Kitao, H. Nakai, 
 T. Vreven, K. Throssell, J. A. Montgomery, Jr., J. E. Peralta, 
 F. Ogliaro, M. J. Bearpark, J. J. Heyd, E. N. Brothers, K. N. Kudin, 
 V. N. Staroverov, T. A. Keith, R. Kobayashi, J. Normand, 
 K. Raghavachari, A. P. Rendell, J. C. Burant, S. S. Iyengar, 
 J. Tomasi, M. Cossi, J. M. Millam, M. Klene, C. Adamo, R. Cammi, 
 J. W. Ochterski, R. L. Martin, K. Morokuma, O. Farkas, 
 J. B. Foresman, and D. J. Fox, Gaussian, Inc., Wallingford CT, 2019.
 
 ******************************************
 Gaussian 16:  ES64L-G16RevC.01  3-Jul-2019
                 2-Aug-2022 
 ******************************************
 %NProcShared=48
 Will use up to   48 processors via shared memory.
 %mem = 190GB
 ---------------------------------------------------------------
 #n M062X/6-311++G(d,p) TD(NStates=1) EmpiricalDispersion=GD3 SP
 ---------------------------------------------------------------
 1/38=1,172=1/1;
 2/12=2,17=6,18=5,40=1/2;
 3/5=4,6=6,7=1111,11=9,25=1,30=1,74=-55,124=31/1,2,3,8;
 4//1;
 5/5=2,38=5/2;
 8/6=1,10=2,108=1/1;
 9/41=1,42=1,70=2/14;
 6/7=2,8=2,9=2,10=2/1;
 99/5=1,9=1/99;
 -----
 SP_-2
 -----
 Symbolic Z-matrix:
 Charge =  1 Multiplicity = 1
 C                     0.        2.49866   1.33843 
 C                     0.        3.72751   0.69799 
 C                     0.        3.71786  -0.66983 
 C                     0.        2.44716  -1.40954 
 C                     0.       -2.47916  -1.40554 
 C                     0.       -3.64986  -0.75783 
 C                     0.       -3.67551   0.64599 
 C                     0.       -2.48666   1.38243 
 C                     0.        0.024     1.45337 
 C                     0.       -0.07     -1.42919 
 C                     0.        1.23206   0.61307 
 C                     0.        1.22747  -0.7668 
 C                     0.       -1.29206   0.74107 
 C                     0.       -1.24747  -0.6948 
 H                     0.        2.44407   2.42165 
 H                     0.        4.64875   1.25969 
 H                     0.        4.63926  -1.23835 
 H                     0.        2.50155  -2.49206 
 H                     0.       -0.112    -2.51027 
 H                     0.       -2.43355  -2.48806 
 H                     0.       -4.57926  -1.30635 
 H                     0.       -4.62475   1.16369 
 H                     0.       -2.53207   2.46565 
 H                    -0.85959   0.136     2.14579 
 H                     0.85959   0.136     2.14579 
 
                          Input orientation:                          
 ---------------------------------------------------------------------
 Center     Atomic      Atomic             Coordinates (Angstroms)
 Number     Number       Type             X           Y           Z
 ---------------------------------------------------------------------
      1          6           0        0.000000    2.498655    1.338431
      2          6           0        0.000000    3.727508    0.697989
      3          6           0        0.000000    3.717861   -0.669830
      4          6           0        0.000000    2.447156   -1.409538
      5          6           0        0.000000   -2.479156   -1.405538
      6          6           0        0.000000   -3.649861   -0.757830
      7          6           0        0.000000   -3.675508    0.645989
      8          6           0        0.000000   -2.486655    1.382431
      9          6           0        0.000000    0.024000    1.453369
     10          6           0        0.000000   -0.070000   -1.429189
     11          6           0        0.000000    1.232055    0.613065
     12          6           0        0.000000    1.227471   -0.766804
     13          6           0        0.000000   -1.292055    0.741065
     14          6           0        0.000000   -1.247471   -0.694804
     15          1           0        0.000000    2.444071    2.421647
     16          1           0        0.000000    4.648753    1.259689
     17          1           0        0.000000    4.639262   -1.238349
     18          1           0        0.000000    2.501550   -2.492059
     19          1           0        0.000000   -0.112000   -2.510266
     20          1           0        0.000000   -2.433550   -2.488059
     21          1           0        0.000000   -4.579262   -1.306349
     22          1           0        0.000000   -4.624753    1.163689
     23          1           0        0.000000   -2.532071    2.465647
     24          1           0       -0.859585    0.136000    2.145787
     25          1           0        0.859585    0.136000    2.145787
 ---------------------------------------------------------------------
                    Distance matrix (angstroms):
                    1          2          3          4          5
     1  C    0.000000
     2  C    1.385729   0.000000
     3  C    2.349378   1.367853   0.000000
     4  C    2.748452   2.465963   1.470326   0.000000
     5  C    5.684010   6.553435   6.240536   4.926314   0.000000
     6  C    6.496042   7.519640   7.368248   6.131748   1.337937
     7  C    6.212871   7.403199   7.509546   6.458499   2.374873
     8  C    4.985504   6.251742   6.535120   5.669002   2.787979
     9  C    2.477323   3.779758   4.260585   3.750723   3.799887
    10  C    3.775938   4.352695   3.863226   2.517233   2.409272
    11  C    1.459600   2.496898   2.797329   2.359532   4.224671
    12  C    2.459253   2.897551   2.492277   1.378673   3.761258
    13  C    3.837490   5.019748   5.204794   4.313559   2.452980
    14  C    4.262336   5.166264   4.965395   3.763125   1.422038
    15  H    1.084590   2.149001   3.343616   3.831186   6.235825
    16  H    2.151539   1.078981   2.142336   3.460029   7.609896
    17  H    3.349924   2.140257   1.082679   2.198780   7.120381
    18  H    3.830491   3.417511   2.190874   1.083887   5.097839
    19  H    4.650590   5.003471   4.249122   2.785836   2.612250
    20  H    6.242489   6.936104   6.414500   4.998450   1.083481
    21  H    7.555910   8.545162   8.321503   7.027176   2.102447
    22  H    7.125551   8.365234   8.541721   7.525516   3.347314
    23  H    5.155465   6.504379   6.992343   6.309498   3.871547
    24  H    2.640615   3.966602   4.636412   4.326738   4.493310
    25  H    2.640615   3.966602   4.636412   4.326738   4.493310
                    6          7          8          9         10
     6  C    0.000000
     7  C    1.404053   0.000000
     8  C    2.435932   1.398470   0.000000
     9  C    4.287966   3.786584   2.511657   0.000000
    10  C    3.642270   4.160054   3.707483   2.884090   0.000000
    11  C    5.070745   4.907673   3.797463   1.471566   2.422013
    12  C    4.877340   5.102469   4.291147   2.525373   1.456772
    13  C    2.793910   2.385349   1.355883   1.496455   2.490667
    14  C    2.403217   2.773642   2.418777   2.496254   1.387717
    15  H    6.873506   6.371986   5.039050   2.606589   4.598858
    16  H    8.540338   8.346853   7.136464   4.628807   5.431086
    17  H    8.303039   8.525616   7.592574   5.342845   4.713127
    18  H    6.391198   6.928448   6.316159   4.658826   2.782546
    19  H    3.948100   4.760308   4.559833   3.965968   1.081893
    20  H    2.114972   3.371160   3.870854   4.644826   2.589899
    21  H    1.079194   2.151370   3.407131   5.367128   4.510935
    22  H    2.154681   1.081240   2.149258   4.657770   5.241068
    23  H    3.411782   2.149094   1.084168   2.749219   4.607770
    24  H    4.847950   4.185197   2.863550   1.109447   3.682632
    25  H    4.847950   4.185197   2.863550   1.109447   3.682632
                   11         12         13         14         15
    11  C    0.000000
    12  C    1.379877   0.000000
    13  C    2.527353   2.936270   0.000000
    14  C    2.803314   2.475989   1.436561   0.000000
    15  H    2.177143   3.412673   4.096705   4.831123   0.000000
    16  H    3.477348   3.976411   5.963403   6.211723   2.492141
    17  H    3.877730   3.444223   6.252887   5.911774   4.267837
    18  H    3.354611   2.144710   4.984429   4.157557   4.914042
    19  H    3.400247   2.198600   3.458856   2.141307   5.554932
    20  H    4.801420   4.045466   3.424946   2.150011   6.920722
    21  H    6.120094   5.831746   3.872678   3.387450   7.951425
    22  H    5.882634   6.162413   3.359388   3.854871   7.179884
    23  H    4.195319   4.958114   2.124105   3.411546   4.976337
    24  H    2.071101   3.226977   2.179787   3.274421   2.478342
    25  H    2.071101   3.226977   2.179787   3.274421   2.478342
                   16         17         18         19         20
    16  H    0.000000
    17  H    2.498056   0.000000
    18  H    4.322741   2.478225   0.000000
    19  H    6.072671   4.918563   2.613613   0.000000
    20  H    8.012779   7.182370   4.935102   2.321656   0.000000
    21  H    9.578142   9.218775   7.179402   4.626645   2.449596
    22  H    9.274003   9.570358   8.009288   5.819183   4.258713
    23  H    7.281385   8.071407   7.065139   5.533214   4.954686
    24  H    4.678568   5.698301   5.276773   4.741226   5.367868
    25  H    4.678568   5.698301   5.276773   4.741226   5.367868
                   21         22         23         24         25
    21  H    0.000000
    22  H    2.470457   0.000000
    23  H    4.291730   2.464632   0.000000
    24  H    5.906761   4.936413   2.821312   0.000000
    25  H    5.906761   4.936413   2.821312   1.719170   0.000000
 Stoichiometry    C14H11(1+)
 Framework group  CS[SG(C14H9),X(H2)]
 Deg. of freedom    46
 Full point group                 CS      NOp   2
 Largest Abelian subgroup         CS      NOp   2
 Largest concise Abelian subgroup CS      NOp   2
                         Standard orientation:                         
 ---------------------------------------------------------------------
 Center     Atomic      Atomic             Coordinates (Angstroms)
 Number     Number       Type             X           Y           Z
 ---------------------------------------------------------------------
      1          6           0        0.084814    2.832650    0.000000
      2          6           0       -1.036196    3.647255    0.000000
      3          6           0       -2.256345    3.028984    0.000000
      4          6           0       -2.352169    1.561784    0.000000
      5          6           0       -0.152940   -2.846386    0.000000
      6          6           0        0.948658   -3.605699    0.000000
      7          6           0        2.216765   -3.002978    0.000000
      8          6           0        2.346146   -1.610506    0.000000
      9          6           0        1.290654    0.668607    0.000000
     10          6           0       -1.247868   -0.700290    0.000000
     11          6           0        0.000000    1.375516    0.000000
     12          6           0       -1.233193    0.756408    0.000000
     13          6           0        1.239575   -0.826976    0.000000
     14          6           0       -0.065662   -1.427029    0.000000
     15          1           0        1.078819    3.266574    0.000000
     16          1           0       -0.943969    4.722286    0.000000
     17          1           0       -3.175941    3.600419    0.000000
     18          1           0       -3.345467    1.127999    0.000000
     19          1           0       -2.196911   -1.219722    0.000000
     20          1           0       -1.142321   -3.288037    0.000000
     21          1           0        0.871866   -4.682157    0.000000
     22          1           0        3.103278   -3.621989    0.000000
     23          1           0        3.336064   -1.168374    0.000000
     24          1           0        1.860577    1.077477    0.859585
     25          1           0        1.860577    1.077477   -0.859585
 ---------------------------------------------------------------------
 Rotational constants (GHZ):           2.1345394           0.4445393           0.3687165
 Standard basis: 6-311++G(d,p) (5D, 7F)
 There are   299 symmetry adapted cartesian basis functions of A'  symmetry.
 There are   100 symmetry adapted cartesian basis functions of A"  symmetry.
 There are   285 symmetry adapted basis functions of A'  symmetry.
 There are   100 symmetry adapted basis functions of A"  symmetry.
   385 basis functions,   603 primitive gaussians,   399 cartesian basis functions
    47 alpha electrons       47 beta electrons
       nuclear repulsion energy       781.1839364510 Hartrees.
 NAtoms=   25 NActive=   25 NUniq=   24 SFac= 1.09D+00 NAtFMM=   60 NAOKFM=F Big=F
 Integral buffers will be    131072 words long.
 Regular integral format.
 Two-electron integral symmetry is turned on.
 Nuclear repulsion after empirical dispersion term =      781.1829577803 Hartrees.
 One-electron integrals computed using PRISM.
 NBasis=   385 RedAO= T EigKep=  1.08D-06  NBF=   285   100
 NBsUse=   379 1.00D-06 EigRej=  8.37D-07 NBFU=   279   100
 ExpMin= 3.60D-02 ExpMax= 4.56D+03 ExpMxC= 6.82D+02 IAcc=3 IRadAn=         5 AccDes= 0.00D+00
 Harris functional with IExCor= 1009 and IRadAn=       5 diagonalized for initial guess.
 HarFok:  IExCor= 1009 AccDes= 0.00D+00 IRadAn=         5 IDoV= 1 UseB2=F ITyADJ=14
 ICtDFT=  3500011 ScaDFX=  1.000000  1.000000  1.000000  1.000000
 FoFCou: FMM=F IPFlag=           0 FMFlag=      100000 FMFlg1=           0
         NFxFlg=           0 DoJE=T BraDBF=F KetDBF=T FulRan=T
         wScrn=  0.000000 ICntrl=       500 IOpCl=  0 I1Cent=   200000004 NGrid=           0
         NMat0=    1 NMatS0=      1 NMatT0=    0 NMatD0=    1 NMtDS0=    0 NMtDT0=    0
 Petite list used in FoFCou.
 Initial guess orbital symmetries:
       Occupied  (A') (A') (A') (A') (A') (A') (A') (A') (A') (A')
                 (A') (A') (A') (A') (A') (A') (A') (A') (A') (A')
                 (A') (A') (A') (A') (A') (A') (A') (A') (A') (A')
                 (A') (A') (A") (A') (A') (A') (A') (A') (A") (A')
                 (A') (A") (A') (A") (A") (A") (A")
       Virtual   (A") (A") (A") (A") (A") (A') (A') (A') (A') (A")
                 (A") (A') (A') (A') (A") (A') (A') (A') (A') (A")
                 (A') (A") (A') (A') (A') (A") (A') (A') (A") (A')
                 (A') (A') (A') (A') (A") (A') (A') (A") (A') (A')
                 (A") (A') (A") (A') (A') (A') (A') (A') (A") (A')
                 (A') (A') (A") (A") (A') (A') (A') (A") (A") (A')
                 (A') (A') (A') (A') (A') (A') (A") (A') (A') (A")
                 (A') (A') (A') (A') (A') (A') (A') (A') (A') (A')
                 (A') (A') (A') (A') (A') (A') (A') (A') (A') (A')
                 (A') (A') (A') (A') (A') (A') (A') (A") (A") (A')
                 (A') (A") (A') (A") (A') (A") (A') (A") (A") (A')
                 (A") (A') (A') (A') (A") (A') (A') (A") (A") (A')
                 (A") (A") (A') (A') (A') (A") (A') (A') (A') (A")
                 (A') (A') (A') (A') (A') (A') (A") (A') (A') (A')
                 (A') (A') (A') (A') (A') (A') (A') (A') (A') (A")
                 (A") (A') (A") (A") (A') (A') (A') (A") (A') (A")
                 (A") (A') (A") (A") (A") (A') (A') (A') (A') (A')
                 (A') (A") (A') (A') (A") (A') (A') (A') (A') (A")
                 (A') (A') (A') (A") (A') (A') (A") (A') (A") (A")
                 (A") (A') (A') (A') (A") (A') (A') (A") (A') (A')
                 (A") (A") (A") (A') (A') (A") (A') (A") (A') (A')
                 (A") (A") (A') (A") (A') (A') (A") (A') (A') (A')
                 (A") (A') (A') (A') (A") (A') (A') (A') (A") (A")
                 (A') (A') (A') (A") (A') (A') (A") (A') (A") (A')
                 (A") (A') (A') (A') (A') (A") (A') (A') (A') (A")
                 (A') (A') (A') (A") (A") (A') (A') (A") (A') (A')
                 (A') (A") (A') (A") (A') (A') (A') (A") (A') (A")
                 (A') (A') (A') (A') (A") (A") (A') (A') (A") (A')
                 (A") (A') (A") (A") (A") (A') (A') (A') (A') (A')
                 (A') (A') (A') (A') (A') (A') (A') (A') (A') (A')
                 (A') (A') (A') (A") (A') (A') (A') (A') (A') (A')
                 (A') (A') (A') (A') (A') (A') (A') (A') (A') (A')
                 (A') (A') (A') (A') (A') (A') (A') (A') (A') (A')
                 (A') (A')
 The electronic state of the initial guess is 1-A'.
 Requested convergence on RMS density matrix=1.00D-08 within 128 cycles.
 Requested convergence on MAX density matrix=1.00D-06.
 Requested convergence on             energy=1.00D-06.
 No special actions if energy rises.
 SCF Done:  E(RM062X) =  -539.742387767     A.U. after   16 cycles
            NFock= 16  Conv=0.37D-08     -V/T= 2.0041
 DoSCS=F DFT=T ScalE2(SS,OS)=  1.000000  1.000000
 ExpMin= 3.60D-02 ExpMax= 4.56D+03 ExpMxC= 6.82D+02 IAcc=3 IRadAn=         5 AccDes= 0.00D+00
 HarFok:  IExCor=  205 AccDes= 0.00D+00 IRadAn=         5 IDoV=-2 UseB2=F ITyADJ=14
 ICtDFT= 12500011 ScaDFX=  1.000000  1.000000  1.000000  1.000000
 Range of M.O.s used for correlation:    15   379
 NBasis=   385 NAE=    47 NBE=    47 NFC=    14 NFV=     0
 NROrb=    365 NOA=    33 NOB=    33 NVA=   332 NVB=   332

 **** Warning!!: The largest alpha MO coefficient is  0.13282759D+03

 Orbital symmetries:
       Occupied  (A') (A') (A') (A') (A') (A') (A') (A') (A') (A')
                 (A') (A') (A') (A') (A') (A') (A') (A') (A') (A')
                 (A') (A') (A') (A') (A') (A') (A') (A') (A') (A')
                 (A') (A") (A') (A') (A') (A') (A') (A") (A') (A")
                 (A') (A') (A') (A") (A") (A") (A")
       Virtual   (A") (A") (A") (A") (A') (A') (A') (A') (A") (A')
                 (A') (A") (A') (A') (A") (A') (A") (A') (A') (A')
                 (A") (A") (A') (A') (A') (A") (A') (A") (A') (A')
                 (A") (A') (A") (A') (A') (A') (A') (A') (A") (A')
                 (A") (A') (A') (A") (A") (A') (A") (A') (A") (A')
                 (A') (A') (A') (A') (A') (A") (A') (A') (A') (A')
                 (A') (A") (A') (A') (A') (A") (A') (A') (A') (A')
                 (A') (A') (A') (A') (A') (A') (A') (A') (A') (A')
                 (A') (A') (A') (A') (A') (A') (A') (A') (A') (A')
                 (A') (A') (A') (A') (A") (A') (A") (A") (A') (A")
                 (A') (A') (A') (A') (A") (A") (A') (A") (A") (A')
                 (A') (A') (A") (A') (A") (A') (A') (A") (A') (A")
                 (A") (A') (A") (A') (A') (A') (A") (A') (A') (A')
                 (A') (A') (A') (A') (A') (A') (A') (A') (A') (A')
                 (A') (A') (A') (A") (A') (A') (A') (A') (A') (A')
                 (A') (A") (A') (A') (A") (A') (A") (A") (A') (A")
                 (A") (A') (A') (A") (A') (A") (A") (A") (A') (A')
                 (A') (A') (A") (A') (A') (A") (A') (A') (A") (A')
                 (A') (A') (A') (A") (A") (A') (A') (A") (A") (A')
                 (A") (A') (A') (A") (A') (A") (A') (A') (A') (A')
                 (A") (A") (A") (A') (A") (A') (A') (A") (A') (A')
                 (A') (A") (A") (A') (A") (A') (A") (A') (A') (A")
                 (A') (A') (A') (A') (A") (A') (A') (A') (A") (A")
                 (A') (A') (A') (A") (A') (A') (A') (A") (A") (A')
                 (A") (A') (A') (A") (A') (A') (A') (A') (A') (A')
                 (A") (A') (A') (A') (A') (A") (A") (A") (A') (A')
                 (A') (A') (A') (A') (A') (A') (A") (A') (A') (A')
                 (A') (A") (A') (A") (A") (A") (A') (A") (A') (A")
                 (A') (A") (A") (A') (A") (A") (A') (A') (A') (A')
                 (A') (A') (A') (A') (A') (A') (A') (A') (A') (A')
                 (A') (A') (A') (A") (A') (A') (A') (A') (A') (A')
                 (A') (A') (A') (A') (A') (A') (A') (A') (A') (A')
                 (A') (A') (A') (A') (A') (A') (A') (A') (A') (A')
                 (A') (A')
     4 initial guesses have been made.
 Convergence on wavefunction:    0.001000000000000
 Iteration     1 Dimension     4 NMult     0 NNew      4
 CISAX will form     4 AO SS matrices at one time.
 Iteration     2 Dimension     6 NMult     4 NNew      2
 Iteration     3 Dimension     8 NMult     6 NNew      2
 Iteration     4 Dimension    10 NMult     8 NNew      2
 Iteration     5 Dimension    12 NMult    10 NNew      2
 Iteration     6 Dimension    14 NMult    12 NNew      2
 ***********************************************************************
 Excited states from <AA,BB:AA,BB> singles matrix:
 ***********************************************************************
 
 Ground to excited state transition densities written to RWF  633
 Ground to excited state transition electric dipole moments (Au):
       state          X           Y           Z        Dip. S.      Osc.
         1        -0.4119     -0.2997     -0.0000      0.2595      0.0160
 Ground to excited state transition velocity dipole moments (Au):
       state          X           Y           Z        Dip. S.      Osc.
         1         0.0463      0.0265     -0.0000      0.0028      0.0204
 Ground to excited state transition magnetic dipole moments (Au):
       state          X           Y           Z
         1         0.0000     -0.0000     -0.1297
 Ground to excited state transition velocity quadrupole moments (Au):
       state          XX          YY          ZZ          XY          XZ          YZ
         1        -0.1315     -0.0948      0.0070      0.1309      0.0000     -0.0000
 <0|del|b> * <b|rxdel|0> + <0|del|b> * <b|delr+rdel|0>
 Rotatory Strengths (R) in cgs (10**-40 erg-esu-cm/Gauss)
       state          XX          YY          ZZ    R(velocity)    E-M Angle
         1        -0.0000      0.0000      0.0000      0.0000       90.00
 1/2[<0|r|b>*<b|rxdel|0> + (<0|rxdel|b>*<b|r|0>)*]
 Rotatory Strengths (R) in cgs (10**-40 erg-esu-cm/Gauss)
       state          XX          YY          ZZ     R(length)
         1         0.0000     -0.0000     -0.0000     -0.0000
  1/2[<0|del|b>*<b|r|0> + (<0|r|b>*<b|del|0>)*] (Au)
       state          X           Y           Z        Dip. S.   Osc.(frdel)
         1        -0.0191     -0.0080      0.0000      0.0270      0.0180

 Excitation energies and oscillator strengths:
 
 Excited State   1:      Singlet-A'     2.5243 eV  491.15 nm  f=0.0160  <S**2>=0.000
      47 -> 48         0.70328
 This state for optimization and/or second-order correction.
 Total Energy, E(TD-HF/TD-DFT) =  -539.649619676    
 Copying the excited state density for this state as the 1-particle RhoCI density.
 SavETr:  write IOETrn=   770 NScale= 10 NData=  16 NLR=1 NState=    1 LETran=      28.

 **********************************************************************

            Population analysis using the SCF Density.

 **********************************************************************

 Orbital symmetries:
       Occupied  (A') (A') (A') (A') (A') (A') (A') (A') (A') (A')
                 (A') (A') (A') (A') (A') (A') (A') (A') (A') (A')
                 (A') (A') (A') (A') (A') (A') (A') (A') (A') (A')
                 (A') (A") (A') (A') (A') (A') (A') (A") (A') (A")
                 (A') (A') (A') (A") (A") (A") (A")
       Virtual   (A") (A") (A") (A") (A') (A') (A') (A') (A") (A')
                 (A') (A") (A') (A') (A") (A') (A") (A') (A') (A')
                 (A") (A") (A') (A') (A') (A") (A') (A") (A') (A')
                 (A") (A') (A") (A') (A') (A') (A') (A') (A") (A')
                 (A") (A') (A') (A") (A") (A') (A") (A') (A") (A')
                 (A') (A') (A') (A') (A') (A") (A') (A') (A') (A')
                 (A') (A") (A') (A') (A') (A") (A') (A') (A') (A')
                 (A') (A') (A') (A') (A') (A') (A') (A') (A') (A')
                 (A') (A') (A') (A') (A') (A') (A') (A') (A') (A')
                 (A') (A') (A') (A') (A") (A') (A") (A") (A') (A")
                 (A') (A') (A') (A') (A") (A") (A') (A") (A") (A')
                 (A') (A') (A") (A') (A") (A') (A') (A") (A') (A")
                 (A") (A') (A") (A') (A') (A') (A") (A') (A') (A')
                 (A') (A') (A') (A') (A') (A') (A') (A') (A') (A')
                 (A') (A') (A') (A") (A') (A') (A') (A') (A') (A')
                 (A') (A") (A') (A') (A") (A') (A") (A") (A') (A")
                 (A") (A') (A') (A") (A') (A") (A") (A") (A') (A')
                 (A') (A') (A") (A') (A') (A") (A') (A') (A") (A')
                 (A') (A') (A') (A") (A") (A') (A') (A") (A") (A')
                 (A") (A') (A') (A") (A') (A") (A') (A') (A') (A')
                 (A") (A") (A") (A') (A") (A') (A') (A") (A') (A')
                 (A') (A") (A") (A') (A") (A') (A") (A') (A') (A")
                 (A') (A') (A') (A') (A") (A') (A') (A') (A") (A")
                 (A') (A') (A') (A") (A') (A') (A') (A") (A") (A')
                 (A") (A') (A') (A") (A') (A') (A') (A') (A') (A')
                 (A") (A') (A') (A') (A') (A") (A") (A") (A') (A')
                 (A') (A') (A') (A') (A') (A') (A") (A') (A') (A')
                 (A') (A") (A') (A") (A") (A") (A') (A") (A') (A")
                 (A') (A") (A") (A') (A") (A") (A') (A') (A') (A')
                 (A') (A') (A') (A') (A') (A') (A') (A') (A') (A')
                 (A') (A') (A') (A") (A') (A') (A') (A') (A') (A')
                 (A') (A') (A') (A') (A') (A') (A') (A') (A') (A')
                 (A') (A') (A') (A') (A') (A') (A') (A') (A') (A')
                 (A') (A')
 The electronic state is 1-A'.
 Alpha  occ. eigenvalues --  -10.77518 -10.74094 -10.72922 -10.72673 -10.72431
 Alpha  occ. eigenvalues --  -10.71809 -10.71766 -10.71117 -10.70785 -10.70505
 Alpha  occ. eigenvalues --  -10.69861 -10.69561 -10.69480 -10.69329  -1.16640
 Alpha  occ. eigenvalues --   -1.12500  -1.06913  -1.05982  -1.01300  -1.00603
 Alpha  occ. eigenvalues --   -0.95374  -0.90958  -0.86462  -0.85858  -0.83811
 Alpha  occ. eigenvalues --   -0.78176  -0.76260  -0.74286  -0.69992  -0.69435
 Alpha  occ. eigenvalues --   -0.68109  -0.67973  -0.67918  -0.65603  -0.64319
 Alpha  occ. eigenvalues --   -0.62440  -0.61295  -0.60698  -0.59362  -0.58997
 Alpha  occ. eigenvalues --   -0.56716  -0.55562  -0.54030  -0.52423  -0.47938
 Alpha  occ. eigenvalues --   -0.46154  -0.43191
 Alpha virt. eigenvalues --   -0.26127  -0.14742  -0.14019  -0.12761  -0.11210
 Alpha virt. eigenvalues --   -0.10110  -0.09292  -0.07938  -0.07845  -0.07494
 Alpha virt. eigenvalues --   -0.07233  -0.07117  -0.05655  -0.05561  -0.05368
 Alpha virt. eigenvalues --   -0.03888  -0.03690  -0.03267  -0.03132  -0.02143
 Alpha virt. eigenvalues --   -0.01342  -0.00982   0.00173   0.00582   0.00613
 Alpha virt. eigenvalues --    0.01072   0.01459   0.01945   0.02124   0.02288
 Alpha virt. eigenvalues --    0.02426   0.02646   0.02826   0.03213   0.03476
 Alpha virt. eigenvalues --    0.04190   0.04515   0.04765   0.05014   0.05383
 Alpha virt. eigenvalues --    0.06021   0.06268   0.06553   0.07064   0.07293
 Alpha virt. eigenvalues --    0.07935   0.08055   0.08357   0.08694   0.08864
 Alpha virt. eigenvalues --    0.09317   0.09574   0.09997   0.10567   0.11057
 Alpha virt. eigenvalues --    0.11139   0.12033   0.12201   0.12422   0.13024
 Alpha virt. eigenvalues --    0.13473   0.13525   0.13969   0.14092   0.15782
 Alpha virt. eigenvalues --    0.16283   0.16393   0.17256   0.17419   0.17780
 Alpha virt. eigenvalues --    0.17995   0.19148   0.19520   0.19804   0.20248
 Alpha virt. eigenvalues --    0.21452   0.21645   0.22546   0.23338   0.23591
 Alpha virt. eigenvalues --    0.23925   0.24524   0.25471   0.26919   0.27541
 Alpha virt. eigenvalues --    0.28758   0.29338   0.29894   0.31372   0.35583
 Alpha virt. eigenvalues --    0.36498   0.38284   0.39346   0.40869   0.41125
 Alpha virt. eigenvalues --    0.41858   0.41918   0.43027   0.43748   0.44492
 Alpha virt. eigenvalues --    0.44821   0.45096   0.45828   0.46671   0.47734
 Alpha virt. eigenvalues --    0.48316   0.48790   0.49101   0.50682   0.50897
 Alpha virt. eigenvalues --    0.51182   0.52089   0.52127   0.52817   0.54157
 Alpha virt. eigenvalues --    0.54306   0.54834   0.55449   0.56106   0.57663
 Alpha virt. eigenvalues --    0.58216   0.59003   0.61527   0.62237   0.62490
 Alpha virt. eigenvalues --    0.63227   0.63562   0.64801   0.65353   0.67708
 Alpha virt. eigenvalues --    0.69803   0.70441   0.71491   0.72620   0.72929
 Alpha virt. eigenvalues --    0.75394   0.76142   0.76311   0.76862   0.77289
 Alpha virt. eigenvalues --    0.77921   0.78201   0.78479   0.80020   0.80498
 Alpha virt. eigenvalues --    0.81081   0.81528   0.82717   0.83005   0.85399
 Alpha virt. eigenvalues --    0.87230   0.87979   0.88266   0.89133   0.90594
 Alpha virt. eigenvalues --    0.90723   0.91258   0.93491   0.94553   0.96288
 Alpha virt. eigenvalues --    0.96989   0.99730   1.01285   1.01465   1.02735
 Alpha virt. eigenvalues --    1.03108   1.03332   1.05028   1.05934   1.08600
 Alpha virt. eigenvalues --    1.20666   1.22120   1.23256   1.24167   1.29270
 Alpha virt. eigenvalues --    1.29551   1.31814   1.34175   1.35918   1.36106
 Alpha virt. eigenvalues --    1.39066   1.40010   1.40701   1.42476   1.43449
 Alpha virt. eigenvalues --    1.43763   1.43880   1.46252   1.46660   1.46770
 Alpha virt. eigenvalues --    1.47778   1.48452   1.52013   1.53540   1.54921
 Alpha virt. eigenvalues --    1.55895   1.56374   1.56640   1.57667   1.61879
 Alpha virt. eigenvalues --    1.62632   1.63454   1.64427   1.65522   1.68153
 Alpha virt. eigenvalues --    1.68697   1.69084   1.69857   1.74420   1.76012
 Alpha virt. eigenvalues --    1.76865   1.78106   1.79254   1.80037   1.81568
 Alpha virt. eigenvalues --    1.81890   1.83007   1.83362   1.83945   1.84402
 Alpha virt. eigenvalues --    1.84611   1.85625   1.86954   1.88386   1.91290
 Alpha virt. eigenvalues --    1.92460   1.93768   1.96378   1.97853   1.98117
 Alpha virt. eigenvalues --    1.99675   2.02253   2.05384   2.07302   2.11463
 Alpha virt. eigenvalues --    2.12548   2.14625   2.15360   2.18988   2.21425
 Alpha virt. eigenvalues --    2.22630   2.27780   2.30547   2.33754   2.34715
 Alpha virt. eigenvalues --    2.36207   2.38604   2.39694   2.42304   2.43709
 Alpha virt. eigenvalues --    2.45946   2.46449   2.48606   2.52875   2.53780
 Alpha virt. eigenvalues --    2.54559   2.56892   2.58172   2.58865   2.59334
 Alpha virt. eigenvalues --    2.59923   2.60795   2.62258   2.63188   2.63654
 Alpha virt. eigenvalues --    2.64869   2.64930   2.65620   2.66113   2.68196
 Alpha virt. eigenvalues --    2.68556   2.70930   2.71813   2.73406   2.74758
 Alpha virt. eigenvalues --    2.76314   2.78044   2.79548   2.83060   2.83432
 Alpha virt. eigenvalues --    2.84572   2.86233   2.92076   2.98087   2.99370
 Alpha virt. eigenvalues --    3.00159   3.04763   3.08332   3.10813   3.14103
 Alpha virt. eigenvalues --    3.19175   3.21455   3.25244   3.28999   3.31519
 Alpha virt. eigenvalues --    3.32577   3.35312   3.45023   3.46485   3.47208
 Alpha virt. eigenvalues --    3.49131   3.49867   3.56063   3.64110   3.67097
 Alpha virt. eigenvalues --    3.68839   3.92906   3.93329   3.95255   3.96627
 Alpha virt. eigenvalues --    4.03879   4.05725   4.07490   4.12275   4.34931
 Alpha virt. eigenvalues --    4.59541   4.68011   4.70367  23.45044  23.59489
 Alpha virt. eigenvalues --   23.76941  23.79235  23.83037  23.88660  23.91778
 Alpha virt. eigenvalues --   23.95192  23.95968  23.98611  24.06281  24.10546
 Alpha virt. eigenvalues --   24.13073  24.19374
          Condensed to atoms (all electrons):
               1          2          3          4          5          6
     1  C    9.481864  -0.221108  -0.444641   2.546752  -0.068315  -0.125651
     2  C   -0.221108   7.556038   0.157209  -1.268450   0.042424  -0.015531
     3  C   -0.444641   0.157209   6.481472   0.755881  -0.135585   0.015787
     4  C    2.546752  -1.268450   0.755881  10.709827  -0.451223  -0.106960
     5  C   -0.068315   0.042424  -0.135585  -0.451223  11.537412   0.972960
     6  C   -0.125651  -0.015531   0.015787  -0.106960   0.972960   6.856442
     7  C   -0.007523  -0.000664  -0.011780  -0.057526  -0.994065   0.480923
     8  C    0.394850  -0.026576  -0.071519  -0.082496   1.489049  -0.565566
     9  C   -1.191910  -0.946591   0.261825  -0.338999   0.118799   0.331547
    10  C   -1.519584   0.409297  -0.354743  -2.281547  -2.905646  -0.427371
    11  C    0.332615  -1.331790   1.201447   0.075522  -1.619231  -0.381135
    12  C   -3.078833   2.187704  -1.354940  -2.235024  -0.637509   0.002399
    13  C    0.294879  -0.399228  -0.000998  -1.369165  -0.533090   0.642527
    14  C   -0.979198  -0.002120  -0.377514  -0.136426  -1.262679  -1.575735
    15  H    0.380048  -0.127256   0.007401   0.032417   0.003208   0.001504
    16  H   -0.010440   0.370998  -0.014888   0.013165  -0.000961  -0.000334
    17  H   -0.043575   0.000780   0.372221  -0.075103   0.000498   0.000439
    18  H    0.061051  -0.003015  -0.077518   0.457039   0.005862  -0.004731
    19  H   -0.050622  -0.011351   0.050129  -0.062651  -0.069619   0.049685
    20  H    0.008365   0.002969  -0.005282   0.003141   0.464550  -0.085355
    21  H   -0.001404  -0.000409   0.000362   0.000372  -0.060900   0.376978
    22  H    0.001219   0.000471  -0.000298  -0.002049   0.015343  -0.020741
    23  H    0.006680  -0.002783   0.000730   0.006677   0.023045  -0.006524
    24  H    0.024240   0.012072  -0.000654  -0.013852  -0.009506  -0.002047
    25  H    0.024240   0.012072  -0.000654  -0.013852  -0.009506  -0.002047
               7          8          9         10         11         12
     1  C   -0.007523   0.394850  -1.191910  -1.519584   0.332615  -3.078833
     2  C   -0.000664  -0.026576  -0.946591   0.409297  -1.331790   2.187704
     3  C   -0.011780  -0.071519   0.261825  -0.354743   1.201447  -1.354940
     4  C   -0.057526  -0.082496  -0.338999  -2.281547   0.075522  -2.235024
     5  C   -0.994065   1.489049   0.118799  -2.905646  -1.619231  -0.637509
     6  C    0.480923  -0.565566   0.331547  -0.427371  -0.381135   0.002399
     7  C    7.020405   0.653952  -0.757297   0.127219  -0.180240  -0.324142
     8  C    0.653952   8.223527  -1.031365  -1.078148   0.312965  -1.321821
     9  C   -0.757297  -1.031365   9.754981   0.195980   1.312892  -1.455048
    10  C    0.127219  -1.078148   0.195980   9.170466  -0.767143   2.774017
    11  C   -0.180240   0.312965   1.312892  -0.767143  14.516269  -3.151551
    12  C   -0.324142  -1.321821  -1.455048   2.774017  -3.151551  15.844519
    13  C   -0.487044   0.555009   1.473689  -0.128391   1.024422  -4.651760
    14  C    0.653744  -1.883052  -2.284726   2.262577  -4.768716   3.027381
    15  H   -0.002168   0.005682   0.111018  -0.011976  -0.030767  -0.064688
    16  H    0.000239   0.000217   0.001099  -0.007746   0.016709  -0.027291
    17  H   -0.000381  -0.001317  -0.006086   0.020506  -0.025169   0.104446
    18  H    0.001329   0.005235  -0.024467   0.005745   0.017566  -0.088162
    19  H   -0.003081  -0.038066   0.073059   0.419324   0.071788  -0.002340
    20  H    0.006284   0.043212  -0.022353   0.009714  -0.008647  -0.030595
    21  H   -0.027709  -0.011826  -0.005025   0.018701  -0.006701   0.006532
    22  H    0.383451  -0.022212   0.003565  -0.009206   0.003656  -0.011754
    23  H   -0.095228   0.362676   0.073233  -0.008604  -0.008133   0.007794
    24  H    0.015721   0.039928   0.355988   0.005244  -0.009380  -0.056498
    25  H    0.015721   0.039928   0.355988   0.005244  -0.009380  -0.056498
              13         14         15         16         17         18
     1  C    0.294879  -0.979198   0.380048  -0.010440  -0.043575   0.061051
     2  C   -0.399228  -0.002120  -0.127256   0.370998   0.000780  -0.003015
     3  C   -0.000998  -0.377514   0.007401  -0.014888   0.372221  -0.077518
     4  C   -1.369165  -0.136426   0.032417   0.013165  -0.075103   0.457039
     5  C   -0.533090  -1.262679   0.003208  -0.000961   0.000498   0.005862
     6  C    0.642527  -1.575735   0.001504  -0.000334   0.000439  -0.004731
     7  C   -0.487044   0.653744  -0.002168   0.000239  -0.000381   0.001329
     8  C    0.555009  -1.883052   0.005682   0.000217  -0.001317   0.005235
     9  C    1.473689  -2.284726   0.111018   0.001099  -0.006086  -0.024467
    10  C   -0.128391   2.262577  -0.011976  -0.007746   0.020506   0.005745
    11  C    1.024422  -4.768716  -0.030767   0.016709  -0.025169   0.017566
    12  C   -4.651760   3.027381  -0.064688  -0.027291   0.104446  -0.088162
    13  C   14.512744  -4.399153   0.018833   0.001167  -0.006070  -0.014075
    14  C   -4.399153  17.172659   0.000301  -0.005364   0.004117  -0.004570
    15  H    0.018833   0.000301   0.451374  -0.009597   0.001184  -0.000043
    16  H    0.001167  -0.005364  -0.009597   0.425706  -0.005680   0.001867
    17  H   -0.006070   0.004117   0.001184  -0.005680   0.424132  -0.009606
    18  H   -0.014075  -0.004570  -0.000043   0.001867  -0.009606   0.455568
    19  H    0.080356  -0.132357   0.000398  -0.000573   0.001257  -0.007790
    20  H   -0.017089  -0.031893  -0.000145   0.000021  -0.000142   0.001231
    21  H   -0.027722   0.080093   0.000016  -0.000007   0.000010  -0.000142
    22  H    0.030152  -0.033347  -0.000154   0.000007  -0.000007   0.000009
    23  H   -0.034314   0.012219   0.000555  -0.000103   0.000013  -0.000085
    24  H    0.034899  -0.061359  -0.000923   0.000602  -0.000125   0.000201
    25  H    0.034899  -0.061359  -0.000923   0.000602  -0.000125   0.000201
              19         20         21         22         23         24
     1  C   -0.050622   0.008365  -0.001404   0.001219   0.006680   0.024240
     2  C   -0.011351   0.002969  -0.000409   0.000471  -0.002783   0.012072
     3  C    0.050129  -0.005282   0.000362  -0.000298   0.000730  -0.000654
     4  C   -0.062651   0.003141   0.000372  -0.002049   0.006677  -0.013852
     5  C   -0.069619   0.464550  -0.060900   0.015343   0.023045  -0.009506
     6  C    0.049685  -0.085355   0.376978  -0.020741  -0.006524  -0.002047
     7  C   -0.003081   0.006284  -0.027709   0.383451  -0.095228   0.015721
     8  C   -0.038066   0.043212  -0.011826  -0.022212   0.362676   0.039928
     9  C    0.073059  -0.022353  -0.005025   0.003565   0.073233   0.355988
    10  C    0.419324   0.009714   0.018701  -0.009206  -0.008604   0.005244
    11  C    0.071788  -0.008647  -0.006701   0.003656  -0.008133  -0.009380
    12  C   -0.002340  -0.030595   0.006532  -0.011754   0.007794  -0.056498
    13  C    0.080356  -0.017089  -0.027722   0.030152  -0.034314   0.034899
    14  C   -0.132357  -0.031893   0.080093  -0.033347   0.012219  -0.061359
    15  H    0.000398  -0.000145   0.000016  -0.000154   0.000555  -0.000923
    16  H   -0.000573   0.000021  -0.000007   0.000007  -0.000103   0.000602
    17  H    0.001257  -0.000142   0.000010  -0.000007   0.000013  -0.000125
    18  H   -0.007790   0.001231  -0.000142   0.000009  -0.000085   0.000201
    19  H    0.444538  -0.004336   0.001483  -0.000465   0.000217   0.000609
    20  H   -0.004336   0.451787  -0.010790   0.002003   0.000304   0.000143
    21  H    0.001483  -0.010790   0.420046  -0.006889   0.001680  -0.000149
    22  H   -0.000465   0.002003  -0.006889   0.411248  -0.007979   0.000614
    23  H    0.000217   0.000304   0.001680  -0.007979   0.429012  -0.000819
    24  H    0.000609   0.000143  -0.000149   0.000614  -0.000819   0.491851
    25  H    0.000609   0.000143  -0.000149   0.000614  -0.000819  -0.079015
              25
     1  C    0.024240
     2  C    0.012072
     3  C   -0.000654
     4  C   -0.013852
     5  C   -0.009506
     6  C   -0.002047
     7  C    0.015721
     8  C    0.039928
     9  C    0.355988
    10  C    0.005244
    11  C   -0.009380
    12  C   -0.056498
    13  C    0.034899
    14  C   -0.061359
    15  H   -0.000923
    16  H    0.000602
    17  H   -0.000125
    18  H    0.000201
    19  H    0.000609
    20  H    0.000143
    21  H   -0.000149
    22  H    0.000614
    23  H   -0.000819
    24  H   -0.079015
    25  H    0.491851
 Mulliken charges:
               1
     1  C    0.185999
     2  C   -0.395163
     3  C   -0.453449
     4  C   -0.105470
     5  C    0.084683
     6  C   -0.411462
     7  C   -0.410138
     8  C    0.007733
     9  C   -0.359796
    10  C    0.076071
    11  C   -0.587872
    12  C    0.593663
    13  C   -0.635480
    14  C    0.786475
    15  H    0.234703
    16  H    0.250584
    17  H    0.243783
    18  H    0.221297
    19  H    0.189797
    20  H    0.222759
    21  H    0.253549
    22  H    0.262750
    23  H    0.240553
    24  H    0.252215
    25  H    0.252215
 Sum of Mulliken charges =   1.00000
 Mulliken charges with hydrogens summed into heavy atoms:
               1
     1  C    0.420702
     2  C   -0.144579
     3  C   -0.209667
     4  C    0.115827
     5  C    0.307443
     6  C   -0.157913
     7  C   -0.147388
     8  C    0.248286
     9  C    0.144634
    10  C    0.265868
    11  C   -0.587872
    12  C    0.593663
    13  C   -0.635480
    14  C    0.786475
 Electronic spatial extent (au):  <R**2>=           2856.5983
 Charge=              1.0000 electrons
 Dipole moment (field-independent basis, Debye):
    X=              0.5744    Y=             -1.4384    Z=             -0.0000  Tot=              1.5488
 Quadrupole moment (field-independent basis, Debye-Ang):
   XX=            -51.5637   YY=            -35.5910   ZZ=            -84.1396
   XY=             -9.9394   XZ=              0.0000   YZ=              0.0000
 Traceless Quadrupole moment (field-independent basis, Debye-Ang):
   XX=              5.5344   YY=             21.5071   ZZ=            -27.0415
   XY=             -9.9394   XZ=              0.0000   YZ=              0.0000
 Octapole moment (field-independent basis, Debye-Ang**2):
  XXX=              4.6076  YYY=             -8.4470  ZZZ=              0.0000  XYY=              4.8933
  XXY=             -9.5897  XXZ=              0.0000  XZZ=              3.7878  YZZ=             -0.6834
  YYZ=              0.0000  XYZ=             -0.0000
 Hexadecapole moment (field-independent basis, Debye-Ang**3):
 XXXX=           -952.8327 YYYY=          -1878.7077 ZZZZ=            -99.3481 XXXY=            335.3932
 XXXZ=             -0.0000 YYYX=            259.9866 YYYZ=              0.0000 ZZZX=             -0.0000
 ZZZY=             -0.0000 XXYY=           -456.2512 XXZZ=           -233.0937 YYZZ=           -503.2822
 XXYZ=              0.0000 YYXZ=              0.0000 ZZXY=            176.5227
 N-N= 7.811829577803D+02 E-N=-2.798724111615D+03  KE= 5.375468273161D+02
 Symmetry A'   KE= 5.228873978471D+02
 Symmetry A"   KE= 1.465942946902D+01
 Unable to Open any file for archive entry.
 1\1\GINC-GADI-CPU-CLX-2640\SP\RM062X TD-FC\6-311++G(d,p)\C14H11(1+)\TS
 1578\02-Aug-2022\0\\#n M062X/6-311++G(d,p) TD(NStates=1) EmpiricalDisp
 ersion=GD3 SP\\SP_-2\\1,1\C,0,0.,2.498655,1.338431\C,0,0.,3.727508,0.6
 97989\C,0,0.,3.717861,-0.66983\C,0,0.,2.447156,-1.409538\C,0,0.,-2.479
 156,-1.405538\C,0,0.,-3.649861,-0.75783\C,0,0.,-3.675508,0.645989\C,0,
 0.,-2.486655,1.382431\C,0,0.,0.024,1.453369\C,0,0.,-0.07,-1.429189\C,0
 ,0.,1.232055,0.613065\C,0,0.,1.227471,-0.766804\C,0,0.,-1.292055,0.741
 065\C,0,0.,-1.247471,-0.694804\H,0,0.,2.444071,2.421647\H,0,0.,4.64875
 3,1.259689\H,0,0.,4.639262,-1.238349\H,0,0.,2.50155,-2.492059\H,0,0.,-
 0.112,-2.510266\H,0,0.,-2.43355,-2.488059\H,0,0.,-4.579262,-1.306349\H
 ,0,0.,-4.624753,1.163689\H,0,0.,-2.532071,2.465647\H,0,-0.859585,0.136
 ,2.145787\H,0,0.859585,0.136,2.145787\\Version=ES64L-G16RevC.01\State=
 1-A'\HF=-539.7423878\RMSD=3.651e-09\PG=CS [SG(C14H9),X(H2)]\\@
 The archive entry for this job was punched.


 MICRO CREDO - NEVER TRUST A COMPUTER BIGGER
               BIGGER THAN YOU CAN LIFT.
 Job cpu time:       0 days  0 hours 53 minutes 13.1 seconds.
 Elapsed time:       0 days  0 hours  1 minutes  6.7 seconds.
 File lengths (MBytes):  RWF=    460 Int=      0 D2E=      0 Chk=     15 Scr=      1
 Normal termination of Gaussian 16 at Tue Aug  2 15:16:20 2022.
