 Entering Gaussian System, Link 0=g16
 Initial command:
 /apps/gaussian/g16c01/g16/l1.exe "/jobfs/51834765.gadi-pbs/Gau-331589.inp" -scrdir="/jobfs/51834765.gadi-pbs/"
 Entering Link 1 = /apps/gaussian/g16c01/g16/l1.exe PID=    331590.
  
 Copyright (c) 1988-2019, Gaussian, Inc.  All Rights Reserved.
  
 This is part of the Gaussian(R) 16 program.  It is based on
 the Gaussian(R) 09 system (copyright 2009, Gaussian, Inc.),
 the Gaussian(R) 03 system (copyright 2003, Gaussian, Inc.),
 the Gaussian(R) 98 system (copyright 1998, Gaussian, Inc.),
 the Gaussian(R) 94 system (copyright 1995, Gaussian, Inc.),
 the Gaussian 92(TM) system (copyright 1992, Gaussian, Inc.),
 the Gaussian 90(TM) system (copyright 1990, Gaussian, Inc.),
 the Gaussian 88(TM) system (copyright 1988, Gaussian, Inc.),
 the Gaussian 86(TM) system (copyright 1986, Carnegie Mellon
 University), and the Gaussian 82(TM) system (copyright 1983,
 Carnegie Mellon University). Gaussian is a federally registered
 trademark of Gaussian, Inc.
  
 This software contains proprietary and confidential information,
 including trade secrets, belonging to Gaussian, Inc.
  
 This software is provided under written license and may be
 used, copied, transmitted, or stored only in accord with that
 written license.
  
 The following legend is applicable only to US Government
 contracts under FAR:
  
                    RESTRICTED RIGHTS LEGEND
  
 Use, reproduction and disclosure by the US Government is
 subject to restrictions as set forth in subparagraphs (a)
 and (c) of the Commercial Computer Software - Restricted
 Rights clause in FAR 52.227-19.
  
 Gaussian, Inc.
 340 Quinnipiac St., Bldg. 40, Wallingford CT 06492
  
  
 ---------------------------------------------------------------
 Warning -- This program may not be used in any manner that
 competes with the business of Gaussian, Inc. or will provide
 assistance to any competitor of Gaussian, Inc.  The licensee
 of this program is prohibited from giving any competitor of
 Gaussian, Inc. access to this program.  By using this program,
 the user acknowledges that Gaussian, Inc. is engaged in the
 business of creating and licensing software in the field of
 computational chemistry and represents and warrants to the
 licensee that it is not a competitor of Gaussian, Inc. and that
 it will not use this program in any manner prohibited above.
 ---------------------------------------------------------------
  

 Cite this work as:
 Gaussian 16, Revision C.01,
 M. J. Frisch, G. W. Trucks, H. B. Schlegel, G. E. Scuseria, 
 M. A. Robb, J. R. Cheeseman, G. Scalmani, V. Barone, 
 G. A. Petersson, H. Nakatsuji, X. Li, M. Caricato, A. V. Marenich, 
 J. Bloino, B. G. Janesko, R. Gomperts, B. Mennucci, H. P. Hratchian, 
 J. V. Ortiz, A. F. Izmaylov, J. L. Sonnenberg, D. Williams-Young, 
 F. Ding, F. Lipparini, F. Egidi, J. Goings, B. Peng, A. Petrone, 
 T. Henderson, D. Ranasinghe, V. G. Zakrzewski, J. Gao, N. Rega, 
 G. Zheng, W. Liang, M. Hada, M. Ehara, K. Toyota, R. Fukuda, 
 J. Hasegawa, M. Ishida, T. Nakajima, Y. Honda, O. Kitao, H. Nakai, 
 T. Vreven, K. Throssell, J. A. Montgomery, Jr., J. E. Peralta, 
 F. Ogliaro, M. J. Bearpark, J. J. Heyd, E. N. Brothers, K. N. Kudin, 
 V. N. Staroverov, T. A. Keith, R. Kobayashi, J. Normand, 
 K. Raghavachari, A. P. Rendell, J. C. Burant, S. S. Iyengar, 
 J. Tomasi, M. Cossi, J. M. Millam, M. Klene, C. Adamo, R. Cammi, 
 J. W. Ochterski, R. L. Martin, K. Morokuma, O. Farkas, 
 J. B. Foresman, and D. J. Fox, Gaussian, Inc., Wallingford CT, 2019.
 
 ******************************************
 Gaussian 16:  ES64L-G16RevC.01  3-Jul-2019
                20-Jul-2022 
 ******************************************
 %NProcShared=32
 Will use up to   32 processors via shared memory.
 %mem = 128GB
 %Chk=check_ts6
 ----------------------------------------------------------------------
 #n M062X/cc-pvtz TD EmpiricalDispersion=GD3 IRC=(RCFC,maxpoints=40,max
 cycles=20,report=cartesians,StepSize=2) Geom=AllCheck
 ----------------------------------------------------------------------
 1/6=20,10=5,18=10,26=3,29=7,38=1,39=2,42=40,44=3,129=10,172=1/1,23;
 2/12=2,29=1,40=1/2;
 3/5=16,6=1,11=9,14=-4,25=1,30=1,71=2,74=-55,124=31,140=1/1,2,3,8;
 4//1;
 5/5=2,38=5/2;
 8/6=1,10=1/1;
 9/15=3,42=1,70=2/14;
 10/5=2004,20=4/2;
 11/6=1,8=1,12=-1,16=1,42=3/1,2,10;
 10/6=3,21=1/2,14;
 6/7=2,8=2,9=2,10=2/1;
 7/10=1,12=6,13=8,25=1,44=2/1,2,3,16;
 1/6=20,18=10,26=3,39=2,42=40,44=3,129=10/23(2);
 2/29=1/2;
 99/5=20/99;
 2/29=1/2;
 3/5=16,6=1,11=9,14=-2,25=1,30=1,71=2,74=-55,124=31,140=1/1,2,3,8;
 4/5=5,16=3,69=1/1;
 5/5=2,38=5/2;
 8/6=1,10=1/1;
 9/15=3,42=1,49=4,70=2/14;
 10/5=2004,20=4/2;
 11/6=1,8=1,12=-1,16=1,42=3/1,2,10;
 10/6=3,21=1/2,14;
 7/10=1,12=6,13=8,25=1,44=2/1,2,3,16;
 1/6=20,18=10,26=3,39=2,42=40,44=3,129=10/23(-10);
 2/29=1/2;
 6/7=2,8=2,9=2,10=2/1;
 99/5=20,9=10/99;
 Structure from the checkpoint file:  "check_ts6.chk"
 -----
 Title
 -----
 Charge =  1 Multiplicity = 1
 Redundant internal coordinates found in file.  (old form).
 C,0,2.4926548907,1.3605401728,0.
 C,0,3.701507969,0.6720977308,0.
 C,0,3.683861065,-0.7137206777,0.
 C,0,2.4631561945,-1.4074290019,0.
 C,0,-2.4631561945,-1.4074290019,0.
 C,0,-3.683861065,-0.7137206777,0.
 C,0,-3.701507969,0.6720977308,0.
 C,0,-2.4926548907,1.3605401728,0.
 C,0,0.,1.4534784969,0.
 C,0,0.,-1.4290795761,0.
 C,0,1.2620554627,0.6771744048,0.
 C,0,1.2374709488,-0.7306953047,0.
 C,0,-1.2620554627,0.6771744048,0.
 C,0,-1.2374709488,-0.7306953047,0.
 H,0,2.4880712221,2.4437564641,0.
 H,0,4.6367529586,1.2117977842,0.
 H,0,4.6092621037,-1.272239782,0.
 H,0,2.4675498271,-2.4899496579,0.
 H,0,0.,-2.5101572065,0.
 H,0,-2.4675498271,-2.4899496579,0.
 H,0,-4.6092621037,-1.272239782,0.
 H,0,-4.6367529586,1.2117977842,0.
 H,0,-2.4880712221,2.4437564641,0.
 H,0,0.,2.1458965103,-0.8595854833
 H,0,0.,2.1458965103,0.8595854833
 Recover connectivity data from disk.
 IRC-IRC-IRC-IRC-IRC-IRC-IRC-IRC-IRC-IRC-IRC-IRC-IRC-IRC-IRC-IRC-IRC-IRC
 ------------------------------------------------------------------------
 INPUT DATA FOR L123
 ------------------------------------------------------------------------
 GENERAL PARAMETERS:
 Follow reaction path in both directions.
 Maximum points per path      =  40
 Step size                    =   0.020 bohr
 Integration scheme           = HPC                                 
    Redo corrector integration= Yes                                 
    DWI Weight Power          =  2
    DWI will use Hessian update vectors when possible.
    Max correction cycles     =  20
 Initial Hessian              = ReadFC from chk
 Hessian evaluation           = All updating
 Hessian updating method      = Bofill                              
 ------------------------------------------------------------------------
          ******** Start new reaction path calculation ********
 RCFC Option Requested - Data Read From Chk File:
 "check_ts6.chk"
   Energy From Chk =   -539.7121062

 Supplied step size of   0.0200 bohr.
    Integration on MW PES will use step size of   0.0483 sqrt(amu)*bohr.
 Point Number:   0          Path Number:   1
 Calculating another point on the path.
 IRC-IRC-IRC-IRC-IRC-IRC-IRC-IRC-IRC-IRC-IRC-IRC-IRC-IRC-IRC-IRC-IRC-IRC
                          Input orientation:                          
 ---------------------------------------------------------------------
 Center     Atomic      Atomic             Coordinates (Angstroms)
 Number     Number       Type             X           Y           Z
 ---------------------------------------------------------------------
      1          6           0        2.494401    1.369099   -0.000000
      2          6           0        3.703446    0.681468   -0.000000
      3          6           0        3.684827   -0.703489    0.000000
      4          6           0        2.461053   -1.397982    0.000000
      5          6           0       -2.465259   -1.399730   -0.000000
      6          6           0       -3.682895   -0.706806    0.000000
      7          6           0       -3.699570    0.679874    0.000000
      8          6           0       -2.490909    1.369128    0.000000
      9          6           0        0.000883    1.462052   -0.000000
     10          6           0       -0.003054   -1.420506   -0.000000
     11          6           0        1.261087    0.684556    0.000000
     12          6           0        1.236571   -0.721970    0.000000
     13          6           0       -1.263024    0.686939    0.000000
     14          6           0       -1.238371   -0.722274   -0.000000
     15          1           0        2.488579    2.452330   -0.000000
     16          1           0        4.638617    1.221107   -0.000000
     17          1           0        4.609375   -1.263496    0.000000
     18          1           0        2.466556   -2.480550    0.000000
     19          1           0       -0.002655   -2.501584   -0.000000
     20          1           0       -2.468544   -2.482202   -0.000000
     21          1           0       -4.609150   -1.263837   -0.000000
     22          1           0       -4.634889    1.219635    0.000000
     23          1           0       -2.487564    2.452329   -0.000000
     24          1           0        0.004684    2.154470   -0.859585
     25          1           0        0.004684    2.154470    0.859585
 ---------------------------------------------------------------------
                    Distance matrix (angstroms):
                    1          2          3          4          5
     1  C    0.000000
     2  C    1.390908   0.000000
     3  C    2.390133   1.385082   0.000000
     4  C    2.767282   2.422323   1.407104   0.000000
     5  C    5.680197   6.510322   6.189371   4.926313   0.000000
     6  C    6.516776   7.515672   7.367723   6.182704   1.400993
     7  C    6.232199   7.403016   7.512857   6.501598   2.418321
     8  C    4.985310   6.232408   6.514250   5.672639   2.768976
     9  C    2.495250   3.783950   4.273290   3.772563   3.777784
    10  C    3.744219   4.261037   3.756938   2.464210   2.462293
    11  C    1.410554   2.442361   2.793060   2.403515   4.269649
    12  C    2.440226   2.838152   2.448326   1.398695   3.763364
    13  C    3.818846   4.966473   5.139506   4.267980   2.408227
    14  C    4.278717   5.137318   4.923234   3.760627   1.401500
    15  H    1.083247   2.147522   3.374937   3.850410   6.275259
    16  H    2.149318   1.079702   2.147972   3.406084   7.571911
    17  H    3.376932   2.145599   1.080924   2.152526   7.075945
    18  H    3.849750   3.395329   2.154561   1.082582   5.048858
    19  H    4.606243   4.885386   4.102520   2.699592   2.697870
    20  H    6.281986   6.935580   6.405295   5.047422   1.082478
    21  H    7.575802   8.537180   8.312884   7.071476   2.148193
    22  H    7.130856   8.355683   8.539091   7.563354   3.401230
    23  H    5.098368   6.439297   6.932358   6.270064   3.852124
    24  H    2.748523   4.073015   4.738171   4.403697   4.412691
    25  H    2.748523   4.073015   4.738171   4.403697   4.412691
                    6          7          8          9         10
     6  C    0.000000
     7  C    1.386780   0.000000
     8  C    2.393811   1.391378   0.000000
     9  C    4.274829   3.782216   2.493524   0.000000
    10  C    3.748413   4.251568   3.737845   2.882561   0.000000
    11  C    5.136034   4.960659   3.813937   1.480748   2.455471
    12  C    4.919490   5.131341   4.273968   2.509358   1.422893
    13  C    2.792544   2.436557   1.404665   1.482653   2.455372
    14  C    2.444573   2.832582   2.437789   2.511380   1.418991
    15  H    6.933054   6.436986   5.095942   2.677552   4.605116
    16  H    8.541921   8.355735   7.131063   4.643989   5.340714
    17  H    8.310935   8.533185   7.572631   5.354139   4.615100
    18  H    6.400149   6.928881   6.276661   4.650124   2.687501
    19  H    4.094557   4.877382   4.601502   3.963637   1.081078
    20  H    2.150972   3.393251   3.851395   4.653516   2.684370
    21  H    1.080847   2.146007   3.379267   5.355639   4.608760
    22  H    2.148830   1.079890   2.149185   4.642106   5.331439
    23  H    3.377715   2.147221   1.083207   2.678249   4.601266
    24  H    4.745949   4.078581   2.753840   1.103786   3.676874
    25  H    4.745949   4.078581   2.753840   1.103786   3.676874
                   11         12         13         14         15
    11  C    0.000000
    12  C    1.406740   0.000000
    13  C    2.524112   2.869321   0.000000
    14  C    2.868180   2.474942   1.409429   0.000000
    15  H    2.152153   3.412287   4.146219   4.895739   0.000000
    16  H    3.419883   3.917839   5.925766   6.189969   2.477615
    17  H    3.873750   3.415999   6.187832   5.872737   4.278450
    18  H    3.386894   2.146035   4.893134   4.100977   4.932930
    19  H    3.427613   2.168573   3.428588   2.166319   5.545044
    20  H    4.892699   4.101987   3.390684   2.147248   6.994475
    21  H    6.185136   5.870781   3.873252   3.414007   8.011719
    22  H    5.920206   6.184163   3.413684   3.912461   7.229338
    23  H    4.144563   4.893399   2.148511   3.411538   4.976142
    24  H    2.116148   3.245048   2.121230   3.249574   2.645248
    25  H    2.116148   3.245048   2.121230   3.249574   2.645248
                   16         17         18         19         20
    16  H    0.000000
    17  H    2.484775   0.000000
    18  H    4.291867   2.464324   0.000000
    19  H    5.949776   4.775319   2.469300   0.000000
    20  H    8.014127   7.182073   4.935100   2.465966   0.000000
    21  H    9.575810   9.218524   7.179554   4.769886   2.463048
    22  H    9.273506   9.571956   8.007614   5.941807   4.289132
    23  H    7.231760   8.010861   6.991180   5.542204   4.934568
    24  H    4.804517   5.798668   5.318187   4.734742   5.324892
    25  H    4.804517   5.798668   5.318187   4.734742   5.324892
                   21         22         23         24         25
    21  H    0.000000
    22  H    2.483606   0.000000
    23  H    4.279138   2.475993   0.000000
    24  H    5.806132   4.810244   2.653094   0.000000
    25  H    5.806132   4.810244   2.653094   1.719171   0.000000
 Symmetry turned off by external request.
 Stoichiometry    C14H11(1+)
 Framework group  CS[SG(C14H9),X(H2)]
 Deg. of freedom    46
 Full point group                 CS      NOp   2
 Rotational constants (GHZ):           2.1362280           0.4446265           0.3688268
 Standard basis: CC-pVTZ (5D, 7F)
   574 basis functions,   915 primitive gaussians,   655 cartesian basis functions
    47 alpha electrons       47 beta electrons
       nuclear repulsion energy       781.1978350603 Hartrees.
 NAtoms=   25 NActive=   25 NUniq=   25 SFac= 1.00D+00 NAtFMM=   60 NAOKFM=F Big=F
 Integral buffers will be    131072 words long.
 Regular integral format.
 Two-electron integral symmetry is turned off.
 Nuclear repulsion after empirical dispersion term =      781.1968555701 Hartrees.
 One-electron integrals computed using PRISM.
 NBasis=   574 RedAO= T EigKep=  1.74D-05  NBF=   574
 NBsUse=   574 1.00D-06 EigRej= -1.00D+00 NBFU=   574
 ExpMin= 1.03D-01 ExpMax= 8.24D+03 ExpMxC= 2.81D+02 IAcc=3 IRadAn=         5 AccDes= 0.00D+00
 Harris functional with IExCor= 1009 and IRadAn=       5 diagonalized for initial guess.
 HarFok:  IExCor= 1009 AccDes= 0.00D+00 IRadAn=         5 IDoV= 1 UseB2=F ITyADJ=14
 ICtDFT=  3500011 ScaDFX=  1.000000  1.000000  1.000000  1.000000
 FoFCou: FMM=F IPFlag=           0 FMFlag=      100000 FMFlg1=           0
         NFxFlg=           0 DoJE=T BraDBF=F KetDBF=T FulRan=T
         wScrn=  0.000000 ICntrl=       500 IOpCl=  0 I1Cent=   200000004 NGrid=           0
         NMat0=    1 NMatS0=      1 NMatT0=    0 NMatD0=    1 NMtDS0=    0 NMtDT0=    0
 Symmetry not used in FoFCou.
 Requested convergence on RMS density matrix=1.00D-08 within 128 cycles.
 Requested convergence on MAX density matrix=1.00D-06.
 Requested convergence on             energy=1.00D-06.
 No special actions if energy rises.
 Integral accuracy reduced to 1.0D-05 until final iterations.
 Initial convergence to 1.0D-05 achieved.  Increase integral accuracy.
 SCF Done:  E(RM062X) =  -539.815794075     A.U. after   14 cycles
            NFock= 14  Conv=0.59D-08     -V/T= 2.0063
 DoSCS=F DFT=T ScalE2(SS,OS)=  1.000000  1.000000
 ExpMin= 1.03D-01 ExpMax= 8.24D+03 ExpMxC= 2.81D+02 IAcc=3 IRadAn=         5 AccDes= 0.00D+00
 HarFok:  IExCor=  205 AccDes= 0.00D+00 IRadAn=         5 IDoV=-2 UseB2=F ITyADJ=14
 ICtDFT= 12500011 ScaDFX=  1.000000  1.000000  1.000000  1.000000
 Range of M.O.s used for correlation:    15   574
 NBasis=   574 NAE=    47 NBE=    47 NFC=    14 NFV=     0
 NROrb=    560 NOA=    33 NOB=    33 NVA=   527 NVB=   527

 **** Warning!!: The largest alpha MO coefficient is  0.55844803D+02

    12 initial guesses have been made.
 Convergence on wavefunction:    0.000001000000000
 Iteration     1 Dimension    12 NMult     0 NNew     12
 CISAX will form    12 AO SS matrices at one time.
 New state      2 was old state      3
 New state      3 was old state      2
 Iteration     2 Dimension    18 NMult    12 NNew      6
 Iteration     3 Dimension    24 NMult    18 NNew      6
 Iteration     4 Dimension    30 NMult    24 NNew      6
 Iteration     5 Dimension    36 NMult    30 NNew      6
 Iteration     6 Dimension    42 NMult    36 NNew      6
 Iteration     7 Dimension    48 NMult    42 NNew      6
 Iteration     8 Dimension    54 NMult    48 NNew      6
 Iteration     9 Dimension    60 NMult    54 NNew      6
 Iteration    10 Dimension    64 NMult    60 NNew      4
 ***********************************************************************
 Excited states from <AA,BB:AA,BB> singles matrix:
 ***********************************************************************
 
 Ground to excited state transition densities written to RWF  633
 Ground to excited state transition electric dipole moments (Au):
       state          X           Y           Z        Dip. S.      Osc.
         1         0.0051      0.6309      0.0000      0.3980      0.0275
         2         0.2121     -0.0380     -0.0000      0.0465      0.0037
         3         2.5295      0.0033     -0.0000      6.3983      0.5464
 Ground to excited state transition velocity dipole moments (Au):
       state          X           Y           Z        Dip. S.      Osc.
         1        -0.0005     -0.0693     -0.0000      0.0048      0.0309
         2        -0.0247      0.0048      0.0000      0.0006      0.0035
         3        -0.3336     -0.0004      0.0000      0.1113      0.5793
 Ground to excited state transition magnetic dipole moments (Au):
       state          X           Y           Z
         1        -0.0000     -0.0000     -0.0233
         2         0.0000      0.0000     -0.9355
         3         0.0000     -0.0000     -1.1089
 Ground to excited state transition velocity quadrupole moments (Au):
       state          XX          YY          ZZ          XY          XZ          YZ
         1         0.2728      0.0277     -0.0077     -0.0099      0.0000     -0.0000
         2        -0.0181     -0.0025      0.0005     -0.2807      0.0000     -0.0000
         3         0.0095     -0.0007      0.0000     -0.1184      0.0000      0.0000
 <0|del|b> * <b|rxdel|0> + <0|del|b> * <b|delr+rdel|0>
 Rotatory Strengths (R) in cgs (10**-40 erg-esu-cm/Gauss)
       state          XX          YY          ZZ    R(velocity)    E-M Angle
         1         0.0000      0.0000      0.0000      0.0000       90.00
         2        -0.0000     -0.0000     -0.0000     -0.0000       90.00
         3        -0.0000     -0.0000     -0.0000     -0.0000       90.00
 1/2[<0|r|b>*<b|rxdel|0> + (<0|rxdel|b>*<b|r|0>)*]
 Rotatory Strengths (R) in cgs (10**-40 erg-esu-cm/Gauss)
       state          XX          YY          ZZ     R(length)
         1         0.0000      0.0000      0.0000      0.0000
         2        -0.0000      0.0000     -0.0000     -0.0000
         3        -0.0000      0.0000     -0.0000     -0.0000
  1/2[<0|del|b>*<b|r|0> + (<0|r|b>*<b|del|0>)*] (Au)
       state          X           Y           Z        Dip. S.   Osc.(frdel)
         1        -0.0000     -0.0437     -0.0000      0.0437      0.0291
         2        -0.0052     -0.0002     -0.0000      0.0054      0.0036
         3        -0.8439     -0.0000     -0.0000      0.8439      0.5626

 Excitation energies and oscillator strengths:
 
 Excited state symmetry could not be determined.
 Excited State   1:      Singlet-?Sym    2.8213 eV  439.46 nm  f=0.0275  <S**2>=0.000
      47 -> 48         0.70414
 This state for optimization and/or second-order correction.
 Total Energy, E(TD-HF/TD-DFT) =  -539.712113351    
 Copying the excited state density for this state as the 1-particle RhoCI density.
 
 Excited state symmetry could not be determined.
 Excited State   2:      Singlet-?Sym    3.2657 eV  379.66 nm  f=0.0037  <S**2>=0.000
      45 -> 48         0.61411
      46 -> 48         0.33906
 
 Excited state symmetry could not be determined.
 Excited State   3:      Singlet-?Sym    3.4854 eV  355.72 nm  f=0.5464  <S**2>=0.000
      45 -> 48        -0.34107
      46 -> 48         0.60970
 SavETr:  write IOETrn=   770 NScale= 10 NData=  16 NLR=1 NState=    3 LETran=      64.
          IDoAtm=1111111111111111111111111
          Differentiating once with respect to electric field.
                with respect to dipole field.
          Differentiating once with respect to nuclear coordinates.
          There are     1 degrees of freedom in the 1st order CPHF.  IDoFFX=0 NUNeed=     1.
 LinEq1:  Iter=  0 NonCon=     1 RMS=5.81D-03 Max=4.18D-01 NDo=     1
 AX will form     1 AO Fock derivatives at one time.
 LinEq1:  Iter=  1 NonCon=     1 RMS=1.88D-03 Max=1.37D-01 NDo=     1
 LinEq1:  Iter=  2 NonCon=     1 RMS=1.45D-03 Max=1.07D-01 NDo=     1
 LinEq1:  Iter=  3 NonCon=     1 RMS=4.62D-04 Max=2.34D-02 NDo=     1
 LinEq1:  Iter=  4 NonCon=     1 RMS=2.37D-04 Max=1.51D-02 NDo=     1
 LinEq1:  Iter=  5 NonCon=     1 RMS=1.36D-04 Max=1.02D-02 NDo=     1
 LinEq1:  Iter=  6 NonCon=     1 RMS=7.81D-05 Max=4.22D-03 NDo=     1
 LinEq1:  Iter=  7 NonCon=     1 RMS=3.30D-05 Max=2.18D-03 NDo=     1
 LinEq1:  Iter=  8 NonCon=     1 RMS=1.60D-05 Max=8.01D-04 NDo=     1
 LinEq1:  Iter=  9 NonCon=     1 RMS=6.83D-06 Max=3.37D-04 NDo=     1
 LinEq1:  Iter= 10 NonCon=     1 RMS=2.59D-06 Max=9.38D-05 NDo=     1
 LinEq1:  Iter= 11 NonCon=     1 RMS=1.42D-06 Max=5.75D-05 NDo=     1
 LinEq1:  Iter= 12 NonCon=     1 RMS=6.51D-07 Max=3.17D-05 NDo=     1
 LinEq1:  Iter= 13 NonCon=     1 RMS=3.45D-07 Max=1.22D-05 NDo=     1
 LinEq1:  Iter= 14 NonCon=     1 RMS=1.49D-07 Max=6.18D-06 NDo=     1
 LinEq1:  Iter= 15 NonCon=     1 RMS=7.78D-08 Max=3.81D-06 NDo=     1
 LinEq1:  Iter= 16 NonCon=     1 RMS=3.25D-08 Max=2.03D-06 NDo=     1
 LinEq1:  Iter= 17 NonCon=     1 RMS=1.72D-08 Max=1.04D-06 NDo=     1
 LinEq1:  Iter= 18 NonCon=     1 RMS=8.62D-09 Max=4.30D-07 NDo=     1
 LinEq1:  Iter= 19 NonCon=     1 RMS=3.24D-09 Max=1.03D-07 NDo=     1
 LinEq1:  Iter= 20 NonCon=     1 RMS=1.54D-09 Max=5.28D-08 NDo=     1
 LinEq1:  Iter= 21 NonCon=     1 RMS=4.49D-10 Max=2.21D-08 NDo=     1
 LinEq1:  Iter= 22 NonCon=     1 RMS=1.34D-10 Max=6.57D-09 NDo=     1
 LinEq1:  Iter= 23 NonCon=     1 RMS=7.33D-11 Max=3.99D-09 NDo=     1
 LinEq1:  Iter= 24 NonCon=     1 RMS=2.79D-11 Max=1.02D-09 NDo=     1
 LinEq1:  Iter= 25 NonCon=     0 RMS=1.07D-11 Max=3.58D-10 NDo=     1
 Linear equations converged to 1.000D-10 1.000D-09 after    25 iterations.
          There are     1 degrees of freedom in the 1st order CPHF.  IDoFFX=0 NUNeed=     1.
 End of Minotr F.D. properties file   721 does not exist.
 End of Minotr F.D. properties file   722 does not exist.
 End of Minotr F.D. properties file   788 does not exist.
 Symmetrizing basis deriv contribution to polar:
 IMax=3 JMax=2 DiffMx= 0.00D+00

 **********************************************************************

            Population analysis using the SCF Density.

 **********************************************************************

 Alpha  occ. eigenvalues --  -10.77534 -10.73149 -10.73068 -10.72294 -10.72224
 Alpha  occ. eigenvalues --  -10.71270 -10.71197 -10.70997 -10.70839 -10.70835
 Alpha  occ. eigenvalues --  -10.69857 -10.69824 -10.69547 -10.69507  -1.16259
 Alpha  occ. eigenvalues --   -1.12288  -1.06777  -1.05579  -1.01159  -1.00037
 Alpha  occ. eigenvalues --   -0.95634  -0.90879  -0.86213  -0.85732  -0.83650
 Alpha  occ. eigenvalues --   -0.78240  -0.75786  -0.74199  -0.69352  -0.69078
 Alpha  occ. eigenvalues --   -0.68299  -0.68017  -0.67979  -0.64506  -0.64060
 Alpha  occ. eigenvalues --   -0.62818  -0.61659  -0.59952  -0.59659  -0.58898
 Alpha  occ. eigenvalues --   -0.56691  -0.54992  -0.54601  -0.52415  -0.46582
 Alpha  occ. eigenvalues --   -0.45999  -0.44434
 Alpha virt. eigenvalues --   -0.25961  -0.14401  -0.13959  -0.12486  -0.06851
 Alpha virt. eigenvalues --   -0.05510  -0.05364  -0.04073  -0.02675  -0.01624
 Alpha virt. eigenvalues --   -0.00206   0.00381   0.00577   0.01935   0.02306
 Alpha virt. eigenvalues --    0.04321   0.04505   0.07187   0.07816   0.09467
 Alpha virt. eigenvalues --    0.09932   0.10398   0.12694   0.14096   0.14153
 Alpha virt. eigenvalues --    0.15730   0.15912   0.16475   0.16719   0.16963
 Alpha virt. eigenvalues --    0.17737   0.17944   0.19443   0.19691   0.20388
 Alpha virt. eigenvalues --    0.20769   0.21986   0.22520   0.22924   0.24297
 Alpha virt. eigenvalues --    0.25252   0.26410   0.26762   0.27009   0.27442
 Alpha virt. eigenvalues --    0.28162   0.28328   0.28670   0.29118   0.29462
 Alpha virt. eigenvalues --    0.30102   0.30260   0.30723   0.31354   0.32298
 Alpha virt. eigenvalues --    0.33069   0.33137   0.34442   0.34534   0.34631
 Alpha virt. eigenvalues --    0.36031   0.37012   0.38303   0.38567   0.38707
 Alpha virt. eigenvalues --    0.39427   0.39459   0.39645   0.41047   0.43055
 Alpha virt. eigenvalues --    0.43384   0.44772   0.44959   0.45710   0.46685
 Alpha virt. eigenvalues --    0.47939   0.49076   0.49577   0.49687   0.50970
 Alpha virt. eigenvalues --    0.52920   0.53229   0.55884   0.55983   0.58078
 Alpha virt. eigenvalues --    0.58496   0.58594   0.58940   0.61195   0.61498
 Alpha virt. eigenvalues --    0.61988   0.62528   0.63205   0.63644   0.65987
 Alpha virt. eigenvalues --    0.66243   0.66750   0.67301   0.68257   0.69891
 Alpha virt. eigenvalues --    0.70259   0.71259   0.71488   0.72209   0.73980
 Alpha virt. eigenvalues --    0.75102   0.76402   0.76730   0.77209   0.79168
 Alpha virt. eigenvalues --    0.80499   0.80581   0.82065   0.83842   0.84668
 Alpha virt. eigenvalues --    0.85515   0.85861   0.86051   0.86175   0.88350
 Alpha virt. eigenvalues --    0.88660   0.88925   0.89664   0.92105   0.93141
 Alpha virt. eigenvalues --    0.93408   0.94868   0.94931   0.95327   0.95970
 Alpha virt. eigenvalues --    0.96862   0.97500   0.99249   1.01182   1.03351
 Alpha virt. eigenvalues --    1.04047   1.04766   1.05280   1.06361   1.07346
 Alpha virt. eigenvalues --    1.07791   1.09622   1.10492   1.12056   1.12316
 Alpha virt. eigenvalues --    1.12813   1.13885   1.14631   1.15384   1.15754
 Alpha virt. eigenvalues --    1.16685   1.16720   1.18019   1.18151   1.19934
 Alpha virt. eigenvalues --    1.22123   1.22147   1.22353   1.24423   1.24601
 Alpha virt. eigenvalues --    1.25699   1.26648   1.27605   1.28125   1.28826
 Alpha virt. eigenvalues --    1.29252   1.29982   1.30503   1.31919   1.32742
 Alpha virt. eigenvalues --    1.34880   1.35917   1.37242   1.37524   1.37719
 Alpha virt. eigenvalues --    1.41415   1.42317   1.42722   1.43960   1.45557
 Alpha virt. eigenvalues --    1.46749   1.47130   1.47305   1.49740   1.50616
 Alpha virt. eigenvalues --    1.56546   1.56799   1.62755   1.63331   1.65563
 Alpha virt. eigenvalues --    1.68682   1.70198   1.73328   1.76708   1.81535
 Alpha virt. eigenvalues --    1.81913   1.82241   1.86610   1.86669   1.89593
 Alpha virt. eigenvalues --    1.91221   1.92304   1.92864   1.94181   1.94825
 Alpha virt. eigenvalues --    1.96769   2.00084   2.03245   2.03659   2.04578
 Alpha virt. eigenvalues --    2.04749   2.06421   2.08378   2.09067   2.10313
 Alpha virt. eigenvalues --    2.13020   2.13503   2.15542   2.15873   2.19111
 Alpha virt. eigenvalues --    2.22979   2.23323   2.23937   2.26674   2.28506
 Alpha virt. eigenvalues --    2.28552   2.29290   2.30279   2.32105   2.32337
 Alpha virt. eigenvalues --    2.33316   2.33673   2.34837   2.35921   2.36148
 Alpha virt. eigenvalues --    2.36613   2.37094   2.38376   2.38786   2.39068
 Alpha virt. eigenvalues --    2.39430   2.43566   2.44523   2.45252   2.46802
 Alpha virt. eigenvalues --    2.48398   2.50361   2.50615   2.52945   2.53346
 Alpha virt. eigenvalues --    2.53812   2.55570   2.57301   2.57463   2.57496
 Alpha virt. eigenvalues --    2.58026   2.58536   2.59173   2.59553   2.59694
 Alpha virt. eigenvalues --    2.61494   2.61652   2.64309   2.64869   2.65387
 Alpha virt. eigenvalues --    2.66267   2.66814   2.68277   2.69215   2.70877
 Alpha virt. eigenvalues --    2.72544   2.74449   2.74561   2.75094   2.75550
 Alpha virt. eigenvalues --    2.76216   2.76377   2.78074   2.79432   2.80195
 Alpha virt. eigenvalues --    2.80223   2.81072   2.81195   2.82537   2.83682
 Alpha virt. eigenvalues --    2.84749   2.84901   2.85387   2.85608   2.85864
 Alpha virt. eigenvalues --    2.87953   2.88788   2.89042   2.89728   2.91483
 Alpha virt. eigenvalues --    2.92262   2.92478   2.92607   2.93003   2.93879
 Alpha virt. eigenvalues --    2.93982   2.95400   2.95964   2.96084   2.96911
 Alpha virt. eigenvalues --    2.98090   2.98295   2.98937   3.00173   3.01408
 Alpha virt. eigenvalues --    3.01821   3.02013   3.03337   3.03364   3.04119
 Alpha virt. eigenvalues --    3.05682   3.06071   3.06181   3.07652   3.07956
 Alpha virt. eigenvalues --    3.10710   3.12739   3.13183   3.15205   3.15345
 Alpha virt. eigenvalues --    3.15420   3.15590   3.16208   3.16982   3.17921
 Alpha virt. eigenvalues --    3.20432   3.20825   3.21010   3.21496   3.22248
 Alpha virt. eigenvalues --    3.22755   3.23544   3.24078   3.24286   3.26882
 Alpha virt. eigenvalues --    3.28991   3.29012   3.29359   3.29782   3.31370
 Alpha virt. eigenvalues --    3.33040   3.33942   3.33967   3.34657   3.36548
 Alpha virt. eigenvalues --    3.39298   3.40264   3.41136   3.43676   3.45319
 Alpha virt. eigenvalues --    3.46703   3.46951   3.49128   3.50601   3.50658
 Alpha virt. eigenvalues --    3.50703   3.53676   3.53743   3.54627   3.55963
 Alpha virt. eigenvalues --    3.56419   3.56893   3.57018   3.57479   3.59732
 Alpha virt. eigenvalues --    3.60550   3.61188   3.61733   3.61924   3.63298
 Alpha virt. eigenvalues --    3.63989   3.65417   3.66393   3.67758   3.67772
 Alpha virt. eigenvalues --    3.67915   3.68151   3.68648   3.69364   3.70846
 Alpha virt. eigenvalues --    3.72030   3.75761   3.76254   3.76755   3.78406
 Alpha virt. eigenvalues --    3.78533   3.78656   3.80619   3.83072   3.83286
 Alpha virt. eigenvalues --    3.83333   3.85175   3.85360   3.85641   3.87897
 Alpha virt. eigenvalues --    3.89308   3.89384   3.89934   3.92062   3.94419
 Alpha virt. eigenvalues --    3.95219   3.95494   3.95841   3.96830   3.97930
 Alpha virt. eigenvalues --    3.98048   3.98194   4.01305   4.01842   4.02180
 Alpha virt. eigenvalues --    4.03743   4.05668   4.05811   4.06640   4.07461
 Alpha virt. eigenvalues --    4.07651   4.08457   4.08540   4.11219   4.11389
 Alpha virt. eigenvalues --    4.12191   4.12721   4.13124   4.14279   4.15001
 Alpha virt. eigenvalues --    4.15633   4.17066   4.18573   4.18840   4.21565
 Alpha virt. eigenvalues --    4.21608   4.23829   4.24356   4.27912   4.30070
 Alpha virt. eigenvalues --    4.31148   4.32562   4.33727   4.36191   4.37424
 Alpha virt. eigenvalues --    4.40609   4.43018   4.43107   4.47203   4.50838
 Alpha virt. eigenvalues --    4.50854   4.52849   4.53395   4.53896   4.54261
 Alpha virt. eigenvalues --    4.56687   4.58063   4.58204   4.61215   4.63236
 Alpha virt. eigenvalues --    4.66417   4.66592   4.68959   4.69760   4.70311
 Alpha virt. eigenvalues --    4.76135   4.76561   4.79985   4.80244   4.81970
 Alpha virt. eigenvalues --    4.83297   4.83597   4.83865   4.86709   4.88757
 Alpha virt. eigenvalues --    4.90088   4.91497   4.93020   4.96703   4.98562
 Alpha virt. eigenvalues --    5.00365   5.02360   5.05475   5.07532   5.10775
 Alpha virt. eigenvalues --    5.16364   5.16385   5.16798   5.19489   5.23444
 Alpha virt. eigenvalues --    5.24188   5.27704   5.31944   5.33108   5.43430
 Alpha virt. eigenvalues --    5.46281   5.48553   5.50856   5.58154   5.61766
 Alpha virt. eigenvalues --    5.62716   5.64954   5.69196   5.70258   5.77942
 Alpha virt. eigenvalues --    5.78981   5.83510   5.87084   5.99743   6.11385
 Alpha virt. eigenvalues --    6.14520   6.48192   6.63215   8.16827   9.51596
 Alpha virt. eigenvalues --   11.52687  12.20472  12.44111  12.69499  12.83422
 Alpha virt. eigenvalues --   12.93094  13.06991  13.36563  14.49086  14.59314
 Alpha virt. eigenvalues --   15.09948  15.66117
          Condensed to atoms (all electrons):
               1          2          3          4          5          6
     1  C    4.936644   0.500117  -0.063533  -0.020597   0.000045   0.000001
     2  C    0.500117   4.823119   0.472018  -0.064142  -0.000003  -0.000000
     3  C   -0.063533   0.472018   4.902621   0.520446   0.000012   0.000000
     4  C   -0.020597  -0.064142   0.520446   4.916603  -0.000255   0.000012
     5  C    0.000045  -0.000003   0.000012  -0.000255   4.910356   0.520157
     6  C    0.000001  -0.000000   0.000000   0.000012   0.520157   4.903783
     7  C    0.000006  -0.000000  -0.000000  -0.000003  -0.064510   0.470809
     8  C   -0.000053   0.000006   0.000001   0.000046  -0.019766  -0.062843
     9  C   -0.065726   0.004446  -0.001412   0.005517   0.005418  -0.001432
    10  C    0.006386  -0.001548   0.007486  -0.041555  -0.041417   0.007643
    11  C    0.484267  -0.039725  -0.040534  -0.074259  -0.001940   0.000168
    12  C   -0.056106  -0.023762  -0.043203   0.414861   0.007466  -0.000441
    13  C    0.008694  -0.000132   0.000166  -0.001965  -0.073256  -0.040146
    14  C   -0.001443  -0.000052  -0.000432   0.007512   0.414704  -0.042939
    15  H    0.430407  -0.037193   0.005488  -0.000813  -0.000000   0.000000
    16  H   -0.044110   0.437314  -0.043980   0.005790   0.000000  -0.000000
    17  H    0.005821  -0.044043   0.435308  -0.041156  -0.000000   0.000000
    18  H   -0.000566   0.004652  -0.030730   0.439813  -0.000007   0.000001
    19  H   -0.000163   0.000039   0.000163  -0.001136  -0.001203   0.000180
    20  H   -0.000001  -0.000000   0.000001  -0.000007   0.439773  -0.031268
    21  H    0.000000   0.000000   0.000000  -0.000000  -0.041618   0.435561
    22  H   -0.000000   0.000000  -0.000000   0.000000   0.005786  -0.043860
    23  H    0.000016   0.000001   0.000000  -0.000000  -0.000827   0.005427
    24  H   -0.009993  -0.000076   0.000023   0.000166   0.000159   0.000023
    25  H   -0.009993  -0.000076   0.000023   0.000166   0.000159   0.000023
               7          8          9         10         11         12
     1  C    0.000006  -0.000053  -0.065726   0.006386   0.484267  -0.056106
     2  C   -0.000000   0.000006   0.004446  -0.001548  -0.039725  -0.023762
     3  C   -0.000000   0.000001  -0.001412   0.007486  -0.040534  -0.043203
     4  C   -0.000003   0.000046   0.005517  -0.041555  -0.074259   0.414861
     5  C   -0.064510  -0.019766   0.005418  -0.041417  -0.001940   0.007466
     6  C    0.470809  -0.062843  -0.001432   0.007643   0.000168  -0.000441
     7  C    4.824609   0.499479   0.004521  -0.001583  -0.000132  -0.000054
     8  C    0.499479   4.936012  -0.065705   0.006499   0.008686  -0.001461
     9  C    0.004521  -0.065705   5.048655  -0.023606   0.323029  -0.040434
    10  C   -0.001583   0.006499  -0.023606   4.873903  -0.038531   0.471195
    11  C   -0.000132   0.008686   0.323029  -0.038531   5.106566   0.339540
    12  C   -0.000054  -0.001461  -0.040434   0.471195   0.339540   5.039375
    13  C   -0.040114   0.482820   0.325694  -0.038987  -0.001736  -0.049169
    14  C   -0.024590  -0.055585  -0.040511   0.470218  -0.049397  -0.046526
    15  H    0.000001   0.000017   0.001957  -0.000068  -0.056502   0.008408
    16  H    0.000000  -0.000000  -0.000224   0.000040   0.007078  -0.000875
    17  H    0.000000   0.000000   0.000057  -0.000286  -0.000551   0.006419
    18  H   -0.000000  -0.000001  -0.000116  -0.000765   0.005106  -0.063611
    19  H    0.000038  -0.000163  -0.000192   0.417587   0.004922  -0.034951
    20  H    0.004745  -0.000596  -0.000115  -0.000670  -0.000057   0.000813
    21  H   -0.043857   0.005762   0.000057  -0.000295  -0.000005   0.000015
    22  H    0.437455  -0.044187  -0.000224   0.000040   0.000008  -0.000001
    23  H   -0.037160   0.430595   0.001681  -0.000070   0.000306  -0.000007
    24  H   -0.000084  -0.009795   0.413774  -0.002298  -0.039318   0.007829
    25  H   -0.000084  -0.009795   0.413774  -0.002298  -0.039318   0.007829
              13         14         15         16         17         18
     1  C    0.008694  -0.001443   0.430407  -0.044110   0.005821  -0.000566
     2  C   -0.000132  -0.000052  -0.037193   0.437314  -0.044043   0.004652
     3  C    0.000166  -0.000432   0.005488  -0.043980   0.435308  -0.030730
     4  C   -0.001965   0.007512  -0.000813   0.005790  -0.041156   0.439813
     5  C   -0.073256   0.414704  -0.000000   0.000000  -0.000000  -0.000007
     6  C   -0.040146  -0.042939   0.000000  -0.000000   0.000000   0.000001
     7  C   -0.040114  -0.024590   0.000001   0.000000   0.000000  -0.000000
     8  C    0.482820  -0.055585   0.000017  -0.000000   0.000000  -0.000001
     9  C    0.325694  -0.040511   0.001957  -0.000224   0.000057  -0.000116
    10  C   -0.038987   0.470218  -0.000068   0.000040  -0.000286  -0.000765
    11  C   -0.001736  -0.049397  -0.056502   0.007078  -0.000551   0.005106
    12  C   -0.049169  -0.046526   0.008408  -0.000875   0.006419  -0.063611
    13  C    5.099499   0.341344   0.000316   0.000008  -0.000005  -0.000059
    14  C    0.341344   5.041764  -0.000007  -0.000001   0.000014   0.000823
    15  H    0.000316  -0.000007   0.516600  -0.006088  -0.000197   0.000034
    16  H    0.000008  -0.000001  -0.006088   0.503252  -0.005958  -0.000154
    17  H   -0.000005   0.000014  -0.000197  -0.005958   0.508153  -0.006343
    18  H   -0.000059   0.000823   0.000034  -0.000154  -0.006343   0.518221
    19  H    0.004904  -0.035516   0.000011  -0.000002  -0.000026   0.002690
    20  H    0.005042  -0.063256   0.000000   0.000000   0.000000   0.000003
    21  H   -0.000578   0.006511  -0.000000   0.000000  -0.000000   0.000000
    22  H    0.007132  -0.000864  -0.000000  -0.000000   0.000000   0.000000
    23  H   -0.056474   0.008468   0.000010  -0.000000  -0.000000   0.000000
    24  H   -0.038858   0.007736   0.000403  -0.000009  -0.000000   0.000013
    25  H   -0.038858   0.007736   0.000403  -0.000009  -0.000000   0.000013
              19         20         21         22         23         24
     1  C   -0.000163  -0.000001   0.000000  -0.000000   0.000016  -0.009993
     2  C    0.000039  -0.000000   0.000000   0.000000   0.000001  -0.000076
     3  C    0.000163   0.000001   0.000000  -0.000000   0.000000   0.000023
     4  C   -0.001136  -0.000007  -0.000000   0.000000  -0.000000   0.000166
     5  C   -0.001203   0.439773  -0.041618   0.005786  -0.000827   0.000159
     6  C    0.000180  -0.031268   0.435561  -0.043860   0.005427   0.000023
     7  C    0.000038   0.004745  -0.043857   0.437455  -0.037160  -0.000084
     8  C   -0.000163  -0.000596   0.005762  -0.044187   0.430595  -0.009795
     9  C   -0.000192  -0.000115   0.000057  -0.000224   0.001681   0.413774
    10  C    0.417587  -0.000670  -0.000295   0.000040  -0.000070  -0.002298
    11  C    0.004922  -0.000057  -0.000005   0.000008   0.000306  -0.039318
    12  C   -0.034951   0.000813   0.000015  -0.000001  -0.000007   0.007829
    13  C    0.004904   0.005042  -0.000578   0.007132  -0.056474  -0.038858
    14  C   -0.035516  -0.063256   0.006511  -0.000864   0.008468   0.007736
    15  H    0.000011   0.000000  -0.000000  -0.000000   0.000010   0.000403
    16  H   -0.000002   0.000000   0.000000  -0.000000  -0.000000  -0.000009
    17  H   -0.000026   0.000000  -0.000000   0.000000  -0.000000  -0.000000
    18  H    0.002690   0.000003   0.000000   0.000000   0.000000   0.000013
    19  H    0.480113   0.002695  -0.000027  -0.000002   0.000011   0.000016
    20  H    0.002695   0.518010  -0.006458  -0.000154   0.000035   0.000013
    21  H   -0.000027  -0.006458   0.508340  -0.005952  -0.000194  -0.000000
    22  H   -0.000002  -0.000154  -0.005952   0.503038  -0.006092  -0.000009
    23  H    0.000011   0.000035  -0.000194  -0.006092   0.516394   0.000428
    24  H    0.000016   0.000013  -0.000000  -0.000009   0.000428   0.499345
    25  H    0.000016   0.000013  -0.000000  -0.000009   0.000428  -0.032343
              25
     1  C   -0.009993
     2  C   -0.000076
     3  C    0.000023
     4  C    0.000166
     5  C    0.000159
     6  C    0.000023
     7  C   -0.000084
     8  C   -0.009795
     9  C    0.413774
    10  C   -0.002298
    11  C   -0.039318
    12  C    0.007829
    13  C   -0.038858
    14  C    0.007736
    15  H    0.000403
    16  H   -0.000009
    17  H   -0.000000
    18  H    0.000013
    19  H    0.000016
    20  H    0.000013
    21  H   -0.000000
    22  H   -0.000009
    23  H    0.000428
    24  H   -0.032343
    25  H    0.499345
 Mulliken charges:
               1
     1  C   -0.100122
     2  C   -0.030957
     3  C   -0.119931
     4  C   -0.065043
     5  C   -0.059231
     6  C   -0.120862
     7  C   -0.029490
     8  C   -0.099973
     9  C   -0.308884
    10  C   -0.067019
    11  C    0.102327
    12  C    0.056850
    13  C    0.104720
    14  C    0.054288
    15  H    0.136815
    16  H    0.147929
    17  H    0.142794
    18  H    0.130982
    19  H    0.159995
    20  H    0.131439
    21  H    0.142739
    22  H    0.147894
    23  H    0.137024
    24  H    0.202858
    25  H    0.202858
 Sum of Mulliken charges =   1.00000
 Mulliken charges with hydrogens summed into heavy atoms:
               1
     1  C    0.036693
     2  C    0.116972
     3  C    0.022863
     4  C    0.065939
     5  C    0.072208
     6  C    0.021877
     7  C    0.118404
     8  C    0.037051
     9  C    0.096831
    10  C    0.092976
    11  C    0.102327
    12  C    0.056850
    13  C    0.104720
    14  C    0.054288
 Electronic spatial extent (au):  <R**2>=           2855.3622
 Charge=              1.0000 electrons
 Dipole moment (field-independent basis, Debye):
    X=             -0.0823    Y=             -0.1546    Z=             -0.0000  Tot=              0.1751
 Quadrupole moment (field-independent basis, Debye-Ang):
   XX=            -30.9527   YY=            -56.4139   ZZ=            -83.3714
   XY=              0.0224   XZ=             -0.0000   YZ=              0.0000
 Traceless Quadrupole moment (field-independent basis, Debye-Ang):
   XX=             25.9600   YY=              0.4987   ZZ=            -26.4587
   XY=              0.0224   XZ=             -0.0000   YZ=              0.0000
 Octapole moment (field-independent basis, Debye-Ang**2):
  XXX=             -0.9184  YYY=             -6.7000  ZZZ=             -0.0000  XYY=             -0.1909
  XXY=              4.8620  XXZ=              0.0000  XZZ=             -0.1193  YZZ=              2.2374
  YYZ=             -0.0000  XYZ=              0.0000
 Hexadecapole moment (field-independent basis, Debye-Ang**3):
 XXXX=          -2120.8347 YYYY=           -609.9437 ZZZZ=            -97.6080 XXXY=             -0.4953
 XXXZ=             -0.0000 YYYX=             -0.4519 YYYZ=              0.0000 ZZZX=             -0.0000
 ZZZY=              0.0000 XXYY=           -507.9943 XXZZ=           -584.5646 YYZZ=           -144.2800
 XXYZ=              0.0000 YYXZ=             -0.0000 ZZXY=             -0.2151
 N-N= 7.811968555701D+02 E-N=-2.797905726734D+03  KE= 5.364409503810D+02
  Exact polarizability:       0.000       0.000       0.000       0.000       0.000       0.000
 Approx polarizability:     336.744      -0.195     228.582       0.000       0.000     102.924
 Calling FoFJK, ICntrl=  10005127 FMM=F ISym2X=0 I1Cent= 0 IOpClX= 0 NMat=1 NMatS=1 NMatT=0.
 Calling FoFJK, ICntrl=  10002127 FMM=F ISym2X=0 I1Cent= 0 IOpClX= 0 NMat=1 NMatS=1 NMatT=0.
 -------------------------------------------------------------------
 Center     Atomic                   Forces (Hartrees/Bohr)
 Number     Number              X              Y              Z
 -------------------------------------------------------------------
      1        6           0.000241246   -0.000044874   -0.000000000
      2        6           0.000224792    0.000112410    0.000000000
      3        6           0.000076538    0.000197329    0.000000000
      4        6          -0.000257828    0.000163714   -0.000000000
      5        6          -0.000301278   -0.000106004   -0.000000000
      6        6           0.000165074   -0.000252093   -0.000000000
      7        6           0.000317711   -0.000110812    0.000000000
      8        6           0.000222030   -0.000018441    0.000000000
      9        6           0.000130432    0.000040629   -0.000000000
     10        6          -0.000424620   -0.000020696   -0.000000000
     11        6          -0.000110729   -0.000129220    0.000000000
     12        6          -0.000099886    0.000016802    0.000000000
     13        6          -0.000132318    0.000189722    0.000000000
     14        6          -0.000159898   -0.000027671    0.000000000
     15        1           0.000007135   -0.000001527   -0.000000000
     16        1           0.000024418    0.000011801    0.000000000
     17        1          -0.000000319    0.000003049   -0.000000000
     18        1          -0.000009752    0.000026217    0.000000000
     19        1          -0.000031996   -0.000001181   -0.000000000
     20        1          -0.000015063    0.000007620    0.000000000
     21        1          -0.000000909   -0.000003175    0.000000000
     22        1           0.000019805   -0.000005713    0.000000000
     23        1           0.000005614   -0.000003838   -0.000000000
     24        1           0.000054900   -0.000022024    0.000048545
     25        1           0.000054900   -0.000022024   -0.000048545
 -------------------------------------------------------------------
 Cartesian Forces:  Max     0.000424620 RMS     0.000112585
 -------------------------------------------------------------------
 Center     Atomic                Nonadiabatic Coup. (Bohr^-1)
 Number     Number              X              Y              Z
 -------------------------------------------------------------------
      1        6          -0.385410880   -0.057120263   -0.000000000
      2        6           0.133832495   -0.250529306    0.000000000
      3        6           0.201062476    0.256014210   -0.000000000
      4        6          -0.144813316   -0.065796616   -0.000000000
      5        6           0.133007403   -0.059449652   -0.000000000
      6        6          -0.183790146    0.232103244    0.000000000
      7        6          -0.122148513   -0.229435083   -0.000000000
      8        6           0.354470730   -0.051910205    0.000000000
      9        6           0.001770859    0.251525920    0.000000000
     10        6           0.002928515   -0.090669371    0.000000000
     11        6           0.223906301    0.034337223    0.000000000
     12        6          -0.010809404    0.085143120    0.000000000
     13        6          -0.205648650    0.030342336    0.000000000
     14        6           0.006079881    0.076997066    0.000000000
     15        1          -0.000774727   -0.000673840    0.000000000
     16        1           0.006955469   -0.009091416   -0.000000000
     17        1          -0.002191029    0.000080731    0.000000000
     18        1           0.001340676   -0.008170086   -0.000000000
     19        1          -0.000323059   -0.006225914   -0.000000000
     20        1          -0.001572013   -0.007548108   -0.000000000
     21        1           0.001988374    0.000169353    0.000000000
     22        1          -0.006600148   -0.008299416    0.000000000
     23        1           0.001161807   -0.000935752    0.000000000
     24        1          -0.001982078   -0.025778307    0.007167046
     25        1          -0.001982078   -0.025778307   -0.007167046
 -------------------------------------------------------------------
 Cartesian Nonad. Coup.:  Max     0.385410880 RMS     0.106442313
 IRC-IRC-IRC-IRC-IRC-IRC-IRC-IRC-IRC-IRC-IRC-IRC-IRC-IRC-IRC-IRC-IRC-IRC
 Pt  1 Step number   1 out of a maximum of  20
 Modified Bulirsch-Stoer Extrapolation Cycles:
    EPS =    0.000010000000000
      PEZero:  N= 2 I= 1 D=  1.26D-04 Err=  1.58D-04
      PEZero:  N= 3 I= 2 D=  1.26D-04 Err=  1.05D-04
      PEZero:  N= 3 I= 1 D=  2.51D-04 Err=  5.65D-07
 Maximum DWI energy   std dev =  0.000000026 at pt    26
 Maximum DWI gradient std dev =  0.171000958 at pt     2
 CORRECTOR INTEGRATION CONVERGENCE:
   Recorrection delta-x convergence threshold:    0.010000
   Delta-x Convergence Met
 Point Number:   1          Path Number:   1
   CHANGE IN THE REACTION COORDINATE =    0.04825
   NET REACTION COORDINATE UP TO THIS POINT =    0.04825
  # OF POINTS ALONG THE PATH =   1
  # OF STEPS =   1

 Calculating another point on the path.
 IRC-IRC-IRC-IRC-IRC-IRC-IRC-IRC-IRC-IRC-IRC-IRC-IRC-IRC-IRC-IRC-IRC-IRC
                          Input orientation:                          
 ---------------------------------------------------------------------
 Center     Atomic      Atomic             Coordinates (Angstroms)
 Number     Number       Type             X           Y           Z
 ---------------------------------------------------------------------
      1          6           0        2.496112    1.368993    0.000000
      2          6           0        3.705262    0.682212    0.000000
      3          6           0        3.685654   -0.701863    0.000000
      4          6           0        2.458947   -1.396987   -0.000000
      5          6           0       -2.467332   -1.400550   -0.000000
      6          6           0       -3.681855   -0.708491   -0.000000
      7          6           0       -3.697504    0.679020    0.000000
      8          6           0       -2.489150    1.369089    0.000000
      9          6           0        0.001802    1.462052   -0.000000
     10          6           0       -0.006105   -1.420509   -0.000000
     11          6           0        1.260142    0.683413    0.000000
     12          6           0        1.235664   -0.721785    0.000000
     13          6           0       -1.263946    0.688163    0.000000
     14          6           0       -1.239298   -0.722402    0.000000
     15          1           0        2.489127    2.452232   -0.000000
     16          1           0        4.640362    1.221799    0.000000
     17          1           0        4.609343   -1.263341    0.000000
     18          1           0        2.465555   -2.479557   -0.000000
     19          1           0       -0.005333   -2.501582   -0.000000
     20          1           0       -2.469546   -2.482924   -0.000000
     21          1           0       -4.608976   -1.264007   -0.000000
     22          1           0       -4.632888    1.218858    0.000000
     23          1           0       -2.487098    2.452261    0.000000
     24          1           0        0.009398    2.154485   -0.859358
     25          1           0        0.009398    2.154485    0.859358
 ---------------------------------------------------------------------
                    Distance matrix (angstroms):
                    1          2          3          4          5
     1  C    0.000000
     2  C    1.390579   0.000000
     3  C    2.388190   1.384214   0.000000
     4  C    2.766230   2.424123   1.409968   0.000000
     5  C    5.683850   6.514508   6.192528   4.926280   0.000000
     6  C    6.517916   7.516884   7.367512   6.179278   1.397860
     7  C    6.231929   7.402766   7.511182   6.497052   2.416181
     8  C    4.985262   6.232378   6.512837   5.668760   2.769725
     9  C    2.496045   3.784675   4.272387   3.769836   3.780359
    10  C    3.747320   4.265639   3.761055   2.465164   2.461308
    11  C    1.413380   2.445120   2.793224   2.401083   4.270476
    12  C    2.441327   2.840795   2.450071   1.397254   3.764692
    13  C    3.821200   4.969211   5.141081   4.267058   2.410573
    14  C    4.281030   5.140196   4.924995   3.759266   1.402837
    15  H    1.083262   2.147546   3.373424   3.849338   6.277772
    16  H    2.149296   1.079614   2.147544   3.408316   7.576017
    17  H    3.375636   2.145353   1.080952   2.154545   7.078005
    18  H    3.848670   3.396123   2.156116   1.082589   5.049518
    19  H    4.608533   4.889280   4.106382   2.700519   2.696982
    20  H    6.284507   6.938756   6.407704   5.046712   1.082377
    21  H    7.577267   8.538988   8.313657   7.069174   2.145992
    22  H    7.130581   8.355401   8.537406   7.558886   3.398665
    23  H    5.099594   6.440372   6.931910   6.267382   3.852861
    24  H    2.745768   4.070072   4.734140   4.399061   4.417122
    25  H    2.745768   4.070072   4.734140   4.399061   4.417122
                    6          7          8          9         10
     6  C    0.000000
     7  C    1.387599   0.000000
     8  C    2.395597   1.391516   0.000000
     9  C    4.275581   3.781270   2.492686   0.000000
    10  C    3.744077   4.246698   3.734618   2.882571   0.000000
    11  C    5.134270   4.957648   3.811475   1.479762   2.455579
    12  C    4.917538   5.128196   4.271533   2.508298   1.424853
    13  C    2.792298   2.433575   1.401708   1.483584   2.455333
    14  C    2.442597   2.829622   2.436486   2.512403   1.417081
    15  H    6.933339   6.435735   5.094747   2.677171   4.606984
    16  H    8.543145   8.355514   7.131033   4.644777   5.345226
    17  H    8.309743   8.530913   7.570884   5.353242   4.618123
    18  H    6.397447   6.925308   6.273849   4.648264   2.688993
    19  H    4.090476   4.873228   4.599070   3.963640   1.081073
    20  H    2.149025   3.392016   3.852064   4.655148   2.682772
    21  H    1.080811   2.146191   3.380364   5.356368   4.605531
    22  H    2.149217   1.079985   2.148995   4.641066   5.326666
    23  H    3.379023   2.146966   1.083173   2.678645   4.599312
    24  H    4.749788   4.081252   2.756463   1.103639   3.676862
    25  H    4.749788   4.081252   2.756463   1.103639   3.676862
                   11         12         13         14         15
    11  C    0.000000
    12  C    1.405411   0.000000
    13  C    2.524092   2.869844   0.000000
    14  C    2.867667   2.474962   1.410780   0.000000
    15  H    2.153863   3.412558   4.146987   4.896882   0.000000
    16  H    3.422827   3.920393   5.928374   6.192763   2.478260
    17  H    3.873887   3.416869   6.189014   5.873603   4.277943
    18  H    3.384878   2.145319   4.893222   4.100430   4.931845
    19  H    3.427188   2.169736   3.429078   2.165214   5.546405
    20  H    4.892470   4.102462   3.392531   2.147778   6.996014
    21  H    6.183769   5.869738   3.873009   3.412927   8.012085
    22  H    5.917305   6.181099   3.410484   3.909596   7.228022
    23  H    4.143746   4.892190   2.146658   3.411083   4.976226
    24  H    2.113506   3.242707   2.123677   3.251802   2.641251
    25  H    2.113506   3.242707   2.123677   3.251802   2.641251
                   16         17         18         19         20
    16  H    0.000000
    17  H    2.485333   0.000000
    18  H    4.292997   2.464753   0.000000
    19  H    5.953659   4.777916   2.470986   0.000000
    20  H    8.017217   7.183178   4.935102   2.464283   0.000000
    21  H    9.577551   9.218319   7.178200   4.767087   2.462300
    22  H    9.273250   9.569751   8.004133   5.937670   4.287568
    23  H    7.232892   8.010317   6.989392   5.540732   4.935217
    24  H    4.801481   5.794784   5.314654   4.734730   5.328154
    25  H    4.801481   5.794784   5.314654   4.734730   5.328154
                   21         22         23         24         25
    21  H    0.000000
    22  H    2.482980   0.000000
    23  H    4.279370   2.475014   0.000000
    24  H    5.809817   4.812973   2.657003   0.000000
    25  H    5.809817   4.812973   2.657003   1.718717   0.000000
 Symmetry turned off by external request.
 Stoichiometry    C14H11(1+)
 Framework group  CS[SG(C14H9),X(H2)]
 Deg. of freedom    46
 Full point group                 CS      NOp   2
 Rotational constants (GHZ):           2.1363584           0.4446453           0.3688432
 Standard basis: CC-pVTZ (5D, 7F)
   574 basis functions,   915 primitive gaussians,   655 cartesian basis functions
    47 alpha electrons       47 beta electrons
       nuclear repulsion energy       781.2203426115 Hartrees.
 NAtoms=   25 NActive=   25 NUniq=   25 SFac= 1.00D+00 NAtFMM=   60 NAOKFM=F Big=F
 Integral buffers will be    131072 words long.
 Regular integral format.
 Two-electron integral symmetry is turned off.
 Nuclear repulsion after empirical dispersion term =      781.2193631476 Hartrees.
 One-electron integrals computed using PRISM.
 NBasis=   574 RedAO= T EigKep=  1.74D-05  NBF=   574
 NBsUse=   574 1.00D-06 EigRej= -1.00D+00 NBFU=   574
 Initial guess from the checkpoint file:  "check_ts6.chk"
 B after Tr=     0.000097    0.000000   -0.000000
         Rot=    1.000000   -0.000000   -0.000000    0.000009 Ang=   0.00 deg.
 ExpMin= 1.03D-01 ExpMax= 8.24D+03 ExpMxC= 2.81D+02 IAcc=3 IRadAn=         5 AccDes= 0.00D+00
 Harris functional with IExCor= 1009 and IRadAn=       5 diagonalized for initial guess.
 HarFok:  IExCor= 1009 AccDes= 0.00D+00 IRadAn=         5 IDoV= 1 UseB2=F ITyADJ=14
 ICtDFT=  3500011 ScaDFX=  1.000000  1.000000  1.000000  1.000000
 FoFCou: FMM=F IPFlag=           0 FMFlag=      100000 FMFlg1=           0
         NFxFlg=           0 DoJE=T BraDBF=F KetDBF=T FulRan=T
         wScrn=  0.000000 ICntrl=       500 IOpCl=  0 I1Cent=   200000004 NGrid=           0
         NMat0=    1 NMatS0=      1 NMatT0=    0 NMatD0=    1 NMtDS0=    0 NMtDT0=    0
 Symmetry not used in FoFCou.
 Requested convergence on RMS density matrix=1.00D-08 within 128 cycles.
 Requested convergence on MAX density matrix=1.00D-06.
 Requested convergence on             energy=1.00D-06.
 No special actions if energy rises.
 Integral accuracy reduced to 1.0D-05 until final iterations.
 Initial convergence to 1.0D-05 achieved.  Increase integral accuracy.
 SCF Done:  E(RM062X) =  -539.815698528     A.U. after   11 cycles
            NFock= 11  Conv=0.56D-08     -V/T= 2.0063
 DoSCS=F DFT=T ScalE2(SS,OS)=  1.000000  1.000000
 ExpMin= 1.03D-01 ExpMax= 8.24D+03 ExpMxC= 2.81D+02 IAcc=3 IRadAn=         5 AccDes= 0.00D+00
 HarFok:  IExCor=  205 AccDes= 0.00D+00 IRadAn=         5 IDoV=-2 UseB2=F ITyADJ=14
 ICtDFT= 12500011 ScaDFX=  1.000000  1.000000  1.000000  1.000000
 Range of M.O.s used for correlation:    15   574
 NBasis=   574 NAE=    47 NBE=    47 NFC=    14 NFV=     0
 NROrb=    560 NOA=    33 NOB=    33 NVA=   527 NVB=   527

 **** Warning!!: The largest alpha MO coefficient is  0.55844061D+02

 Generating guess from densities on rwf.
 Convergence on wavefunction:    0.000001000000000
 Iteration     1 Dimension     6 NMult     0 NNew      6
 CISAX will form     6 AO SS matrices at one time.
 Iteration     2 Dimension    12 NMult     6 NNew      6
 Iteration     3 Dimension    18 NMult    12 NNew      6
 Iteration     4 Dimension    24 NMult    18 NNew      6
 Iteration     5 Dimension    30 NMult    24 NNew      6
 Iteration     6 Dimension    36 NMult    30 NNew      6
 Iteration     7 Dimension    42 NMult    36 NNew      6
 Iteration     8 Dimension    46 NMult    42 NNew      4
 ***********************************************************************
 Excited states from <AA,BB:AA,BB> singles matrix:
 ***********************************************************************
 
 Ground to excited state transition densities written to RWF  633
 Ground to excited state transition electric dipole moments (Au):
       state          X           Y           Z        Dip. S.      Osc.
         1         0.0101      0.6276      0.0000      0.3940      0.0272
         2         0.2200     -0.0747      0.0000      0.0540      0.0043
         3         2.5284      0.0068      0.0000      6.3929      0.5459
 Ground to excited state transition velocity dipole moments (Au):
       state          X           Y           Z        Dip. S.      Osc.
         1        -0.0009     -0.0689     -0.0000      0.0047      0.0305
         2        -0.0257      0.0094     -0.0000      0.0007      0.0042
         3        -0.3335     -0.0009     -0.0000      0.1112      0.5789
 Ground to excited state transition magnetic dipole moments (Au):
       state          X           Y           Z
         1        -0.0000     -0.0000     -0.0455
         2        -0.0000      0.0000     -0.9393
         3        -0.0000      0.0000     -1.1052
 Ground to excited state transition velocity quadrupole moments (Au):
       state          XX          YY          ZZ          XY          XZ          YZ
         1         0.2711      0.0274     -0.0077     -0.0194     -0.0000     -0.0000
         2        -0.0355     -0.0050      0.0011     -0.2808     -0.0000     -0.0000
         3         0.0190     -0.0013      0.0001     -0.1175     -0.0000      0.0000
 <0|del|b> * <b|rxdel|0> + <0|del|b> * <b|delr+rdel|0>
 Rotatory Strengths (R) in cgs (10**-40 erg-esu-cm/Gauss)
       state          XX          YY          ZZ    R(velocity)    E-M Angle
         1         0.0000      0.0000      0.0000      0.0000       90.00
         2         0.0000      0.0000     -0.0000      0.0000       90.00
         3         0.0000      0.0000      0.0000      0.0000       90.00
 1/2[<0|r|b>*<b|rxdel|0> + (<0|rxdel|b>*<b|r|0>)*]
 Rotatory Strengths (R) in cgs (10**-40 erg-esu-cm/Gauss)
       state          XX          YY          ZZ     R(length)
         1         0.0000      0.0000      0.0000      0.0000
         2         0.0000      0.0000      0.0000      0.0000
         3         0.0000     -0.0000      0.0000      0.0000
  1/2[<0|del|b>*<b|r|0> + (<0|r|b>*<b|del|0>)*] (Au)
       state          X           Y           Z        Dip. S.   Osc.(frdel)
         1        -0.0000     -0.0432     -0.0000      0.0432      0.0288
         2        -0.0057     -0.0007     -0.0000      0.0064      0.0042
         3        -0.8432     -0.0000     -0.0000      0.8433      0.5622

 Excitation energies and oscillator strengths:
 
 Excited state symmetry could not be determined.
 Excited State   1:      Singlet-?Sym    2.8182 eV  439.95 nm  f=0.0272  <S**2>=0.000
      47 -> 48         0.70409
 This state for optimization and/or second-order correction.
 Total Energy, E(TD-HF/TD-DFT) =  -539.712133264    
 Copying the excited state density for this state as the 1-particle RhoCI density.
 
 Excited state symmetry could not be determined.
 Excited State   2:      Singlet-?Sym    3.2697 eV  379.19 nm  f=0.0043  <S**2>=0.000
      45 -> 48         0.61637
      46 -> 48         0.33489
 
 Excited state symmetry could not be determined.
 Excited State   3:      Singlet-?Sym    3.4857 eV  355.69 nm  f=0.5459  <S**2>=0.000
      45 -> 48        -0.33694
      46 -> 48         0.61195
 SavETr:  write IOETrn=   770 NScale= 10 NData=  16 NLR=1 NState=    3 LETran=      64.
          IDoAtm=1111111111111111111111111
          Differentiating once with respect to electric field.
                with respect to dipole field.
          Differentiating once with respect to nuclear coordinates.
          There are     1 degrees of freedom in the 1st order CPHF.  IDoFFX=0 NUNeed=     1.
 LinEq1:  Iter=  0 NonCon=     1 RMS=5.91D-03 Max=4.17D-01 NDo=     1
 AX will form     1 AO Fock derivatives at one time.
 LinEq1:  Iter=  1 NonCon=     1 RMS=1.94D-03 Max=1.42D-01 NDo=     1
 LinEq1:  Iter=  2 NonCon=     1 RMS=1.47D-03 Max=1.08D-01 NDo=     1
 LinEq1:  Iter=  3 NonCon=     1 RMS=4.83D-04 Max=2.29D-02 NDo=     1
 LinEq1:  Iter=  4 NonCon=     1 RMS=2.46D-04 Max=1.51D-02 NDo=     1
 LinEq1:  Iter=  5 NonCon=     1 RMS=1.43D-04 Max=1.05D-02 NDo=     1
 LinEq1:  Iter=  6 NonCon=     1 RMS=8.54D-05 Max=5.49D-03 NDo=     1
 LinEq1:  Iter=  7 NonCon=     1 RMS=3.50D-05 Max=2.16D-03 NDo=     1
 LinEq1:  Iter=  8 NonCon=     1 RMS=1.71D-05 Max=9.02D-04 NDo=     1
 LinEq1:  Iter=  9 NonCon=     1 RMS=7.29D-06 Max=3.44D-04 NDo=     1
 LinEq1:  Iter= 10 NonCon=     1 RMS=2.96D-06 Max=9.95D-05 NDo=     1
 LinEq1:  Iter= 11 NonCon=     1 RMS=1.84D-06 Max=8.27D-05 NDo=     1
 LinEq1:  Iter= 12 NonCon=     1 RMS=8.03D-07 Max=3.29D-05 NDo=     1
 LinEq1:  Iter= 13 NonCon=     1 RMS=4.18D-07 Max=1.52D-05 NDo=     1
 LinEq1:  Iter= 14 NonCon=     1 RMS=1.81D-07 Max=8.37D-06 NDo=     1
 LinEq1:  Iter= 15 NonCon=     1 RMS=9.95D-08 Max=4.64D-06 NDo=     1
 LinEq1:  Iter= 16 NonCon=     1 RMS=4.43D-08 Max=1.99D-06 NDo=     1
 LinEq1:  Iter= 17 NonCon=     1 RMS=2.37D-08 Max=1.06D-06 NDo=     1
 LinEq1:  Iter= 18 NonCon=     1 RMS=9.94D-09 Max=3.97D-07 NDo=     1
 LinEq1:  Iter= 19 NonCon=     1 RMS=3.58D-09 Max=1.10D-07 NDo=     1
 LinEq1:  Iter= 20 NonCon=     1 RMS=1.78D-09 Max=8.15D-08 NDo=     1
 LinEq1:  Iter= 21 NonCon=     1 RMS=5.78D-10 Max=3.37D-08 NDo=     1
 LinEq1:  Iter= 22 NonCon=     1 RMS=1.85D-10 Max=8.17D-09 NDo=     1
 LinEq1:  Iter= 23 NonCon=     1 RMS=1.10D-10 Max=5.03D-09 NDo=     1
 LinEq1:  Iter= 24 NonCon=     0 RMS=3.47D-11 Max=8.78D-10 NDo=     1
 Linear equations converged to 1.000D-10 1.000D-09 after    24 iterations.
          There are     1 degrees of freedom in the 1st order CPHF.  IDoFFX=0 NUNeed=     1.
 End of Minotr F.D. properties file   721 does not exist.
 End of Minotr F.D. properties file   722 does not exist.
 End of Minotr F.D. properties file   788 does not exist.
 Symmetrizing basis deriv contribution to polar:
 IMax=3 JMax=2 DiffMx= 0.00D+00
 Calling FoFJK, ICntrl=  10005127 FMM=F ISym2X=0 I1Cent= 0 IOpClX= 0 NMat=1 NMatS=1 NMatT=0.
 Calling FoFJK, ICntrl=  10002127 FMM=F ISym2X=0 I1Cent= 0 IOpClX= 0 NMat=1 NMatS=1 NMatT=0.
 -------------------------------------------------------------------
 Center     Atomic                   Forces (Hartrees/Bohr)
 Number     Number              X              Y              Z
 -------------------------------------------------------------------
      1        6           0.000482148    0.000007424    0.000000000
      2        6           0.000512958    0.000274134   -0.000000000
      3        6           0.000258019    0.000378979    0.000000000
      4        6          -0.000500098    0.000197087    0.000000000
      5        6          -0.000456149   -0.000313965   -0.000000000
      6        6           0.000134629   -0.000407095    0.000000000
      7        6           0.000511979   -0.000163680    0.000000000
      8        6           0.000324515    0.000068026    0.000000000
      9        6           0.000232576    0.000236927    0.000000000
     10        6          -0.000775038   -0.000010365    0.000000000
     11        6          -0.000188654   -0.000416908   -0.000000000
     12        6          -0.000341937    0.000062060   -0.000000000
     13        6          -0.000160803    0.000135704   -0.000000001
     14        6          -0.000223619    0.000007037    0.000000001
     15        1           0.000012219    0.000003333   -0.000000000
     16        1           0.000045163    0.000018865   -0.000000000
     17        1           0.000003059    0.000000417   -0.000000000
     18        1          -0.000024803    0.000002762   -0.000000000
     19        1          -0.000059891   -0.000001374   -0.000000000
     20        1          -0.000019934   -0.000037175   -0.000000000
     21        1          -0.000002014   -0.000006808    0.000000000
     22        1           0.000040176   -0.000016356    0.000000000
     23        1           0.000011009    0.000004366   -0.000000000
     24        1           0.000092246   -0.000011697   -0.000024045
     25        1           0.000092246   -0.000011697    0.000024045
 -------------------------------------------------------------------
 Cartesian Forces:  Max     0.000775038 RMS     0.000204088
 -------------------------------------------------------------------
 Center     Atomic                Nonadiabatic Coup. (Bohr^-1)
 Number     Number              X              Y              Z
 -------------------------------------------------------------------
      1        6          -0.398745334   -0.059418242   -0.000000000
      2        6           0.138882518   -0.259697607   -0.000000000
      3        6           0.208523689    0.266337189    0.000000000
      4        6          -0.149762764   -0.068628276   -0.000000000
      5        6           0.126629634   -0.056146421   -0.000000000
      6        6          -0.174601747    0.219421415    0.000000000
      7        6          -0.115945032   -0.218283076    0.000000000
      8        6           0.337971574   -0.049164495   -0.000000000
      9        6           0.003514291    0.250911498    0.000000000
     10        6           0.005782950   -0.090309766    0.000000000
     11        6           0.231942716    0.035901713    0.000000000
     12        6          -0.013158516    0.088916087   -0.000000000
     13        6          -0.196066177    0.028065970    0.000000000
     14        6           0.003795219    0.072907003   -0.000000000
     15        1          -0.000584588   -0.000544143   -0.000000000
     16        1           0.007100294   -0.009432972    0.000000000
     17        1          -0.002283656    0.000036340   -0.000000000
     18        1           0.001219054   -0.008439567    0.000000000
     19        1          -0.000634377   -0.006202609    0.000000000
     20        1          -0.001674318   -0.007218292    0.000000000
     21        1           0.001885088    0.000210473   -0.000000000
     22        1          -0.006403633   -0.007878639    0.000000000
     23        1           0.001345222   -0.001057573    0.000000000
     24        1          -0.003908992   -0.025707962    0.007118184
     25        1          -0.003908992   -0.025707962   -0.007118184
 -------------------------------------------------------------------
 Cartesian Nonad. Coup.:  Max     0.398745334 RMS     0.106277997
 IRC-IRC-IRC-IRC-IRC-IRC-IRC-IRC-IRC-IRC-IRC-IRC-IRC-IRC-IRC-IRC-IRC-IRC
 Pt  2 Step number   1 out of a maximum of  20
 Modified Bulirsch-Stoer Extrapolation Cycles:
    EPS =    0.000010000000000
      PEZero:  N= 2 I= 1 D=  2.51D-04 Err=  4.25D-06
 Maximum DWI energy   std dev =  0.000000140 at pt    36
 Maximum DWI gradient std dev =  0.085954053 at pt    27
 CORRECTOR INTEGRATION CONVERGENCE:
   Recorrection delta-x convergence threshold:    0.010000
   Delta-x Convergence Met
 Point Number:   2          Path Number:   1
   CHANGE IN THE REACTION COORDINATE =    0.04823
   NET REACTION COORDINATE UP TO THIS POINT =    0.09648
  # OF POINTS ALONG THE PATH =   2
  # OF STEPS =   1

 Calculating another point on the path.
 IRC-IRC-IRC-IRC-IRC-IRC-IRC-IRC-IRC-IRC-IRC-IRC-IRC-IRC-IRC-IRC-IRC-IRC
                          Input orientation:                          
 ---------------------------------------------------------------------
 Center     Atomic      Atomic             Coordinates (Angstroms)
 Number     Number       Type             X           Y           Z
 ---------------------------------------------------------------------
      1          6           0        2.497996    1.368924    0.000000
      2          6           0        3.707331    0.683120    0.000000
      3          6           0        3.686595   -0.700273    0.000000
      4          6           0        2.456929   -1.396102   -0.000000
      5          6           0       -2.469398   -1.401621   -0.000000
      6          6           0       -3.681087   -0.710179    0.000000
      7          6           0       -3.695580    0.678252    0.000000
      8          6           0       -2.487591    1.369153    0.000000
      9          6           0        0.002768    1.462542   -0.000000
     10          6           0       -0.009194   -1.420582    0.000000
     11          6           0        1.259336    0.682163   -0.000000
     12          6           0        1.234571   -0.721669   -0.000000
     13          6           0       -1.264763    0.689207   -0.000000
     14          6           0       -1.240266   -0.722552    0.000000
     15          1           0        2.489690    2.452181    0.000000
     16          1           0        4.642406    1.222602    0.000000
     17          1           0        4.609402   -1.263277   -0.000000
     18          1           0        2.464589   -2.478733   -0.000000
     19          1           0       -0.008130   -2.501649   -0.000000
     20          1           0       -2.470509   -2.483969   -0.000000
     21          1           0       -4.609085   -1.264172   -0.000000
     22          1           0       -4.631039    1.218126    0.000000
     23          1           0       -2.486682    2.452303    0.000000
     24          1           0        0.013969    2.154477   -0.859622
     25          1           0        0.013969    2.154477    0.859622
 ---------------------------------------------------------------------
                    Distance matrix (angstroms):
                    1          2          3          4          5
     1  C    0.000000
     2  C    1.390259   0.000000
     3  C    2.386283   1.383548   0.000000
     4  C    2.765331   2.426246   1.412889   0.000000
     5  C    5.687788   6.519059   6.195817   4.926331   0.000000
     6  C    6.519489   7.518644   7.367689   6.176224   1.395092
     7  C    6.231967   7.402913   7.509783   6.492789   2.414414
     8  C    4.985587   6.232792   6.511766   5.665237   2.770834
     9  C    2.496983   3.785668   4.271809   3.767592   3.783522
    10  C    3.750647   4.270612   3.765330   2.466245   2.460277
    11  C    1.416305   2.447995   2.793334   2.398628   4.271489
    12  C    2.442708   2.843936   2.452117   1.396073   3.765863
    13  C    3.823659   4.972098   5.142626   4.266088   2.413029
    14  C    4.283559   5.143407   4.926912   3.758048   1.404244
    15  H    1.083288   2.147609   3.372024   3.848422   6.280473
    16  H    2.149396   1.079539   2.147329   3.410853   7.580522
    17  H    3.374392   2.145272   1.080993   2.156567   7.080152
    18  H    3.847802   3.397311   2.157828   1.082658   5.050188
    19  H    4.611075   4.893609   4.110469   2.701621   2.695904
    20  H    6.287355   6.942346   6.410266   5.046098   1.082348
    21  H    7.579169   8.541354   8.314824   7.067246   2.144097
    22  H    7.130629   8.355516   8.536000   7.554699   3.396434
    23  H    5.101051   6.441724   6.931673   6.264943   3.853963
    24  H    2.743434   4.067526   4.730405   4.394726   4.421753
    25  H    2.743434   4.067526   4.730405   4.394726   4.421753
                    6          7          8          9         10
     6  C    0.000000
     7  C    1.388506   0.000000
     8  C    2.397510   1.391611   0.000000
     9  C    4.276857   3.780594   2.492109   0.000000
    10  C    3.739982   4.241997   3.731631   2.883149   0.000000
    11  C    5.132874   4.954917   3.809385   1.479173   2.455750
    12  C    4.915672   5.125053   4.269195   2.507612   1.426686
    13  C    2.792294   2.430842   1.399155   1.484817   2.455130
    14  C    2.440853   2.826804   2.435374   2.513915   1.415197
    15  H    6.933903   6.434624   5.093748   2.676595   4.608982
    16  H    8.544951   8.355736   7.131503   4.645838   5.350122
    17  H    8.308919   8.528908   7.569478   5.352678   4.621275
    18  H    6.395086   6.922011   6.271388   4.646957   2.690593
    19  H    4.086560   4.869194   4.596828   3.964206   1.081067
    20  H    2.147517   3.391230   3.853160   4.657472   2.681205
    21  H    1.080782   2.146510   3.381589   5.357626   4.602549
    22  H    2.149597   1.080068   2.148762   4.640248   5.322051
    23  H    3.380517   2.146786   1.083150   2.678990   4.597519
    24  H    4.753803   4.083986   2.759255   1.103562   3.677028
    25  H    4.753803   4.083986   2.759255   1.103562   3.677028
                   11         12         13         14         15
    11  C    0.000000
    12  C    1.404050   0.000000
    13  C    2.524109   2.870060   0.000000
    14  C    2.867269   2.474837   1.411972   0.000000
    15  H    2.155628   3.413011   4.147769   4.898112   0.000000
    16  H    3.425965   3.923459   5.931202   6.195922   2.479123
    17  H    3.873975   3.418015   6.190154   5.874607   4.277593
    18  H    3.382883   2.144812   4.893252   4.100015   4.930978
    19  H    3.426825   2.170861   3.429386   2.164104   5.547931
    20  H    4.892457   4.102843   3.394535   2.148508   6.997796
    21  H    6.182765   5.868784   3.873007   3.412080   8.012732
    22  H    5.914708   6.178041   3.407575   3.906862   7.226871
    23  H    4.143193   4.890994   2.145133   3.410756   4.976372
    24  H    2.111302   3.240530   2.126293   3.254128   2.637569
    25  H    2.111302   3.240530   2.126293   3.254128   2.637569
                   16         17         18         19         20
    16  H    0.000000
    17  H    2.486098   0.000000
    18  H    4.294504   2.465270   0.000000
    19  H    5.957981   4.780709   2.472826   0.000000
    20  H    8.020738   7.184375   4.935101   2.462442   0.000000
    21  H    9.579882   9.218487   7.177188   4.764465   2.461993
    22  H    9.273446   9.567816   8.000919   5.933633   4.286420
    23  H    7.234367   8.009990   6.987861   5.539392   4.936298
    24  H    4.798934   5.791200   5.311414   4.734865   5.331675
    25  H    4.798934   5.791200   5.311414   4.734865   5.331675
                   21         22         23         24         25
    21  H    0.000000
    22  H    2.482396   0.000000
    23  H    4.279811   2.474158   0.000000
    24  H    5.813669   4.815787   2.660997   0.000000
    25  H    5.813669   4.815787   2.660997   1.719245   0.000000
 Symmetry turned off by external request.
 Stoichiometry    C14H11(1+)
 Framework group  C1[X(C14H11)]
 Deg. of freedom    69
 Full point group                 C1      NOp   1
 Rotational constants (GHZ):           2.1360975           0.4446234           0.3688208
 Standard basis: CC-pVTZ (5D, 7F)
   574 basis functions,   915 primitive gaussians,   655 cartesian basis functions
    47 alpha electrons       47 beta electrons
       nuclear repulsion energy       781.1934991167 Hartrees.
 NAtoms=   25 NActive=   25 NUniq=   25 SFac= 1.00D+00 NAtFMM=   60 NAOKFM=F Big=F
 Integral buffers will be    131072 words long.
 Regular integral format.
 Two-electron integral symmetry is turned off.
 Nuclear repulsion after empirical dispersion term =      781.1925196452 Hartrees.
 One-electron integrals computed using PRISM.
 NBasis=   574 RedAO= T EigKep=  1.74D-05  NBF=   574
 NBsUse=   574 1.00D-06 EigRej= -1.00D+00 NBFU=   574
 Initial guess from the checkpoint file:  "check_ts6.chk"
 B after Tr=     0.000095   -0.000003   -0.000000
         Rot=    1.000000   -0.000000   -0.000000    0.000009 Ang=   0.00 deg.
 ExpMin= 1.03D-01 ExpMax= 8.24D+03 ExpMxC= 2.81D+02 IAcc=3 IRadAn=         5 AccDes= 0.00D+00
[...]
 Alpha virt. eigenvalues --    1.96767   2.00064   2.03254   2.03629   2.04519
 Alpha virt. eigenvalues --    2.04821   2.06382   2.08357   2.09020   2.10321
 Alpha virt. eigenvalues --    2.13014   2.13454   2.15553   2.15768   2.19134
 Alpha virt. eigenvalues --    2.22891   2.22954   2.24108   2.26693   2.28482
 Alpha virt. eigenvalues --    2.28527   2.29270   2.30205   2.32072   2.32356
 Alpha virt. eigenvalues --    2.33175   2.33678   2.34766   2.35854   2.36093
 Alpha virt. eigenvalues --    2.36595   2.37240   2.38346   2.38926   2.38957
 Alpha virt. eigenvalues --    2.39538   2.43499   2.44540   2.45315   2.46726
 Alpha virt. eigenvalues --    2.48350   2.50322   2.50673   2.52690   2.53315
 Alpha virt. eigenvalues --    2.53838   2.55643   2.57237   2.57268   2.57439
 Alpha virt. eigenvalues --    2.58033   2.58509   2.59262   2.59551   2.59830
 Alpha virt. eigenvalues --    2.61335   2.61711   2.64240   2.64788   2.65048
 Alpha virt. eigenvalues --    2.66438   2.66831   2.68522   2.69215   2.70715
 Alpha virt. eigenvalues --    2.72596   2.74169   2.74640   2.74967   2.75409
 Alpha virt. eigenvalues --    2.76262   2.76451   2.78045   2.79321   2.80165
 Alpha virt. eigenvalues --    2.80395   2.81082   2.81161   2.82446   2.83652
 Alpha virt. eigenvalues --    2.84726   2.85072   2.85286   2.85525   2.85981
 Alpha virt. eigenvalues --    2.87913   2.88736   2.89113   2.89770   2.91579
 Alpha virt. eigenvalues --    2.92102   2.92388   2.92622   2.92956   2.93890
 Alpha virt. eigenvalues --    2.94001   2.95384   2.95985   2.96029   2.96887
 Alpha virt. eigenvalues --    2.98096   2.98354   2.98979   3.00180   3.01275
 Alpha virt. eigenvalues --    3.01860   3.02019   3.03358   3.03388   3.04110
 Alpha virt. eigenvalues --    3.05670   3.05704   3.06409   3.07652   3.07858
 Alpha virt. eigenvalues --    3.10663   3.12723   3.13012   3.15058   3.15349
 Alpha virt. eigenvalues --    3.15562   3.15595   3.16133   3.16993   3.17989
 Alpha virt. eigenvalues --    3.20414   3.20671   3.21191   3.21367   3.22322
 Alpha virt. eigenvalues --    3.22661   3.23483   3.23985   3.24377   3.26911
 Alpha virt. eigenvalues --    3.28768   3.28944   3.29293   3.29856   3.31309
 Alpha virt. eigenvalues --    3.33006   3.33870   3.33993   3.34582   3.36535
 Alpha virt. eigenvalues --    3.39216   3.40260   3.41081   3.43643   3.45316
 Alpha virt. eigenvalues --    3.46649   3.46851   3.49033   3.50504   3.50674
 Alpha virt. eigenvalues --    3.50678   3.53551   3.53680   3.54632   3.55911
 Alpha virt. eigenvalues --    3.56500   3.56817   3.56897   3.57651   3.59651
 Alpha virt. eigenvalues --    3.60548   3.61155   3.61550   3.61843   3.63266
 Alpha virt. eigenvalues --    3.63926   3.65257   3.66373   3.67684   3.67765
 Alpha virt. eigenvalues --    3.67885   3.68117   3.68686   3.69391   3.70906
 Alpha virt. eigenvalues --    3.71927   3.75732   3.75969   3.76902   3.78296
 Alpha virt. eigenvalues --    3.78604   3.78614   3.80544   3.82887   3.83227
 Alpha virt. eigenvalues --    3.83359   3.85012   3.85383   3.85464   3.87815
 Alpha virt. eigenvalues --    3.89154   3.89294   3.90080   3.91840   3.94567
 Alpha virt. eigenvalues --    3.95325   3.95440   3.95899   3.96659   3.97866
 Alpha virt. eigenvalues --    3.98027   3.98114   4.01098   4.01934   4.02028
 Alpha virt. eigenvalues --    4.03711   4.05726   4.05901   4.06622   4.07348
 Alpha virt. eigenvalues --    4.07517   4.08551   4.08566   4.10872   4.11146
 Alpha virt. eigenvalues --    4.12640   4.12746   4.13006   4.14263   4.15024
 Alpha virt. eigenvalues --    4.15984   4.17116   4.18574   4.18990   4.21444
 Alpha virt. eigenvalues --    4.21666   4.24063   4.24432   4.27938   4.29858
 Alpha virt. eigenvalues --    4.31197   4.32208   4.34010   4.36158   4.37310
 Alpha virt. eigenvalues --    4.40468   4.43097   4.43112   4.47156   4.50747
 Alpha virt. eigenvalues --    4.50827   4.52803   4.53382   4.53905   4.54276
 Alpha virt. eigenvalues --    4.56668   4.57985   4.58232   4.61243   4.63475
 Alpha virt. eigenvalues --    4.65783   4.67015   4.68924   4.69515   4.70445
 Alpha virt. eigenvalues --    4.76046   4.76505   4.79783   4.80506   4.81749
 Alpha virt. eigenvalues --    4.83252   4.83618   4.83873   4.86635   4.88692
 Alpha virt. eigenvalues --    4.89965   4.91527   4.93049   4.96561   4.98447
 Alpha virt. eigenvalues --    5.00383   5.02492   5.05387   5.07468   5.10718
 Alpha virt. eigenvalues --    5.15568   5.16234   5.17206   5.19558   5.23007
 Alpha virt. eigenvalues --    5.24540   5.27767   5.31352   5.33080   5.43281
 Alpha virt. eigenvalues --    5.46021   5.48474   5.50889   5.57925   5.61812
 Alpha virt. eigenvalues --    5.62614   5.64973   5.69119   5.70263   5.77750
 Alpha virt. eigenvalues --    5.78761   5.83476   5.87020   5.99636   6.10993
 Alpha virt. eigenvalues --    6.14447   6.47947   6.62859   8.16641   9.50907
 Alpha virt. eigenvalues --   11.50266  12.19243  12.41456  12.66726  12.83040
 Alpha virt. eigenvalues --   12.95000  13.09668  13.38761  14.48492  14.56429
 Alpha virt. eigenvalues --   15.11416  15.66243
          Condensed to atoms (all electrons):
               1          2          3          4          5          6
     1  C    4.933016   0.498035  -0.060238  -0.017225   0.000049   0.000001
     2  C    0.498035   4.828710   0.467270  -0.065991  -0.000004  -0.000000
     3  C   -0.060238   0.467270   4.906923   0.519231   0.000013   0.000000
     4  C   -0.017225  -0.065991   0.519231   4.894204  -0.000259   0.000011
     5  C    0.000049  -0.000004   0.000013  -0.000259   4.933242   0.522021
     6  C    0.000001  -0.000000   0.000000   0.000011   0.522021   4.900231
     7  C    0.000005  -0.000000  -0.000000  -0.000003  -0.062674   0.474848
     8  C   -0.000056   0.000007   0.000001   0.000042  -0.023117  -0.066491
     9  C   -0.065108   0.004660  -0.001464   0.005005   0.005857  -0.001350
    10  C    0.006873  -0.001677   0.008160  -0.041113  -0.041922   0.006990
    11  C    0.478715  -0.041275  -0.038918  -0.070649  -0.002043   0.000157
    12  C   -0.054182  -0.027143  -0.042362   0.414416   0.007619  -0.000404
    13  C    0.008609  -0.000133   0.000177  -0.001870  -0.076943  -0.041925
    14  C   -0.001506  -0.000063  -0.000476   0.007402   0.414642  -0.043542
    15  H    0.431020  -0.037166   0.005213  -0.000854  -0.000000   0.000000
    16  H   -0.044781   0.437884  -0.043734   0.005835   0.000000  -0.000000
    17  H    0.005522  -0.043217   0.436167  -0.042722  -0.000000   0.000000
    18  H   -0.000672   0.005009  -0.032654   0.439444  -0.000008   0.000001
    19  H   -0.000166   0.000037   0.000237  -0.001393  -0.000976   0.000113
    20  H   -0.000001  -0.000000   0.000001  -0.000006   0.439898  -0.029519
    21  H    0.000000   0.000000   0.000000  -0.000000  -0.040097   0.434458
    22  H   -0.000000   0.000000  -0.000000   0.000000   0.005717  -0.043928
    23  H    0.000021   0.000001   0.000000  -0.000001  -0.000781   0.005756
    24  H   -0.009198  -0.000103   0.000022   0.000143   0.000183   0.000022
    25  H   -0.009198  -0.000103   0.000022   0.000143   0.000183   0.000022
               7          8          9         10         11         12
     1  C    0.000005  -0.000056  -0.065108   0.006873   0.478715  -0.054182
     2  C   -0.000000   0.000007   0.004660  -0.001677  -0.041275  -0.027143
     3  C   -0.000000   0.000001  -0.001464   0.008160  -0.038918  -0.042362
     4  C   -0.000003   0.000042   0.005005  -0.041113  -0.070649   0.414416
     5  C   -0.062674  -0.023117   0.005857  -0.041922  -0.002043   0.007619
     6  C    0.474848  -0.066491  -0.001350   0.006990   0.000157  -0.000404
     7  C    4.819405   0.501983   0.004197  -0.001445  -0.000129  -0.000042
     8  C    0.501983   4.938099  -0.065651   0.006027   0.008686  -0.001406
     9  C    0.004197  -0.065651   5.047539  -0.023224   0.332179  -0.040487
    10  C   -0.001445   0.006027  -0.023224   4.874076  -0.039513   0.465849
    11  C   -0.000129   0.008686   0.332179  -0.039513   5.084351   0.344892
    12  C   -0.000042  -0.001406  -0.040487   0.465849   0.344892   5.049656
    13  C   -0.038429   0.488271   0.315510  -0.037664  -0.001324  -0.049772
    14  C   -0.021175  -0.057558  -0.039529   0.474402  -0.049267  -0.046155
    15  H    0.000001   0.000011   0.000865  -0.000080  -0.056145   0.008656
    16  H    0.000000  -0.000000  -0.000228   0.000041   0.007350  -0.000843
    17  H    0.000000   0.000000   0.000058  -0.000322  -0.000640   0.006738
    18  H   -0.000000  -0.000001  -0.000107  -0.000424   0.004783  -0.061849
    19  H    0.000040  -0.000160  -0.000195   0.417665   0.004854  -0.037610
    20  H    0.004406  -0.000483  -0.000127  -0.000996  -0.000065   0.000846
    21  H   -0.044540   0.006059   0.000056  -0.000261  -0.000005   0.000014
    22  H    0.436739  -0.043731  -0.000221   0.000038   0.000008  -0.000001
    23  H   -0.037470   0.429532   0.002610  -0.000059   0.000344  -0.000010
    24  H   -0.000052  -0.010392   0.413983  -0.002283  -0.037391   0.007485
    25  H   -0.000052  -0.010392   0.413983  -0.002283  -0.037391   0.007485
              13         14         15         16         17         18
     1  C    0.008609  -0.001506   0.431020  -0.044781   0.005522  -0.000672
     2  C   -0.000133  -0.000063  -0.037166   0.437884  -0.043217   0.005009
     3  C    0.000177  -0.000476   0.005213  -0.043734   0.436167  -0.032654
     4  C   -0.001870   0.007402  -0.000854   0.005835  -0.042722   0.439444
     5  C   -0.076943   0.414642  -0.000000   0.000000  -0.000000  -0.000008
     6  C   -0.041925  -0.043542   0.000000  -0.000000   0.000000   0.000001
     7  C   -0.038429  -0.021175   0.000001   0.000000   0.000000  -0.000000
     8  C    0.488271  -0.057558   0.000011  -0.000000   0.000000  -0.000001
     9  C    0.315510  -0.039529   0.000865  -0.000228   0.000058  -0.000107
    10  C   -0.037664   0.474402  -0.000080   0.000041  -0.000322  -0.000424
    11  C   -0.001324  -0.049267  -0.056145   0.007350  -0.000640   0.004783
    12  C   -0.049772  -0.046155   0.008656  -0.000843   0.006738  -0.061849
    13  C    5.125371   0.335486   0.000265   0.000009  -0.000005  -0.000051
    14  C    0.335486   5.032284  -0.000004  -0.000001   0.000016   0.000795
    15  H    0.000265  -0.000004   0.515420  -0.006178  -0.000182   0.000036
    16  H    0.000009  -0.000001  -0.006178   0.503208  -0.005963  -0.000155
    17  H   -0.000005   0.000016  -0.000182  -0.005963   0.508320  -0.006654
    18  H   -0.000051   0.000795   0.000036  -0.000155  -0.006654   0.516818
    19  H    0.004982  -0.032950   0.000012  -0.000001  -0.000030   0.002712
    20  H    0.005364  -0.064952   0.000000   0.000000   0.000000   0.000003
    21  H   -0.000483   0.006189  -0.000000   0.000000  -0.000000   0.000000
    22  H    0.006858  -0.000885  -0.000000  -0.000000   0.000000   0.000000
    23  H   -0.056522   0.008243   0.000010  -0.000000  -0.000000   0.000000
    24  H   -0.040581   0.008010   0.000496  -0.000008  -0.000000   0.000012
    25  H   -0.040581   0.008010   0.000496  -0.000008  -0.000000   0.000012
              19         20         21         22         23         24
     1  C   -0.000166  -0.000001   0.000000  -0.000000   0.000021  -0.009198
     2  C    0.000037  -0.000000   0.000000   0.000000   0.000001  -0.000103
     3  C    0.000237   0.000001   0.000000  -0.000000   0.000000   0.000022
     4  C   -0.001393  -0.000006  -0.000000   0.000000  -0.000001   0.000143
     5  C   -0.000976   0.439898  -0.040097   0.005717  -0.000781   0.000183
     6  C    0.000113  -0.029519   0.434458  -0.043928   0.005756   0.000022
     7  C    0.000040   0.004406  -0.044540   0.436739  -0.037470  -0.000052
     8  C   -0.000160  -0.000483   0.006059  -0.043731   0.429532  -0.010392
     9  C   -0.000195  -0.000127   0.000056  -0.000221   0.002610   0.413983
    10  C    0.417665  -0.000996  -0.000261   0.000038  -0.000059  -0.002283
    11  C    0.004854  -0.000065  -0.000005   0.000008   0.000344  -0.037391
    12  C   -0.037610   0.000846   0.000014  -0.000001  -0.000010   0.007485
    13  C    0.004982   0.005364  -0.000483   0.006858  -0.056522  -0.040581
    14  C   -0.032950  -0.064952   0.006189  -0.000885   0.008243   0.008010
    15  H    0.000012   0.000000  -0.000000  -0.000000   0.000010   0.000496
    16  H   -0.000001   0.000000   0.000000  -0.000000  -0.000000  -0.000008
    17  H   -0.000030   0.000000  -0.000000   0.000000  -0.000000  -0.000000
    18  H    0.002712   0.000003   0.000000   0.000000   0.000000   0.000012
    19  H    0.480100   0.002672  -0.000024  -0.000002   0.000010   0.000016
    20  H    0.002672   0.519481  -0.006125  -0.000153   0.000033   0.000014
    21  H   -0.000024  -0.006125   0.508074  -0.005903  -0.000211  -0.000000
    22  H   -0.000002  -0.000153  -0.005903   0.503090  -0.006045  -0.000009
    23  H    0.000010   0.000033  -0.000211  -0.006045   0.517693   0.000318
    24  H    0.000016   0.000014  -0.000000  -0.000009   0.000318   0.498148
    25  H    0.000016   0.000014  -0.000000  -0.000009   0.000318  -0.032107
              25
     1  C   -0.009198
     2  C   -0.000103
     3  C    0.000022
     4  C    0.000143
     5  C    0.000183
     6  C    0.000022
     7  C   -0.000052
     8  C   -0.010392
     9  C    0.413983
    10  C   -0.002283
    11  C   -0.037391
    12  C    0.007485
    13  C   -0.040581
    14  C    0.008010
    15  H    0.000496
    16  H   -0.000008
    17  H   -0.000000
    18  H    0.000012
    19  H    0.000016
    20  H    0.000014
    21  H   -0.000000
    22  H   -0.000009
    23  H    0.000318
    24  H   -0.032107
    25  H    0.498148
 Mulliken charges:
               1
     1  C   -0.099536
     2  C   -0.024739
     3  C   -0.123590
     4  C   -0.043790
     5  C   -0.080604
     6  C   -0.117471
     7  C   -0.035613
     8  C   -0.099281
     9  C   -0.308808
    10  C   -0.066855
    11  C    0.108438
    12  C    0.048610
    13  C    0.095379
    14  C    0.062584
    15  H    0.138109
    16  H    0.147574
    17  H    0.142916
    18  H    0.132950
    19  H    0.160041
    20  H    0.129695
    21  H    0.142799
    22  H    0.148435
    23  H    0.136210
    24  H    0.203273
    25  H    0.203273
 Sum of Mulliken charges =   1.00000
 Mulliken charges with hydrogens summed into heavy atoms:
               1
     1  C    0.038573
     2  C    0.122835
     3  C    0.019327
     4  C    0.089160
     5  C    0.049091
     6  C    0.025328
     7  C    0.112823
     8  C    0.036928
     9  C    0.097739
    10  C    0.093186
    11  C    0.108438
    12  C    0.048610
    13  C    0.095379
    14  C    0.062584
 APT charges:
               1
     1  C   -0.529832
     2  C   -0.636141
     3  C   -0.619985
     4  C   -0.576304
     5  C   -0.440405
     6  C   -0.645258
     7  C   -0.639431
     8  C   -0.546856
     9  C   -1.072086
    10  C   -0.555274
    11  C    0.084575
    12  C   -0.088808
    13  C    0.168224
    14  C   -0.106538
    15  H    0.516573
    16  H    0.876038
    17  H    0.875094
    18  H    0.527823
    19  H    0.499807
    20  H    0.540168
    21  H    0.919989
    22  H    0.911825
    23  H    0.551583
    24  H    0.492608
    25  H    0.492609
 Sum of APT charges =   1.00000
 APT charges with hydrogens summed into heavy atoms:
               1
     1  C   -0.013259
     2  C    0.239897
     3  C    0.255109
     4  C   -0.048481
     5  C    0.099763
     6  C    0.274731
     7  C    0.272394
     8  C    0.004727
     9  C   -0.086869
    10  C   -0.055467
    11  C    0.084575
    12  C   -0.088808
    13  C    0.168224
    14  C   -0.106538
 Electronic spatial extent (au):  <R**2>=           2856.7607
 Charge=              1.0000 electrons
 Dipole moment (field-independent basis, Debye):
    X=              0.5606    Y=             -0.1543    Z=             -0.0000  Tot=              0.5815
 Quadrupole moment (field-independent basis, Debye-Ang):
   XX=            -30.9041   YY=            -56.4231   ZZ=            -83.3687
   XY=             -0.2574   XZ=              0.0000   YZ=             -0.0000
 Traceless Quadrupole moment (field-independent basis, Debye-Ang):
   XX=             25.9945   YY=              0.4755   ZZ=            -26.4700
   XY=             -0.2574   XZ=              0.0000   YZ=             -0.0000
 Octapole moment (field-independent basis, Debye-Ang**2):
  XXX=              5.8754  YYY=             -6.7468  ZZZ=              0.0000  XYY=              1.4327
  XXY=              4.8925  XXZ=             -0.0001  XZZ=              0.7993  YZZ=              2.2560
  YYZ=              0.0000  XYZ=             -0.0000
 Hexadecapole moment (field-independent basis, Debye-Ang**3):
 XXXX=          -2121.0661 YYYY=           -610.4453 ZZZZ=            -97.6073 XXXY=              2.2314
 XXXZ=              0.0001 YYYX=              3.8086 YYYZ=              0.0000 ZZZX=              0.0000
 ZZZY=              0.0000 XXYY=           -508.2344 XXZZ=           -584.8278 YYZZ=           -144.3299
 XXYZ=             -0.0001 YYXZ=              0.0000 ZZXY=              1.8458
 N-N= 7.810131905234D+02 E-N=-2.797535976511D+03  KE= 5.364374031359D+02
  Exact polarizability:       0.000       0.000       0.000       0.000       0.000       0.000
 Approx polarizability:     336.301       0.895     228.478      -0.000      -0.000     102.927
 -------------------------------------------------------------------
 Center     Atomic                Nonadiabatic Coup. (Bohr^-1)
 Number     Number              X              Y              Z
 -------------------------------------------------------------------
      1        6          -0.259331982   -0.036098505    0.000000102
      2        6           0.086991725   -0.166254006    0.000000013
      3        6           0.130860202    0.160169771   -0.000000019
      4        6          -0.096051267   -0.041102411    0.000000027
      5        6           0.166206664   -0.078866398    0.000000034
      6        6          -0.234326219    0.300537615   -0.000000115
      7        6          -0.155406713   -0.290130937   -0.000000107
      8        6           0.442562461   -0.067431071    0.000000088
      9        6          -0.010983875    0.241981944    0.000000136
     10        6          -0.017496849   -0.086890235   -0.000000035
     11        6           0.150740460    0.016047129   -0.000000046
     12        6           0.004928347    0.055442893   -0.000000192
     13        6          -0.258095397    0.040347824   -0.000000072
     14        6           0.023141343    0.102676806    0.000000187
     15        1          -0.002021236   -0.001468443    0.000000040
     16        1           0.005451396   -0.005929835   -0.000000042
     17        1          -0.001435684    0.000344859   -0.000000036
     18        1           0.002006175   -0.005670718    0.000000005
     19        1           0.001923737   -0.005878571    0.000000025
     20        1          -0.000668597   -0.009349936   -0.000000014
     21        1           0.002573349   -0.000148315   -0.000000001
     22        1          -0.007469420   -0.010547421    0.000000003
     23        1          -0.000263861    0.000026111    0.000000016
     24        1           0.011737119   -0.024105032    0.007340292
     25        1           0.011737202   -0.024105020   -0.007340318
 -------------------------------------------------------------------
 Cartesian Nonad. Coup.:  Max     0.442562461 RMS     0.104508651

 This type of calculation cannot be archived.


 WOE UNTO THEM THAT CALL EVIL GOOD, AND GOOD EVIL      
 Job cpu time:       5 days 10 hours 58 minutes 27.8 seconds.
 Elapsed time:       0 days  4 hours 17 minutes 52.2 seconds.
 File lengths (MBytes):  RWF=    834 Int=      0 D2E=      0 Chk=     71 Scr=      1
 Normal termination of Gaussian 16 at Wed Jul 20 16:29:17 2022.
