                    25
 energy=  -539.942978571336     
C          -2.473327    1.383560    0.000000
C          -3.686888    0.693453    0.000000
C          -3.702976   -0.708416    0.000000
C          -2.521841   -1.408948    0.000000
C           2.437446   -1.410162    0.000000
C           3.704911   -0.734802    0.000000
C           3.753503    0.643584    0.000000
C           2.551221    1.336534    0.000000
C           0.028793    1.473726    0.000000
C          -0.071279   -1.430625    0.000000
C          -1.268568    0.706615    0.000000
C          -1.265655   -0.729842    0.000000
C           1.273269    0.653425    0.000000
C           1.225901   -0.724617    0.000000
H          -2.480881    2.465810    0.000000
H          -4.616240    1.244130    0.000000
H          -4.646128   -1.235966    0.000000
H          -2.525617   -2.490129    0.000000
H          -0.071469   -2.510091    0.000000
H           2.439631   -2.492647    0.000000
H           4.609249   -1.325920    0.000000
H           4.695052    1.170884    0.000000
H           2.549678    2.418893    0.000000
H           0.068962    2.151659    0.864319
H           0.068962    2.151659   -0.864319
                    25
 energy=  -539.942913945867     
C          -2.477526    1.381628   -0.000000
C          -3.691191    0.691232   -0.000000
C          -3.703727   -0.709793   -0.000000
C          -2.517671   -1.409381    0.000000
C           2.442459   -1.410460   -0.000000
C           3.705607   -0.733064   -0.000000
C           3.750392    0.646927   -0.000000
C           2.546926    1.339944   -0.000000
C           0.025591    1.472593   -0.000000
C          -0.063515   -1.431241    0.000000
C          -1.269149    0.703770    0.000000
C          -1.263714   -0.730158   -0.000000
C           1.273096    0.656297   -0.000000
C           1.228627   -0.725323   -0.000000
H          -2.484534    2.464301    0.000000
H          -4.621504    1.240979    0.000000
H          -4.645273   -1.240876    0.000000
H          -2.521545   -2.491040    0.000000
H          -0.063480   -2.511063    0.000000
H           2.445177   -2.493283    0.000000
H           4.612527   -1.320777    0.000000
H           4.691502    1.175924    0.000000
H           2.545636    2.422620    0.000000
H           0.061266    2.151553    0.864410
H           0.061266    2.151553   -0.864410
                    25
 energy=  -539.942695561933     
C          -2.481736    1.379706   -0.000000
C          -3.695489    0.689019   -0.000000
C          -3.704476   -0.711169   -0.000000
C          -2.513497   -1.409805    0.000000
C           2.447469   -1.410752    0.000000
C           3.706300   -0.731334    0.000000
C           3.747282    0.650267    0.000000
C           2.542613    1.343333   -0.000000
C           0.022385    1.471459   -0.000000
C          -0.055732   -1.431851    0.000000
C          -1.269730    0.700900   -0.000000
C          -1.261790   -0.730455   -0.000000
C           1.272959    0.659168   -0.000000
C           1.231351   -0.726039   -0.000000
H          -2.488183    2.462793   -0.000000
H          -4.626765    1.237828    0.000000
H          -4.644425   -1.245789   -0.000000
H          -2.517476   -2.491953    0.000000
H          -0.055495   -2.512042   -0.000000
H           2.450718   -2.493918    0.000000
H           4.615803   -1.315634   -0.000000
H           4.687953    1.180956   -0.000000
H           2.541596    2.426356   -0.000000
H           0.053573    2.151452    0.864509
H           0.053573    2.151452   -0.864509
                    25
 energy=  -539.942378442450     
C          -2.485954    1.377791   -0.000000
C          -3.699787    0.686805   -0.000000
C          -3.705237   -0.712531    0.000000
C          -2.509308   -1.410231    0.000000
C           2.452492   -1.411045    0.000000
C           3.706985   -0.729614    0.000000
C           3.744174    0.653605    0.000000
C           2.538291    1.346718   -0.000000
C           0.019179    1.470321    0.000000
C          -0.047929   -1.432465    0.000000
C          -1.270296    0.698023    0.000000
C          -1.259887   -0.730740   -0.000000
C           1.272833    0.662055   -0.000000
C           1.234060   -0.726766   -0.000000
H          -2.491828    2.461286    0.000000
H          -4.632022    1.234679   -0.000000
H          -4.643577   -1.250697   -0.000000
H          -2.513409   -2.492867    0.000000
H          -0.047515   -2.513020    0.000000
H           2.456254   -2.494553   -0.000000
H           4.619076   -1.310494   -0.000000
H           4.684406    1.185984   -0.000000
H           2.537559    2.430090    0.000000
H           0.045884    2.151352    0.864607
H           0.045884    2.151352   -0.864607
                    25
 energy=  -539.941924704272     
C          -2.490186    1.375887   -0.000000
C          -3.704086    0.684590   -0.000000
C          -3.706017   -0.713873    0.000000
C          -2.505099   -1.410659    0.000000
C           2.457533   -1.411340   -0.000000
C           3.707656   -0.727907    0.000000
C           3.741066    0.656937   -0.000000
C           2.533956    1.350096   -0.000000
C           0.015976    1.469179    0.000000
C          -0.040096   -1.433085   -0.000000
C          -1.270840    0.695136   -0.000000
C          -1.258010   -0.731008    0.000000
C           1.272724    0.664966    0.000000
C           1.236749   -0.727510   -0.000000
H          -2.495470    2.459781    0.000000
H          -4.637271    1.231533   -0.000000
H          -4.642730   -1.255598   -0.000000
H          -2.509347   -2.493780   -0.000000
H          -0.039545   -2.513999    0.000000
H           2.461784   -2.495188    0.000000
H           4.622343   -1.305360    0.000000
H           4.680862    1.191006    0.000000
H           2.533526    2.433819    0.000000
H           0.038202    2.151252    0.864705
H           0.038202    2.151252   -0.864705
                    25
 energy=  -539.941406577392     
C          -2.494436    1.373996   -0.000000
C          -3.708385    0.682373   -0.000000
C          -3.706821   -0.715189   -0.000000
C          -2.500859   -1.411088    0.000000
C           2.462599   -1.411635   -0.000000
C           3.708304   -0.726227    0.000000
C           3.737961    0.660266   -0.000000
C           2.529597    1.353461   -0.000000
C           0.012774    1.468033   -0.000000
C          -0.032221   -1.433708   -0.000000
C          -1.271352    0.692227    0.000000
C          -1.256170   -0.731251   -0.000000
C           1.272643    0.667906    0.000000
C           1.239406   -0.728278    0.000000
H          -2.499105    2.458278    0.000000
H          -4.642512    1.228392   -0.000000
H          -4.641885   -1.260492    0.000000
H          -2.505293   -2.494693   -0.000000
H          -0.031586   -2.514976   -0.000000
H           2.467305   -2.495821   -0.000000
H           4.625604   -1.300234    0.000000
H           4.677325    1.196021    0.000000
H           2.529500    2.437542    0.000000
H           0.030528    2.151153    0.864804
H           0.030528    2.151153   -0.864804
                    25
 energy=  -539.940850599280     
C          -2.498713    1.372124   -0.000000
C          -3.712683    0.680155    0.000000
C          -3.707659   -0.716466   -0.000000
C          -2.496576   -1.411519   -0.000000
C           2.467707   -1.411931   -0.000000
C           3.708919   -0.724582   -0.000000
C           3.734858    0.663588   -0.000000
C           2.525206    1.356807   -0.000000
C           0.009575    1.466884    0.000000
C          -0.024288   -1.434334    0.000000
C          -1.271818    0.689284    0.000000
C          -1.254378   -0.731458    0.000000
C           1.272601    0.670888   -0.000000
C           1.242014   -0.729080   -0.000000
H          -2.502731    2.456779    0.000000
H          -4.647740    1.225258   -0.000000
H          -4.641042   -1.265372   -0.000000
H          -2.501248   -2.495603   -0.000000
H          -0.023646   -2.515950    0.000000
H           2.472812   -2.496451    0.000000
H           4.628857   -1.295121    0.000000
H           4.673798    1.201023   -0.000000
H           2.525484    2.441257    0.000000
H           0.022866    2.151055    0.864902
H           0.022866    2.151055   -0.864902
                    25
 energy=  -539.940314475186     
C          -2.503031    1.370277   -0.000000
C          -3.716980    0.677938   -0.000000
C          -3.708545   -0.717690   -0.000000
C          -2.492233   -1.411950    0.000000
C           2.472873   -1.412226    0.000000
C           3.709484   -0.722990   -0.000000
C           3.731755    0.666904    0.000000
C           2.520773    1.360125   -0.000000
C           0.006378    1.465740   -0.000000
C          -0.016271   -1.434959   -0.000000
C          -1.272222    0.686292   -0.000000
C          -1.252654   -0.731614   -0.000000
C           1.272618    0.673925   -0.000000
C           1.244554   -0.729929   -0.000000
H          -2.506345    2.455285    0.000000
H          -4.652949    1.222134    0.000000
H          -4.640202   -1.270236    0.000000
H          -2.497217   -2.496512   -0.000000
H          -0.015732   -2.516920   -0.000000
H           2.478301   -2.497078    0.000000
H           4.632097   -1.290025   -0.000000
H           4.670283    1.206010    0.000000
H           2.521481    2.444959    0.000000
H           0.015221    2.150956    0.864999
H           0.015221    2.150956   -0.864999
                    25
 energy=  -539.939926743462     
C          -2.507400    1.368457   -0.000000
C          -3.721273    0.675723    0.000000
C          -3.709485   -0.718855    0.000000
C          -2.487823   -1.412383    0.000000
C           2.478108   -1.412521   -0.000000
C           3.709992   -0.721461   -0.000000
C           3.728652    0.670215    0.000000
C           2.516293    1.363409   -0.000000
C           0.003184    1.464615   -0.000000
C          -0.008158   -1.435582    0.000000
C          -1.272555    0.683234    0.000000
C          -1.251001   -0.731710    0.000000
C           1.272704    0.677017   -0.000000
C           1.247009   -0.730830   -0.000000
H          -2.509946    2.453797    0.000000
H          -4.658138    1.219021   -0.000000
H          -4.639366   -1.275080    0.000000
H          -2.493202   -2.497418    0.000000
H          -0.007847   -2.517887   -0.000000
H           2.483768   -2.497701    0.000000
H           4.635325   -1.284949    0.000000
H           4.666783    1.210979    0.000000
H           2.517494    2.448647    0.000000
H           0.007595    2.150855    0.865095
H           0.007595    2.150855   -0.865095
                    25
 energy=  -539.939700146847     
C          -2.511785    1.366739    0.000000
C          -3.725626    0.673569    0.000000
C          -3.710533   -0.720043    0.000000
C          -2.483385   -1.412878    0.000000
C           2.483385   -1.412878    0.000000
C           3.710533   -0.720043    0.000000
C           3.725626    0.673569    0.000000
C           2.511785    1.366739    0.000000
C           0.000000    1.463529    0.000000
C           0.000000   -1.436233    0.000000
C          -1.272777    0.680177    0.000000
C          -1.249361   -0.731798    0.000000
C           1.272777    0.680177    0.000000
C           1.249361   -0.731798    0.000000
H          -2.513532    2.452446    0.000000
H          -4.663413    1.215989    0.000000
H          -4.638645   -1.279965    0.000000
H          -2.489211   -2.498454    0.000000
H           0.000000   -2.518980    0.000000
H           2.489211   -2.498454    0.000000
H           4.638645   -1.279965    0.000000
H           4.663413    1.215989    0.000000
H           2.513532    2.452446    0.000000
H           0.000000    2.150818    0.865287
H           0.000000    2.150818   -0.865287
