                    25
 energy=  -539.942978571336     
C          -2.473327    1.383560    0.000000
C          -3.686888    0.693453    0.000000
C          -3.702976   -0.708416    0.000000
C          -2.521841   -1.408948    0.000000
C           2.437446   -1.410162    0.000000
C           3.704911   -0.734802    0.000000
C           3.753503    0.643584    0.000000
C           2.551221    1.336534    0.000000
C           0.028793    1.473726    0.000000
C          -0.071279   -1.430625    0.000000
C          -1.268568    0.706615    0.000000
C          -1.265655   -0.729842    0.000000
C           1.273269    0.653425    0.000000
C           1.225901   -0.724617    0.000000
H          -2.480881    2.465810    0.000000
H          -4.616240    1.244130    0.000000
H          -4.646128   -1.235966    0.000000
H          -2.525617   -2.490129    0.000000
H          -0.071469   -2.510091    0.000000
H           2.439631   -2.492647    0.000000
H           4.609249   -1.325920    0.000000
H           4.695052    1.170884    0.000000
H           2.549678    2.418893    0.000000
H           0.068962    2.151659    0.864319
H           0.068962    2.151659   -0.864319
                    25
 energy=  -539.942911321442     
C          -2.476951    1.381284   -0.000000
C          -3.690841    0.690965    0.000000
C          -3.703059   -0.710590   -0.000000
C          -2.518481   -1.409694    0.000000
C           2.441787   -1.410108    0.000000
C           3.706093   -0.732163   -0.000000
C           3.750623    0.647163   -0.000000
C           2.547674    1.340088   -0.000000
C           0.025456    1.472745   -0.000000
C          -0.065157   -1.431197   -0.000000
C          -1.269812    0.704432    0.000000
C          -1.263130   -0.730957    0.000000
C           1.272287    0.655495   -0.000000
C           1.228994   -0.724538    0.000000
H          -2.484692    2.463945    0.000000
H          -4.621488    1.240713   -0.000000
H          -4.644890   -1.240983    0.000000
H          -2.521465   -2.490915   -0.000000
H          -0.063305   -2.510786   -0.000000
H           2.445362   -2.493000    0.000000
H           4.612559   -1.320428   -0.000000
H           4.691263    1.176134    0.000000
H           2.545513    2.422540   -0.000000
H           0.061246    2.151382    0.864224
H           0.061245    2.151382   -0.864224
                    25
 energy=  -539.942848807504     
C          -2.480603    1.379029    0.000000
C          -3.694754    0.688574   -0.000000
C          -3.703090   -0.712794   -0.000000
C          -2.515102   -1.410334    0.000000
C           2.446031   -1.410027   -0.000000
C           3.707294   -0.729535    0.000000
C           3.747690    0.650725   -0.000000
C           2.543978    1.343530    0.000000
C           0.022080    1.471746    0.000000
C          -0.058943   -1.431648    0.000000
C          -1.271164    0.702079   -0.000000
C          -1.260612   -0.731934   -0.000000
C           1.271529    0.657459   -0.000000
C           1.232170   -0.724488    0.000000
H          -2.488458    2.462068    0.000000
H          -4.626756    1.237281    0.000000
H          -4.643735   -1.246079    0.000000
H          -2.517280   -2.491708   -0.000000
H          -0.055087   -2.511526   -0.000000
H           2.451079   -2.493355    0.000000
H           4.615924   -1.314902   -0.000000
H           4.687448    1.181343    0.000000
H           2.541303    2.426276   -0.000000
H           0.053501    2.151137    0.864187
H           0.053501    2.151138   -0.864187
                    25
 energy=  -539.942658061002     
C          -2.484524    1.376732   -0.000000
C          -3.698703    0.686130    0.000000
C          -3.703193   -0.714766   -0.000000
C          -2.511835   -1.410881    0.000000
C           2.450528   -1.410089    0.000000
C           3.708573   -0.726923   -0.000000
C           3.744715    0.654276    0.000000
C           2.540328    1.347122    0.000000
C           0.018610    1.470750    0.000000
C          -0.052669   -1.432241    0.000000
C          -1.272686    0.699772    0.000000
C          -1.258277   -0.732814    0.000000
C           1.270839    0.659696   -0.000000
C           1.235461   -0.724523   -0.000000
H          -2.492245    2.460098    0.000000
H          -4.631807    1.233688   -0.000000
H          -4.642450   -1.251111    0.000000
H          -2.513067   -2.492512   -0.000000
H          -0.046818   -2.512526   -0.000000
H           2.456832   -2.493890    0.000000
H           4.619307   -1.309357    0.000000
H           4.683628    1.186578    0.000000
H           2.537081    2.430088    0.000000
H           0.045696    2.150953    0.864178
H           0.045696    2.150954   -0.864178
                    25
 energy=  -539.942421115391     
C          -2.488247    1.374398   -0.000000
C          -3.702740    0.683692    0.000000
C          -3.703203   -0.716956   -0.000000
C          -2.508294   -1.411431    0.000000
C           2.454830   -1.410091    0.000000
C           3.709750   -0.724381   -0.000000
C           3.741691    0.657874    0.000000
C           2.536442    1.350678    0.000000
C           0.015168    1.469660    0.000000
C          -0.046252   -1.432690   -0.000000
C          -1.274044    0.697283    0.000000
C          -1.255669   -0.733776    0.000000
C           1.270034    0.661726   -0.000000
C           1.238692   -0.724549   -0.000000
H          -2.496081    2.458207   -0.000000
H          -4.637184    1.230207   -0.000000
H          -4.641273   -1.256261   -0.000000
H          -2.508794   -2.493231    0.000000
H          -0.038426   -2.513222    0.000000
H           2.462664   -2.494271    0.000000
H           4.622756   -1.303777    0.000000
H           4.679816    1.191905   -0.000000
H           2.532798    2.433960   -0.000000
H           0.037777    2.150706    0.864128
H           0.037777    2.150706   -0.864128
                    25
 energy=  -539.942152649898     
C          -2.492110    1.372077    0.000000
C          -3.706899    0.681247    0.000000
C          -3.703297   -0.719069   -0.000000
C          -2.504730   -1.411962    0.000000
C           2.459326   -1.410131   -0.000000
C           3.710951   -0.721785   -0.000000
C           3.738561    0.661456    0.000000
C           2.532553    1.354295   -0.000000
C           0.011727    1.468525    0.000000
C          -0.039566   -1.433216   -0.000000
C          -1.275413    0.694818   -0.000000
C          -1.253073   -0.734707    0.000000
C           1.269299    0.663900    0.000000
C           1.242085   -0.724594    0.000000
H          -2.499970    2.456332   -0.000000
H          -4.642615    1.226685   -0.000000
H          -4.640092   -1.261458   -0.000000
H          -2.504461   -2.494003    0.000000
H          -0.029922   -2.514058    0.000000
H           2.468574   -2.494714   -0.000000
H           4.626170   -1.298104    0.000000
H           4.675852    1.197227   -0.000000
H           2.528458    2.437818    0.000000
H           0.029728    2.150481    0.864088
H           0.029727    2.150481   -0.864088
                    25
 energy=  -539.941763551022     
C          -2.496125    1.369768   -0.000000
C          -3.711209    0.678816    0.000000
C          -3.703541   -0.720962    0.000000
C          -2.500917   -1.412376   -0.000000
C           2.464017   -1.410266    0.000000
C           3.712033   -0.719352   -0.000000
C           3.735283    0.664984    0.000000
C           2.528429    1.357949   -0.000000
C           0.008297    1.467236   -0.000000
C          -0.032336   -1.433771   -0.000000
C          -1.276658    0.692235    0.000000
C          -1.250564   -0.735452    0.000000
C           1.268690    0.666324    0.000000
C           1.245533   -0.724815   -0.000000
H          -2.503889    2.454464   -0.000000
H          -4.648090    1.223164   -0.000000
H          -4.638953   -1.266655   -0.000000
H          -2.500077   -2.494779    0.000000
H          -0.021333   -2.514942    0.000000
H           2.474533   -2.495193   -0.000000
H           4.629559   -1.292423    0.000000
H           4.671837    1.202545   -0.000000
H           2.524091    2.441690    0.000000
H           0.021555    2.150266    0.864038
H           0.021554    2.150266   -0.864038
                    25
 energy=  -539.941228799557     
C          -2.500505    1.367585   -0.000000
C          -3.715820    0.676427    0.000000
C          -3.704181   -0.722380    0.000000
C          -2.496457   -1.412616   -0.000000
C           2.469217   -1.410540   -0.000000
C           3.712738   -0.717363    0.000000
C           3.731756    0.668386    0.000000
C           2.523794    1.361540   -0.000000
C           0.004950    1.465697   -0.000000
C          -0.023909   -1.434357   -0.000000
C          -1.277419    0.689265    0.000000
C          -1.248356   -0.735787    0.000000
C           1.268493    0.669309    0.000000
C           1.248835   -0.725480    0.000000
H          -2.507811    2.452719    0.000000
H          -4.653653    1.219733   -0.000000
H          -4.637934   -1.271819    0.000000
H          -2.495665   -2.495530   -0.000000
H          -0.012708   -2.515836    0.000000
H           2.480499   -2.495702    0.000000
H           4.632827   -1.286788   -0.000000
H           4.667758    1.207771   -0.000000
H           2.519728    2.445478   -0.000000
H           0.013238    2.150087    0.864003
H           0.013238    2.150087   -0.864002
                    25
 energy=  -539.940448402931     
C          -2.505677    1.366003   -0.000000
C          -3.720760    0.674297    0.000000
C          -3.705957   -0.722557    0.000000
C          -2.490786   -1.412695   -0.000000
C           2.475559   -1.411091   -0.000000
C           3.712518   -0.716651    0.000000
C           3.728081    0.671446   -0.000000
C           2.518301    1.364716    0.000000
C           0.001888    1.464068   -0.000000
C          -0.013241   -1.435071   -0.000000
C          -1.276837    0.685495    0.000000
C          -1.247306   -0.735010    0.000000
C           1.269456    0.673574   -0.000000
C           1.251133   -0.727257   -0.000000
H          -2.511453    2.451415    0.000000
H          -4.659049    1.216741   -0.000000
H          -4.637340   -1.276657    0.000000
H          -2.491545   -2.496499   -0.000000
H          -0.004645   -2.516948    0.000000
H           2.486050   -2.496372    0.000000
H           4.635813   -1.281710   -0.000000
H           4.664017    1.212577    0.000000
H           2.515693    2.449030   -0.000000
H           0.005226    2.150055    0.864125
H           0.005226    2.150055   -0.864125
                    25
 energy=  -539.939700146847     
C          -2.511785    1.366739    0.000000
C          -3.725626    0.673569    0.000000
C          -3.710533   -0.720043    0.000000
C          -2.483385   -1.412878    0.000000
C           2.483385   -1.412878    0.000000
C           3.710533   -0.720043    0.000000
C           3.725626    0.673569    0.000000
C           2.511785    1.366739    0.000000
C           0.000000    1.463529    0.000000
C           0.000000   -1.436233    0.000000
C          -1.272777    0.680177    0.000000
C          -1.249361   -0.731798    0.000000
C           1.272777    0.680177    0.000000
C           1.249361   -0.731798    0.000000
H          -2.513532    2.452446    0.000000
H          -4.663413    1.215989    0.000000
H          -4.638645   -1.279965    0.000000
H          -2.489211   -2.498454    0.000000
H           0.000000   -2.518980    0.000000
H           2.489211   -2.498454    0.000000
H           4.638645   -1.279965    0.000000
H           4.663413    1.215989    0.000000
H           2.513532    2.452446    0.000000
H           0.000000    2.150818    0.865287
H           0.000000    2.150818   -0.865287
