                    25
 energy=  0.000000000000000E+000
C          -2.473327    1.383560    0.000000
C          -3.686888    0.693453    0.000000
C          -3.702976   -0.708416    0.000000
C          -2.521841   -1.408948    0.000000
C           2.437446   -1.410162    0.000000
C           3.704911   -0.734802    0.000000
C           3.753503    0.643584    0.000000
C           2.551221    1.336534    0.000000
C           0.028793    1.473726    0.000000
C          -0.071279   -1.430625    0.000000
C          -1.268568    0.706615    0.000000
C          -1.265655   -0.729842    0.000000
C           1.273269    0.653425    0.000000
C           1.225901   -0.724617    0.000000
H          -2.480881    2.465810    0.000000
H          -4.616240    1.244130    0.000000
H          -4.646128   -1.235966    0.000000
H          -2.525617   -2.490129    0.000000
H          -0.071469   -2.510091    0.000000
H           2.439631   -2.492647    0.000000
H           4.609249   -1.325920    0.000000
H           4.695052    1.170884    0.000000
H           2.549678    2.418893    0.000000
H           0.068962    2.151659    0.864319
H           0.068962    2.151659   -0.864319
                    25
 energy=  0.000000000000000E+000
C          -2.477600    1.381691    0.000000
C          -3.691192    0.691244    0.000000
C          -3.703816   -0.709708    0.000000
C          -2.517568   -1.409385    0.000000
C           2.442550   -1.410464    0.000000
C           3.705536   -0.733162    0.000000
C           3.750405    0.646915    0.000000
C           2.546839    1.339890    0.000000
C           0.025594    1.472593    0.000000
C          -0.063359   -1.431248    0.000000
C          -1.269035    0.703678    0.000000
C          -1.263844   -0.730059    0.000000
C           1.273214    0.656397    0.000000
C           1.228508   -0.725415    0.000000
H          -2.484509    2.464325    0.000000
H          -4.621482    1.241004    0.000000
H          -4.645297   -1.240855    0.000000
H          -2.521572   -2.491054    0.000000
H          -0.063528   -2.511078    0.000000
H           2.445140   -2.493292    0.000000
H           4.612516   -1.320814    0.000000
H           4.691536    1.175896    0.000000
H           2.545662    2.422621    0.000000
H           0.061299    2.151566    0.864426
H           0.061299    2.151566   -0.864426
                    25
 energy=  0.000000000000000E+000
C          -2.481873    1.379822    0.000000
C          -3.695496    0.689034    0.000000
C          -3.704656   -0.711000    0.000000
C          -2.513295   -1.409821    0.000000
C           2.447654   -1.410765    0.000000
C           3.706161   -0.731522    0.000000
C           3.747308    0.650247    0.000000
C           2.542457    1.343246    0.000000
C           0.022394    1.471460    0.000000
C          -0.055440   -1.431871    0.000000
C          -1.269503    0.700740    0.000000
C          -1.262034   -0.730276    0.000000
C           1.273160    0.659370    0.000000
C           1.231114   -0.726213    0.000000
H          -2.488137    2.462840    0.000000
H          -4.626723    1.237877    0.000000
H          -4.644465   -1.245744    0.000000
H          -2.517527   -2.491979    0.000000
H          -0.055587   -2.512066    0.000000
H           2.450649   -2.493937    0.000000
H           4.615782   -1.315708    0.000000
H           4.688021    1.180908    0.000000
H           2.541646    2.426349    0.000000
H           0.053637    2.151472    0.864534
H           0.053637    2.151472   -0.864534
                    25
 energy=  0.000000000000000E+000
C          -2.486146    1.377953    0.000000
C          -3.699800    0.686825    0.000000
C          -3.705495   -0.712291    0.000000
C          -2.509022   -1.410258    0.000000
C           2.452759   -1.411067    0.000000
C           3.706785   -0.729882    0.000000
C           3.744210    0.653579    0.000000
C           2.538076    1.346603    0.000000
C           0.019195    1.470327    0.000000
C          -0.047520   -1.432494    0.000000
C          -1.269971    0.697803    0.000000
C          -1.260223   -0.730494    0.000000
C           1.273105    0.662342    0.000000
C           1.233721   -0.727011    0.000000
H          -2.491765    2.461355    0.000000
H          -4.631965    1.234750    0.000000
H          -4.643634   -1.250632    0.000000
H          -2.513482   -2.492904    0.000000
H          -0.047646   -2.513054    0.000000
H           2.456158   -2.494583    0.000000
H           4.619048   -1.310601    0.000000
H           4.684506    1.185919    0.000000
H           2.537629    2.430077    0.000000
H           0.045975    2.151379    0.864642
H           0.045975    2.151379   -0.864642
                    25
 energy=  0.000000000000000E+000
C          -2.490419    1.376084    0.000000
C          -3.704105    0.684616    0.000000
C          -3.706335   -0.713583    0.000000
C          -2.504749   -1.410695    0.000000
C           2.457863   -1.411369    0.000000
C           3.707410   -0.728242    0.000000
C           3.741113    0.656910    0.000000
C           2.533694    1.349959    0.000000
C           0.015996    1.469194    0.000000
C          -0.039600   -1.433117    0.000000
C          -1.270438    0.694865    0.000000
C          -1.258413   -0.730711    0.000000
C           1.273050    0.665315    0.000000
C           1.236327   -0.727809    0.000000
H          -2.495393    2.459870    0.000000
H          -4.637206    1.231623    0.000000
H          -4.642802   -1.255521    0.000000
H          -2.509436   -2.493829    0.000000
H          -0.039705   -2.514041    0.000000
H           2.461667   -2.495228    0.000000
H           4.622314   -1.305495    0.000000
H           4.680990    1.190931    0.000000
H           2.533613    2.433805    0.000000
H           0.038312    2.151285    0.864749
H           0.038312    2.151285   -0.864749
                    25
 energy=  0.000000000000000E+000
C          -2.494692    1.374215    0.000000
C          -3.708409    0.682406    0.000000
C          -3.707175   -0.714875    0.000000
C          -2.500476   -1.411131    0.000000
C           2.462967   -1.411671    0.000000
C           3.708035   -0.726602    0.000000
C           3.738016    0.660242    0.000000
C           2.529312    1.353315    0.000000
C           0.012797    1.468061    0.000000
C          -0.031680   -1.433740    0.000000
C          -1.270906    0.691927    0.000000
C          -1.256602   -0.730928    0.000000
C           1.272996    0.668287    0.000000
C           1.238934   -0.728607    0.000000
H          -2.499021    2.458385    0.000000
H          -4.642448    1.228496    0.000000
H          -4.641971   -1.260410    0.000000
H          -2.505391   -2.494754    0.000000
H          -0.031764   -2.515029    0.000000
H           2.467176   -2.495873    0.000000
H           4.625580   -1.300389    0.000000
H           4.677475    1.195943    0.000000
H           2.529597    2.437533    0.000000
H           0.030650    2.151192    0.864857
H           0.030650    2.151192   -0.864857
                    25
 energy=  0.000000000000000E+000
C          -2.498965    1.372346    0.000000
C          -3.712713    0.680197    0.000000
C          -3.708014   -0.716167    0.000000
C          -2.496203   -1.411568    0.000000
C           2.468072   -1.411973    0.000000
C           3.708659   -0.724962    0.000000
C           3.734918    0.663574    0.000000
C           2.524930    1.356671    0.000000
C           0.009598    1.466928    0.000000
C          -0.023760   -1.434363    0.000000
C          -1.271374    0.688990    0.000000
C          -1.254792   -0.731146    0.000000
C           1.272941    0.671259    0.000000
C           1.241541   -0.729404    0.000000
H          -2.502649    2.456900    0.000000
H          -4.647689    1.225370    0.000000
H          -4.641140   -1.265298    0.000000
H          -2.501346   -2.495679    0.000000
H          -0.023823   -2.516017    0.000000
H           2.472684   -2.496518    0.000000
H           4.628847   -1.295283    0.000000
H           4.673959    1.200954    0.000000
H           2.525581    2.441262    0.000000
H           0.022987    2.151098    0.864964
H           0.022987    2.151098   -0.864964
                    25
 energy=  0.000000000000000E+000
C          -2.503238    1.370477    0.000000
C          -3.717017    0.677988    0.000000
C          -3.708854   -0.717459    0.000000
C          -2.491930   -1.412005    0.000000
C           2.473176   -1.412275    0.000000
C           3.709284   -0.723323    0.000000
C           3.731821    0.666905    0.000000
C           2.520548    1.360027    0.000000
C           0.006398    1.465795    0.000000
C          -0.015840   -1.434986    0.000000
C          -1.271841    0.686052    0.000000
C          -1.252982   -0.731363    0.000000
C           1.272886    0.674232    0.000000
C           1.244147   -0.730202    0.000000
H          -2.506276    2.455416    0.000000
H          -4.652931    1.222243    0.000000
H          -4.640308   -1.270187    0.000000
H          -2.497301   -2.496604    0.000000
H          -0.015882   -2.517004    0.000000
H           2.478193   -2.497164    0.000000
H           4.632113   -1.290177    0.000000
H           4.670444    1.205966    0.000000
H           2.521565    2.444990    0.000000
H           0.015325    2.151005    0.865072
H           0.015325    2.151005   -0.865072
                    25
 energy=  0.000000000000000E+000
C          -2.507511    1.368608    0.000000
C          -3.721322    0.675778    0.000000
C          -3.709694   -0.718751    0.000000
C          -2.487658   -1.412441    0.000000
C           2.478280   -1.412576    0.000000
C           3.709909   -0.721683    0.000000
C           3.728723    0.670237    0.000000
C           2.516166    1.363383    0.000000
C           0.003199    1.464662    0.000000
C          -0.007920   -1.435609    0.000000
C          -1.272309    0.683114    0.000000
C          -1.251171   -0.731580    0.000000
C           1.272831    0.677204    0.000000
C           1.246754   -0.731000    0.000000
H          -2.509904    2.453931    0.000000
H          -4.658172    1.219116    0.000000
H          -4.639477   -1.275076    0.000000
H          -2.493256   -2.497529    0.000000
H          -0.007941   -2.517992    0.000000
H           2.483702   -2.497809    0.000000
H           4.635379   -1.285071    0.000000
H           4.666929    1.210978    0.000000
H           2.517549    2.448718    0.000000
H           0.007662    2.150911    0.865179
H           0.007662    2.150911   -0.865179
                    25
 energy=  0.000000000000000E+000
C          -2.511785    1.366739    0.000000
C          -3.725626    0.673569    0.000000
C          -3.710533   -0.720043    0.000000
C          -2.483385   -1.412878    0.000000
C           2.483385   -1.412878    0.000000
C           3.710533   -0.720043    0.000000
C           3.725626    0.673569    0.000000
C           2.511785    1.366739    0.000000
C           0.000000    1.463529    0.000000
C           0.000000   -1.436233    0.000000
C          -1.272777    0.680177    0.000000
C          -1.249361   -0.731798    0.000000
C           1.272777    0.680177    0.000000
C           1.249361   -0.731798    0.000000
H          -2.513532    2.452446    0.000000
H          -4.663413    1.215989    0.000000
H          -4.638645   -1.279965    0.000000
H          -2.489211   -2.498454    0.000000
H           0.000000   -2.518980    0.000000
H           2.489211   -2.498454    0.000000
H           4.638645   -1.279965    0.000000
H           4.663413    1.215989    0.000000
H           2.513532    2.452446    0.000000
H           0.000000    2.150818    0.865287
H           0.000000    2.150818   -0.865287
