 argument  1 = 2orb-test.nw



============================== echo of input deck ==============================
echo

start molecule

title "Title"
charge 1

geometry units angstroms print xyz autosym
   C        3.65173       -0.78685       -0.00001
   C        2.44247       -1.43535       -0.00001
   C        1.23974       -0.68798       -0.00000
   C        1.27330        0.73074        0.00001
   C        2.50603        1.36411        0.00001
   C        3.67625        0.61507       -0.00000
   C        0.00000       -1.34275        0.00001
   C        0.00000        1.51499        0.00002
   C       -1.27330        0.73074        0.00000
   C       -1.23974       -0.68798        0.00002
   C       -2.44247       -1.43535        0.00001
   H       -2.38954       -2.51900        0.00002
   C       -3.65173       -0.78685       -0.00001
   C       -3.67625        0.61507       -0.00003
   C       -2.50603        1.36411       -0.00002
   H        0.00000       -2.43220        0.00001
   H        4.57869       -1.34594       -0.00002
   H        2.38954       -2.51900       -0.00002
   H        2.55762        2.44760        0.00002
   H        4.63171        1.12870        0.00000
   H       -0.00000        2.18953        0.86808
   H       -4.57869       -1.34594       -0.00001
   H       -4.63171        1.12870       -0.00005
   H       -2.55762        2.44760       -0.00004
   H        0.00000        2.18959       -0.86798
end

basis
  * library 6-31G*
end

dft
  xc b3lyp
  mult 1
  vectors output n2.movecs
end
task dft
dplot
  vectors n2.movecs
   LimitXYZ
  -6.0 6.0 50
  -6.0 6.0 50
  -6.0 6.0 50
  spin total
  gaussian
  orbitals; 1; 47
  output 2orbdensity.cube
end

task dplot

================================================================================


                                         
                                         


              Northwest Computational Chemistry Package (NWChem) 6.8
              ------------------------------------------------------


                    Environmental Molecular Sciences Laboratory
                       Pacific Northwest National Laboratory
                                Richland, WA 99352

                              Copyright (c) 1994-2017
                       Pacific Northwest National Laboratory
                            Battelle Memorial Institute

             NWChem is an open-source computational chemistry package
                        distributed under the terms of the
                      Educational Community License (ECL) 2.0
             A copy of the license is included with this distribution
                              in the LICENSE.TXT file

                                  ACKNOWLEDGMENT
                                  --------------

            This software and its documentation were developed at the
            EMSL at Pacific Northwest National Laboratory, a multiprogram
            national laboratory, operated for the U.S. Department of Energy
            by Battelle under Contract Number DE-AC05-76RL01830. Support
            for this work was provided by the Department of Energy Office
            of Biological and Environmental Research, Office of Basic
            Energy Sciences, and the Office of Advanced Scientific Computing.


           Job information
           ---------------

    hostname        = wang
    program         = nwchem
    date            = Mon Aug  9 14:40:08 2021

    compiled        = Tue_Jul_24_14:45:34_2018
    source          = /home/stg121/Software/nwchem-6.8.1
    nwchem branch   = 6.8.1
    nwchem revision = v6.8-143-gdb0d96486
    ga revision     = 5.6.5
    use scalapack   = F
    input           = 2orb-test.nw
    prefix          = molecule.
    data base       = ./molecule.db
    status          = startup
    nproc           =        1
    time left       =     -1s



           Memory information
           ------------------

    heap     =   13107194 doubles =    100.0 Mbytes
    stack    =   13107199 doubles =    100.0 Mbytes
    global   =   26214400 doubles =    200.0 Mbytes (distinct from heap & stack)
    total    =   52428793 doubles =    400.0 Mbytes
    verify   = yes
    hardfail = no 


           Directory information
           ---------------------

  0 permanent = .
  0 scratch   = .




                                NWChem Input Module
                                -------------------


                                       Title
                                       -----

 Scaling coordinates for geometry "geometry" by  1.889725989
 (inverse scale =  0.529177249)

 C2V symmetry detected

          ------
          auto-z
          ------


                             Geometry "geometry" -> ""
                             -------------------------

 Output coordinates in angstroms (scale by  1.889725989 to convert to a.u.)

  No.       Tag          Charge          X              Y              Z
 ---- ---------------- ---------- -------------- -------------- --------------
    1 C                    6.0000    -3.65173000     0.00000000    -0.78684958
    2 C                    6.0000    -2.44247000     0.00000000    -1.43534958
    3 C                    6.0000    -1.23974000     0.00000000    -0.68797958
    4 C                    6.0000    -1.27330000     0.00000000     0.73074042
    5 C                    6.0000    -2.50603000     0.00000000     1.36411042
    6 C                    6.0000    -3.67625000     0.00000000     0.61507042
    7 C                    6.0000     0.00000000     0.00000000    -1.34274958
    8 C                    6.0000     0.00000000     0.00000000     1.51499042
    9 C                    6.0000     1.27330000     0.00000000     0.73074042
   10 C                    6.0000     1.23974000     0.00000000    -0.68797958
   11 C                    6.0000     2.44247000     0.00000000    -1.43534958
   12 H                    1.0000     2.38954000     0.00000000    -2.51899958
   13 C                    6.0000     3.65173000     0.00000000    -0.78684958
   14 C                    6.0000     3.67625000     0.00000000     0.61507042
   15 C                    6.0000     2.50603000     0.00000000     1.36411042
   16 H                    1.0000     0.00000000     0.00000000    -2.43219958
   17 H                    1.0000    -4.57869000     0.00000000    -1.34593958
   18 H                    1.0000    -2.38954000     0.00000000    -2.51899958
   19 H                    1.0000    -2.55762000     0.00000000     2.44760042
   20 H                    1.0000    -4.63171000     0.00000000     1.12870042
   21 H                    1.0000     0.00000000     0.86803000     2.18956042
   22 H                    1.0000     4.57869000     0.00000000    -1.34593958
   23 H                    1.0000     4.63171000     0.00000000     1.12870042
   24 H                    1.0000     2.55762000     0.00000000     2.44760042
   25 H                    1.0000     0.00000000    -0.86803000     2.18956042

      Atomic Mass 
      ----------- 

      C                 12.000000
      H                  1.007825


 Effective nuclear repulsion energy (a.u.)     782.2330517852

            Nuclear Dipole moment (a.u.) 
            ----------------------------
        X                 Y               Z
 ---------------- ---------------- ----------------
    -0.0000000000     0.0000000000    -0.0000000000

      Symmetry information
      --------------------

 Group name             C2v       
 Group number             16
 Group order               4
 No. of unique centers    14

      Symmetry unique atoms

     1    2    3    4    5    6    7    8   12   16   17   19   20   21



                                Z-matrix (autoz)
                                -------- 

 Units are Angstrom for bonds and degrees for angles

      Type          Name      I     J     K     L     M      Value
      ----------- --------  ----- ----- ----- ----- ----- ----------
    1 Stretch                  1     2                       1.37217
    2 Stretch                  1     6                       1.40213
    3 Stretch                  1    17                       1.08251
    4 Stretch                  2     3                       1.41602
    5 Stretch                  2    18                       1.08494
    6 Stretch                  3     4                       1.41912
    7 Stretch                  3     7                       1.40203
    8 Stretch                  4     5                       1.38592
    9 Stretch                  4     8                       1.49544
   10 Stretch                  5     6                       1.38942
   11 Stretch                  5    19                       1.08472
   12 Stretch                  6    20                       1.08477
   13 Stretch                  7    10                       1.40203
   14 Stretch                  7    16                       1.08945
   15 Stretch                  8     9                       1.49544
   16 Stretch                  8    21                       1.09933
   17 Stretch                  8    25                       1.09933
   18 Stretch                  9    10                       1.41912
   19 Stretch                  9    15                       1.38592
   20 Stretch                 10    11                       1.41602
   21 Stretch                 11    12                       1.08494
   22 Stretch                 11    13                       1.37217
   23 Stretch                 13    14                       1.40213
   24 Stretch                 13    22                       1.08251
   25 Stretch                 14    15                       1.38942
   26 Stretch                 14    23                       1.08477
   27 Stretch                 15    24                       1.08472
   28 Bend                     1     2     3               119.93971
   29 Bend                     1     2    18               121.00004
   30 Bend                     1     6     5               121.62067
   31 Bend                     1     6    20               119.26332
   32 Bend                     2     1     6               119.20572
   33 Bend                     2     1    17               120.70029
   34 Bend                     2     3     4               120.50151
   35 Bend                     2     3     7               120.30258
   36 Bend                     3     2    18               119.06025
   37 Bend                     3     4     5               118.54894
   38 Bend                     3     4     8               120.27463
   39 Bend                     3     7    10               124.31836
   40 Bend                     3     7    16               117.84082
   41 Bend                     4     3     7               119.19591
   42 Bend                     4     5     6               120.18346
   43 Bend                     4     5    19               119.91991
   44 Bend                     4     8     9               116.74057
   45 Bend                     4     8    21               108.77179
   46 Bend                     4     8    25               108.77179
   47 Bend                     5     4     8               121.17643
   48 Bend                     5     6    20               119.11601
   49 Bend                     6     1    17               120.09399
   50 Bend                     6     5    19               119.89663
   51 Bend                     7    10     9               119.19591
   52 Bend                     7    10    11               120.30258
   53 Bend                     8     9    10               120.27463
   54 Bend                     8     9    15               121.17643
   55 Bend                     9     8    21               108.77179
   56 Bend                     9     8    25               108.77179
   57 Bend                     9    10    11               120.50151
   58 Bend                     9    15    14               120.18346
   59 Bend                     9    15    24               119.91991
   60 Bend                    10     7    16               117.84082
   61 Bend                    10     9    15               118.54894
   62 Bend                    10    11    12               119.06025
   63 Bend                    10    11    13               119.93971
   64 Bend                    11    13    14               119.20572
   65 Bend                    11    13    22               120.70029
   66 Bend                    12    11    13               121.00004
   67 Bend                    13    14    15               121.62067
   68 Bend                    13    14    23               119.26332
   69 Bend                    14    13    22               120.09399
   70 Bend                    14    15    24               119.89663
   71 Bend                    15    14    23               119.11601
   72 Bend                    21     8    25               104.29648
   73 Torsion                  1     2     3     4           0.00000
   74 Torsion                  1     2     3     7         180.00000
   75 Torsion                  1     6     5     4           0.00000
   76 Torsion                  1     6     5    19         180.00000
   77 Torsion                  2     1     6     5           0.00000
   78 Torsion                  2     1     6    20         180.00000
   79 Torsion                  2     3     4     5           0.00000
   80 Torsion                  2     3     4     8         180.00000
   81 Torsion                  2     3     7    10         180.00000
   82 Torsion                  2     3     7    16           0.00000
   83 Torsion                  3     2     1     6           0.00000
   84 Torsion                  3     2     1    17         180.00000
   85 Torsion                  3     4     5     6          -0.00000
   86 Torsion                  3     4     5    19         180.00000
   87 Torsion                  3     4     8     9           0.00000
   88 Torsion                  3     4     8    21         123.49217
   89 Torsion                  3     4     8    25        -123.49217
   90 Torsion                  3     7    10     9           0.00000
   91 Torsion                  3     7    10    11         180.00000
   92 Torsion                  4     3     2    18         180.00000
   93 Torsion                  4     3     7    10           0.00000
   94 Torsion                  4     3     7    16         180.00000
   95 Torsion                  4     5     6    20         180.00000
   96 Torsion                  4     8     9    10           0.00000
   97 Torsion                  4     8     9    15         180.00000
   98 Torsion                  5     4     3     7         180.00000
   99 Torsion                  5     4     8     9         180.00000
  100 Torsion                  5     4     8    21         -56.50783
  101 Torsion                  5     4     8    25          56.50783
  102 Torsion                  5     6     1    17         180.00000
  103 Torsion                  6     1     2    18         180.00000
  104 Torsion                  6     5     4     8         180.00000
  105 Torsion                  7     3     2    18           0.00000
  106 Torsion                  7     3     4     8           0.00000
  107 Torsion                  7    10     9     8           0.00000
  108 Torsion                  7    10     9    15         180.00000
  109 Torsion                  7    10    11    12           0.00000
  110 Torsion                  7    10    11    13         180.00000
  111 Torsion                  8     4     5    19           0.00000
  112 Torsion                  8     9    10    11         180.00000
  113 Torsion                  8     9    15    14         180.00000
  114 Torsion                  8     9    15    24           0.00000
  115 Torsion                  9    10     7    16         180.00000
  116 Torsion                  9    10    11    12         180.00000
  117 Torsion                  9    10    11    13          -0.00000
  118 Torsion                  9    15    14    13           0.00000
  119 Torsion                  9    15    14    23         180.00000
  120 Torsion                 10     9     8    21        -123.49217
  121 Torsion                 10     9     8    25         123.49217
  122 Torsion                 10     9    15    14           0.00000
  123 Torsion                 10     9    15    24         180.00000
  124 Torsion                 10    11    13    14           0.00000
  125 Torsion                 10    11    13    22         180.00000
  126 Torsion                 11    10     7    16           0.00000
  127 Torsion                 11    10     9    15           0.00000
  128 Torsion                 11    13    14    15           0.00000
  129 Torsion                 11    13    14    23         180.00000
  130 Torsion                 12    11    13    14         180.00000
  131 Torsion                 12    11    13    22           0.00000
  132 Torsion                 13    14    15    24         180.00000
  133 Torsion                 15     9     8    21          56.50783
  134 Torsion                 15     9     8    25         -56.50783
  135 Torsion                 15    14    13    22         180.00000
  136 Torsion                 17     1     2    18           0.00000
  137 Torsion                 17     1     6    20           0.00000
  138 Torsion                 19     5     6    20           0.00000
  139 Torsion                 22    13    14    23           0.00000
  140 Torsion                 23    14    15    24           0.00000


            XYZ format geometry
            -------------------
    25
 geometry
 C                    -3.65173000     0.00000000    -0.78684958
 C                    -2.44247000     0.00000000    -1.43534958
 C                    -1.23974000     0.00000000    -0.68797958
 C                    -1.27330000     0.00000000     0.73074042
 C                    -2.50603000     0.00000000     1.36411042
 C                    -3.67625000     0.00000000     0.61507042
 C                     0.00000000     0.00000000    -1.34274958
 C                     0.00000000     0.00000000     1.51499042
 C                     1.27330000     0.00000000     0.73074042
 C                     1.23974000     0.00000000    -0.68797958
 C                     2.44247000     0.00000000    -1.43534958
 H                     2.38954000     0.00000000    -2.51899958
 C                     3.65173000     0.00000000    -0.78684958
 C                     3.67625000     0.00000000     0.61507042
 C                     2.50603000     0.00000000     1.36411042
 H                     0.00000000     0.00000000    -2.43219958
 H                    -4.57869000     0.00000000    -1.34593958
 H                    -2.38954000     0.00000000    -2.51899958
 H                    -2.55762000     0.00000000     2.44760042
 H                    -4.63171000     0.00000000     1.12870042
 H                     0.00000000     0.86803000     2.18956042
 H                     4.57869000     0.00000000    -1.34593958
 H                     4.63171000     0.00000000     1.12870042
 H                     2.55762000     0.00000000     2.44760042
 H                     0.00000000    -0.86803000     2.18956042

 ==============================================================================
                                internuclear distances
 ------------------------------------------------------------------------------
       center one      |      center two      | atomic units |  angstroms
 ------------------------------------------------------------------------------
    2 C                |   1 C                |     2.59303  |     1.37217
    3 C                |   2 C                |     2.67590  |     1.41602
    4 C                |   3 C                |     2.68174  |     1.41912
    5 C                |   4 C                |     2.61901  |     1.38592
    6 C                |   1 C                |     2.64965  |     1.40213
    6 C                |   5 C                |     2.62561  |     1.38942
    7 C                |   3 C                |     2.64945  |     1.40203
    8 C                |   4 C                |     2.82597  |     1.49544
    9 C                |   8 C                |     2.82597  |     1.49544
   10 C                |   7 C                |     2.64945  |     1.40203
   10 C                |   9 C                |     2.68174  |     1.41912
   11 C                |  10 C                |     2.67590  |     1.41602
   12 H                |  11 C                |     2.05024  |     1.08494
   13 C                |  11 C                |     2.59303  |     1.37217
   14 C                |  13 C                |     2.64965  |     1.40213
   15 C                |   9 C                |     2.61901  |     1.38592
   15 C                |  14 C                |     2.62561  |     1.38942
   16 H                |   7 C                |     2.05876  |     1.08945
   17 H                |   1 C                |     2.04565  |     1.08251
   18 H                |   2 C                |     2.05024  |     1.08494
   19 H                |   5 C                |     2.04982  |     1.08472
   20 H                |   6 C                |     2.04991  |     1.08477
   21 H                |   8 C                |     2.07743  |     1.09933
   22 H                |  13 C                |     2.04565  |     1.08251
   23 H                |  14 C                |     2.04991  |     1.08477
   24 H                |  15 C                |     2.04982  |     1.08472
   25 H                |   8 C                |     2.07743  |     1.09933
 ------------------------------------------------------------------------------
                         number of included internuclear distances:         27
 ==============================================================================



 ==============================================================================
                                 internuclear angles
 ------------------------------------------------------------------------------
        center 1       |       center 2       |       center 3       |  degrees
 ------------------------------------------------------------------------------
    2 C                |   1 C                |   6 C                |   119.21
    2 C                |   1 C                |  17 H                |   120.70
    6 C                |   1 C                |  17 H                |   120.09
    1 C                |   2 C                |   3 C                |   119.94
    1 C                |   2 C                |  18 H                |   121.00
    3 C                |   2 C                |  18 H                |   119.06
    2 C                |   3 C                |   4 C                |   120.50
    2 C                |   3 C                |   7 C                |   120.30
    4 C                |   3 C                |   7 C                |   119.20
    3 C                |   4 C                |   5 C                |   118.55
    3 C                |   4 C                |   8 C                |   120.27
    5 C                |   4 C                |   8 C                |   121.18
    4 C                |   5 C                |   6 C                |   120.18
    4 C                |   5 C                |  19 H                |   119.92
    6 C                |   5 C                |  19 H                |   119.90
    1 C                |   6 C                |   5 C                |   121.62
    1 C                |   6 C                |  20 H                |   119.26
    5 C                |   6 C                |  20 H                |   119.12
    3 C                |   7 C                |  10 C                |   124.32
    3 C                |   7 C                |  16 H                |   117.84
   10 C                |   7 C                |  16 H                |   117.84
    4 C                |   8 C                |   9 C                |   116.74
    4 C                |   8 C                |  21 H                |   108.77
    4 C                |   8 C                |  25 H                |   108.77
    9 C                |   8 C                |  21 H                |   108.77
    9 C                |   8 C                |  25 H                |   108.77
   21 H                |   8 C                |  25 H                |   104.30
    8 C                |   9 C                |  10 C                |   120.27
    8 C                |   9 C                |  15 C                |   121.18
   10 C                |   9 C                |  15 C                |   118.55
    7 C                |  10 C                |   9 C                |   119.20
    7 C                |  10 C                |  11 C                |   120.30
    9 C                |  10 C                |  11 C                |   120.50
   10 C                |  11 C                |  12 H                |   119.06
   10 C                |  11 C                |  13 C                |   119.94
   12 H                |  11 C                |  13 C                |   121.00
   11 C                |  13 C                |  14 C                |   119.21
   11 C                |  13 C                |  22 H                |   120.70
   14 C                |  13 C                |  22 H                |   120.09
   13 C                |  14 C                |  15 C                |   121.62
   13 C                |  14 C                |  23 H                |   119.26
   15 C                |  14 C                |  23 H                |   119.12
    9 C                |  15 C                |  14 C                |   120.18
    9 C                |  15 C                |  24 H                |   119.92
   14 C                |  15 C                |  24 H                |   119.90
 ------------------------------------------------------------------------------
                            number of included internuclear angles:         45
 ==============================================================================





 Summary of "ao basis" -> "" (cartesian)
 ------------------------------------------------------------------------------
       Tag                 Description            Shells   Functions and Types
 ---------------- ------------------------------  ------  ---------------------
 *                           6-31G*                   on all atoms 



                                 NWChem DFT Module
                                 -----------------


                                       Title


                      Basis "ao basis" -> "ao basis" (cartesian)
                      -----
  C (Carbon)
  ----------
            Exponent  Coefficients 
       -------------- ---------------------------------------------------------
  1 S  3.04752490E+03  0.001835
  1 S  4.57369510E+02  0.014037
  1 S  1.03948690E+02  0.068843
  1 S  2.92101550E+01  0.232184
  1 S  9.28666300E+00  0.467941
  1 S  3.16392700E+00  0.362312

  2 S  7.86827240E+00 -0.119332
  2 S  1.88128850E+00 -0.160854
  2 S  5.44249300E-01  1.143456

  3 P  7.86827240E+00  0.068999
  3 P  1.88128850E+00  0.316424
  3 P  5.44249300E-01  0.744308

  4 S  1.68714400E-01  1.000000

  5 P  1.68714400E-01  1.000000

  6 D  8.00000000E-01  1.000000

  H (Hydrogen)
  ------------
            Exponent  Coefficients 
       -------------- ---------------------------------------------------------
  1 S  1.87311370E+01  0.033495
  1 S  2.82539370E+00  0.234727
  1 S  6.40121700E-01  0.813757

  2 S  1.61277800E-01  1.000000



 Summary of "ao basis" -> "ao basis" (cartesian)
 ------------------------------------------------------------------------------
       Tag                 Description            Shells   Functions and Types
 ---------------- ------------------------------  ------  ---------------------
 C                           6-31G*                  6       15   3s2p1d
 H                           6-31G*                  2        2   2s




 Summary of "ao basis" -> "ao basis" (cartesian)
 ------------------------------------------------------------------------------
       Tag                 Description            Shells   Functions and Types
 ---------------- ------------------------------  ------  ---------------------
 C                           6-31G*                  6       15   3s2p1d
 H                           6-31G*                  2        2   2s


      Symmetry analysis of basis
      --------------------------

        a1         94
        a2         26
        b1         80
        b2         32

  Caching 1-el integrals 

            General Information
            -------------------
          SCF calculation type: DFT
          Wavefunction type:  closed shell.
          No. of atoms     :    25
          No. of electrons :    94
           Alpha electrons :    47
            Beta electrons :    47
          Charge           :     1
          Spin multiplicity:     1
          Use of symmetry is: on ; symmetry adaption is: on 
          Maximum number of iterations:  30
          AO basis - number of functions:   232
                     number of shells:   106
          Convergence on energy requested:  1.00D-06
          Convergence on density requested:  1.00D-05
          Convergence on gradient requested:  5.00D-04

              XC Information
              --------------
                         B3LYP Method XC Potential
                     Hartree-Fock (Exact) Exchange  0.200          
                        Slater Exchange Functional  0.800 local    
                    Becke 1988 Exchange Functional  0.720 non-local
              Lee-Yang-Parr Correlation Functional  0.810          
                  VWN I RPA Correlation Functional  0.190 local    

             Grid Information
             ----------------
          Grid used for XC integration:  medium    
          Radial quadrature: Mura-Knowles        
          Angular quadrature: Lebedev. 
          Tag              B.-S. Rad. Rad. Pts. Rad. Cut. Ang. Pts.
          ---              ---------- --------- --------- ---------
          C                   0.70       49          14.0       434
          H                   0.35       45          14.0       434
          Grid pruning is: on 
          Number of quadrature shells:   662
          Spatial weights used:  Erf1

          Convergence Information
          -----------------------
          Convergence aids based upon iterative change in 
          total energy or number of iterations. 
          Levelshifting, if invoked, occurs when the 
          HOMO/LUMO gap drops below (HL_TOL):  1.00D-02
          DIIS, if invoked, will attempt to extrapolate 
          using up to (NFOCK): 10 stored Fock matrices.

                    Damping( 0%)  Levelshifting(0.5)       DIIS
                  --------------- ------------------- ---------------
          dE  on:    start            ASAP                start   
          dE off:    2 iters         30 iters            30 iters 


      Screening Tolerance Information
      -------------------------------
          Density screening/tol_rho:  1.00D-10
          AO Gaussian exp screening on grid/accAOfunc:  14
          CD Gaussian exp screening on grid/accCDfunc:  20
          XC Gaussian exp screening on grid/accXCfunc:  20
          Schwarz screening/accCoul:  1.00D-08


      Superposition of Atomic Density Guess
      -------------------------------------

 Sum of atomic energies:        -532.72411601

 Renormalizing density from      95.00 to     94

      Non-variational initial energy
      ------------------------------

 Total energy =    -539.057950
 1-e energy   =   -2245.070197
 2-e energy   =     923.779195
 HOMO         =      -0.462905
 LUMO         =      -0.323287


      Symmetry analysis of molecular orbitals - initial
      -------------------------------------------------

  Numbering of irreducible representations: 

     1 a1          2 a2          3 b1          4 b2      

  Orbital symmetries:

     1 a1          2 b1          3 a1          4 b1          5 a1      
     6 a1          7 a1          8 b1          9 b1         10 a1      
    11 b1         12 a1         13 b1         14 a1         15 a1      
    16 b1         17 a1         18 a1         19 b1         20 b1      
    21 a1         22 a1         23 b1         24 a1         25 b1      
    26 a1         27 b1         28 a1         29 b1         30 a1      
    31 b2         32 a1         33 b1         34 b1         35 a1      
    36 b1         37 a2         38 b2         39 a1         40 a1      
    41 b1         42 b2         43 b1         44 a1         45 a2      
    46 a2         47 b2         48 b2         49 a2         50 b2      
    51 a2         52 b2         53 b1         54 a1         55 a1      
    56 a1         57 a2      

   Time after variat. SCF:      3.6
   Time prior to 1st pass:      3.6

 Integral file          = ./molecule.aoints.0
 Record size in doubles =  65536        No. of integs per rec  =  43688
 Max. records in memory =      0        Max. records in file   =   4052
 No. of bits per label  =      8        No. of bits per value  =     64


 #quartets = 4.169D+06 #integrals = 4.442D+07 #direct =  0.0% #cached =100.0%


 Grid_pts file          = ./molecule.gridpts.0
 Record size in doubles =  12289        No. of grid_pts per rec  =   3070
 Max. records in memory =    104        Max. recs in file   =     16445


           Memory utilization after 1st SCF pass: 
           Heap Space remaining (MW):       11.82            11820714
          Stack Space remaining (MW):       13.11            13105156

   convergence    iter        energy       DeltaE   RMS-Dens  Diis-err    time
 ---------------- ----- ----------------- --------- --------- ---------  ------
 d= 0,ls=0.0,diis     1   -539.7475766018 -1.32D+03  7.60D-03  1.63D+00    22.6
 d= 0,ls=0.0,diis     2   -539.8605331980 -1.13D-01  3.79D-03  2.18D-01    26.4
 d= 0,ls=0.0,diis     3   -539.8581483163  2.38D-03  1.76D-03  2.31D-01    30.1
 d= 0,ls=0.0,diis     4   -539.8871381996 -2.90D-02  5.05D-04  1.03D-02    34.8
 d= 0,ls=0.0,diis     5   -539.8885212273 -1.38D-03  1.42D-04  1.27D-03    39.6
  Resetting Diis
 d= 0,ls=0.0,diis     6   -539.8886928662 -1.72D-04  4.35D-05  1.32D-04    44.4
 d= 0,ls=0.0,diis     7   -539.8887087456 -1.59D-05  4.17D-05  1.46D-05    49.1
 d= 0,ls=0.0,diis     8   -539.8887020373  6.71D-06  2.89D-05  6.12D-05    53.5
 d= 0,ls=0.0,diis     9   -539.8887106986 -8.66D-06  3.07D-06  6.59D-07    57.8
 d= 0,ls=0.0,diis    10   -539.8887107846 -8.59D-08  7.49D-07  2.91D-08    62.7


         Total DFT energy =     -539.888710784565
      One electron energy =    -2263.918926221041
           Coulomb energy =     1021.627625354097
    Exchange-Corr. energy =      -79.830461702833
 Nuclear repulsion energy =      782.233051785212

 Numeric. integr. density =       94.000044691912

     Total iterative time =     59.1s



                  Occupations of the irreducible representations
                  ----------------------------------------------

                     irrep           alpha         beta
                     --------     --------     --------
                     a1               22.0         22.0
                     a2                3.0          3.0
                     b1               18.0         18.0
                     b2                4.0          4.0


                       DFT Final Molecular Orbital Analysis
                       ------------------------------------

 Vector    1  Occ=2.000000D+00  E=-1.040109D+01  Symmetry=a1
              MO Center=  9.3D-17,  6.8D-21, -1.3D+00, r^2= 2.8D-02
   Bfn.  Coefficient  Atom+Function         Bfn.  Coefficient  Atom+Function  
  ----- ------------  ---------------      ----- ------------  ---------------
    91      0.992788   7 C  s                92      0.049783   7 C  s         

 Vector    2  Occ=2.000000D+00  E=-1.037393D+01  Symmetry=a1
              MO Center= -5.0D-10,  7.8D-20,  7.3D-01, r^2= 1.7D+00
   Bfn.  Coefficient  Atom+Function         Bfn.  Coefficient  Atom+Function  
  ----- ------------  ---------------      ----- ------------  ---------------
    46      0.701729   4 C  s               121      0.701729   9 C  s         
    47      0.035349   4 C  s               122      0.035349   9 C  s         

 Vector    3  Occ=2.000000D+00  E=-1.037393D+01  Symmetry=b1
              MO Center=  5.0D-10, -2.4D-31,  7.3D-01, r^2= 1.7D+00
   Bfn.  Coefficient  Atom+Function         Bfn.  Coefficient  Atom+Function  
  ----- ------------  ---------------      ----- ------------  ---------------
    46      0.701727   4 C  s               121     -0.701727   9 C  s         
    47      0.035225   4 C  s               122     -0.035225   9 C  s         

 Vector    4  Occ=2.000000D+00  E=-1.036572D+01  Symmetry=b1
              MO Center= -8.3D-16,  5.0D-34, -6.9D-01, r^2= 1.6D+00
   Bfn.  Coefficient  Atom+Function         Bfn.  Coefficient  Atom+Function  
  ----- ------------  ---------------      ----- ------------  ---------------
    31      0.701552   3 C  s               136     -0.701552  10 C  s         
    32      0.035475   3 C  s               137     -0.035475  10 C  s         

 Vector    5  Occ=2.000000D+00  E=-1.036571D+01  Symmetry=a1
              MO Center= -6.1D-17,  2.9D-20, -6.9D-01, r^2= 1.6D+00
   Bfn.  Coefficient  Atom+Function         Bfn.  Coefficient  Atom+Function  
  ----- ------------  ---------------      ----- ------------  ---------------
    31      0.701555   3 C  s               136      0.701555  10 C  s         
    32      0.035540   3 C  s               137      0.035540  10 C  s         

 Vector    6  Occ=2.000000D+00  E=-1.035734D+01  Symmetry=a1
              MO Center= -6.3D-15,  8.7D-19,  1.5D+00, r^2= 2.8D-02
   Bfn.  Coefficient  Atom+Function         Bfn.  Coefficient  Atom+Function  
  ----- ------------  ---------------      ----- ------------  ---------------
   106      0.993039   8 C  s               107      0.051331   8 C  s         
   111     -0.028507   8 C  s         

 Vector    7  Occ=2.000000D+00  E=-1.035646D+01  Symmetry=b1
              MO Center=  6.2D-15,  8.7D-33,  6.1D-01, r^2= 1.4D+01
   Bfn.  Coefficient  Atom+Function         Bfn.  Coefficient  Atom+Function  
  ----- ------------  ---------------      ----- ------------  ---------------
    76      0.701729   6 C  s               183     -0.701729  14 C  s         
    77      0.035200   6 C  s               184     -0.035200  14 C  s         

 Vector    8  Occ=2.000000D+00  E=-1.035646D+01  Symmetry=a1
              MO Center= -8.2D-16, -3.1D-24,  6.1D-01, r^2= 1.4D+01
   Bfn.  Coefficient  Atom+Function         Bfn.  Coefficient  Atom+Function  
  ----- ------------  ---------------      ----- ------------  ---------------
    76      0.701728   6 C  s               183      0.701728  14 C  s         
    77      0.035194   6 C  s               184      0.035194  14 C  s         

 Vector    9  Occ=2.000000D+00  E=-1.035537D+01  Symmetry=b1
              MO Center=  1.8D-08, -2.1D-19, -1.4D+00, r^2= 6.0D+00
   Bfn.  Coefficient  Atom+Function         Bfn.  Coefficient  Atom+Function  
  ----- ------------  ---------------      ----- ------------  ---------------
    16      0.701643   2 C  s               151     -0.701643  11 C  s         
    17      0.035322   2 C  s               152     -0.035322  11 C  s         

 Vector   10  Occ=2.000000D+00  E=-1.035537D+01  Symmetry=a1
              MO Center= -1.8D-08,  3.0D-25, -1.4D+00, r^2= 6.0D+00
   Bfn.  Coefficient  Atom+Function         Bfn.  Coefficient  Atom+Function  
  ----- ------------  ---------------      ----- ------------  ---------------
    16      0.701638   2 C  s               151      0.701638  11 C  s         
    17      0.035291   2 C  s               152      0.035291  11 C  s         

 Vector   11  Occ=2.000000D+00  E=-1.034394D+01  Symmetry=a1
              MO Center= -3.5D-16,  7.4D-24,  1.4D+00, r^2= 6.3D+00
   Bfn.  Coefficient  Atom+Function         Bfn.  Coefficient  Atom+Function  
  ----- ------------  ---------------      ----- ------------  ---------------
    61      0.701798   5 C  s               198      0.701798  15 C  s         
    62      0.035416   5 C  s               199      0.035416  15 C  s         

 Vector   12  Occ=2.000000D+00  E=-1.034394D+01  Symmetry=b1
              MO Center=  1.1D-15,  1.8D-34,  1.4D+00, r^2= 6.3D+00
   Bfn.  Coefficient  Atom+Function         Bfn.  Coefficient  Atom+Function  
  ----- ------------  ---------------      ----- ------------  ---------------
    61      0.701802   5 C  s               198     -0.701802  15 C  s         
    62      0.035441   5 C  s               199     -0.035441  15 C  s         

 Vector   13  Occ=2.000000D+00  E=-1.034133D+01  Symmetry=b1
              MO Center= -9.7D-16, -3.5D-34, -7.9D-01, r^2= 1.3D+01
   Bfn.  Coefficient  Atom+Function         Bfn.  Coefficient  Atom+Function  
  ----- ------------  ---------------      ----- ------------  ---------------
     1      0.701733   1 C  s               168     -0.701733  13 C  s         
     2      0.035398   1 C  s               169     -0.035398  13 C  s         

 Vector   14  Occ=2.000000D+00  E=-1.034133D+01  Symmetry=a1
              MO Center=  5.0D-15,  4.0D-24, -7.9D-01, r^2= 1.3D+01
   Bfn.  Coefficient  Atom+Function         Bfn.  Coefficient  Atom+Function  
  ----- ------------  ---------------      ----- ------------  ---------------
     1      0.701730   1 C  s               168      0.701730  13 C  s         
     2      0.035381   1 C  s               169      0.035381  13 C  s         

 Vector   15  Occ=2.000000D+00  E=-1.052215D+00  Symmetry=a1
              MO Center= -1.5D-16,  3.4D-19, -1.1D-01, r^2= 4.2D+00
   Bfn.  Coefficient  Atom+Function         Bfn.  Coefficient  Atom+Function  
  ----- ------------  ---------------      ----- ------------  ---------------
    32      0.177859   3 C  s               137      0.177859  10 C  s         
    92      0.162468   7 C  s                47      0.157187   4 C  s         
   122      0.157187   9 C  s                96      0.140137   7 C  s         
   107      0.114053   8 C  s                17      0.092627   2 C  s         
   152      0.092627  11 C  s                31     -0.091857   3 C  s         

 Vector   16  Occ=2.000000D+00  E=-1.016978D+00  Symmetry=b1
              MO Center= -1.8D-14,  3.6D-16, -5.1D-02, r^2= 7.8D+00
   Bfn.  Coefficient  Atom+Function         Bfn.  Coefficient  Atom+Function  
  ----- ------------  ---------------      ----- ------------  ---------------
    32      0.136758   3 C  s               137     -0.136758  10 C  s         
    47      0.133323   4 C  s               122     -0.133323   9 C  s         
    17      0.130049   2 C  s               152     -0.130049  11 C  s         
    62      0.126521   5 C  s               199     -0.126521  15 C  s         
    77      0.122015   6 C  s               184     -0.122015  14 C  s         

 Vector   17  Occ=2.000000D+00  E=-9.643253D-01  Symmetry=a1
              MO Center=  2.1D-14,  3.7D-17, -1.5D-01, r^2= 8.9D+00
   Bfn.  Coefficient  Atom+Function         Bfn.  Coefficient  Atom+Function  
  ----- ------------  ---------------      ----- ------------  ---------------
    92      0.204744   7 C  s                77     -0.167808   6 C  s         
   184     -0.167808  14 C  s                 2     -0.141290   1 C  s         
   169     -0.141290  13 C  s                62     -0.123458   5 C  s         
   199     -0.123458  15 C  s                81     -0.116348   6 C  s         
   188     -0.116348  14 C  s                96      0.115217   7 C  s         

 Vector   18  Occ=2.000000D+00  E=-9.546274D-01  Symmetry=a1
              MO Center= -2.2D-14, -1.4D-16,  2.4D-01, r^2= 5.3D+00
   Bfn.  Coefficient  Atom+Function         Bfn.  Coefficient  Atom+Function  
  ----- ------------  ---------------      ----- ------------  ---------------
   107      0.231234   8 C  s               111      0.176873   8 C  s         
    47      0.144851   4 C  s               122      0.144851   9 C  s         
    92     -0.133234   7 C  s                17     -0.131658   2 C  s         
   152     -0.131658  11 C  s               106     -0.120553   8 C  s         
     2     -0.096583   1 C  s               169     -0.096583  13 C  s         

 Vector   19  Occ=2.000000D+00  E=-9.129431D-01  Symmetry=b1
              MO Center=  2.8D-14, -1.4D-15, -3.0D-02, r^2= 8.3D+00
   Bfn.  Coefficient  Atom+Function         Bfn.  Coefficient  Atom+Function  
  ----- ------------  ---------------      ----- ------------  ---------------
    62     -0.180163   5 C  s               199      0.180163  15 C  s         
    17      0.178879   2 C  s               152     -0.178879  11 C  s         
    66     -0.132684   5 C  s               203      0.132684  15 C  s         
    21      0.130503   2 C  s               156     -0.130503  11 C  s         
    47     -0.104376   4 C  s               122      0.104376   9 C  s         

 Vector   20  Occ=2.000000D+00  E=-9.038113D-01  Symmetry=b1
              MO Center=  6.6D-15, -1.9D-31, -8.3D-02, r^2= 9.3D+00
   Bfn.  Coefficient  Atom+Function         Bfn.  Coefficient  Atom+Function  
  ----- ------------  ---------------      ----- ------------  ---------------
     2      0.166752   1 C  s               169     -0.166752  13 C  s         
    77      0.163480   6 C  s               184     -0.163480  14 C  s         
    32     -0.161899   3 C  s               137      0.161899  10 C  s         
    47     -0.154220   4 C  s               122      0.154220   9 C  s         
    81      0.125522   6 C  s               188     -0.125522  14 C  s         

 Vector   21  Occ=2.000000D+00  E=-8.658629D-01  Symmetry=a1
              MO Center=  3.3D-15,  1.6D-17,  1.2D-01, r^2= 8.9D+00
   Bfn.  Coefficient  Atom+Function         Bfn.  Coefficient  Atom+Function  
  ----- ------------  ---------------      ----- ------------  ---------------
   107      0.179302   8 C  s               111      0.175267   8 C  s         
    17      0.151712   2 C  s               152      0.151712  11 C  s         
    62     -0.148887   5 C  s               199     -0.148887  15 C  s         
    92     -0.142830   7 C  s                66     -0.124349   5 C  s         
   203     -0.124349  15 C  s                21      0.122010   2 C  s         

 Vector   22  Occ=2.000000D+00  E=-8.151028D-01  Symmetry=a1
              MO Center=  8.7D-17, -2.7D-18,  4.2D-02, r^2= 8.8D+00
   Bfn.  Coefficient  Atom+Function         Bfn.  Coefficient  Atom+Function  
  ----- ------------  ---------------      ----- ------------  ---------------
    92      0.170232   7 C  s               111      0.158403   8 C  s         
   107      0.155975   8 C  s                96      0.138877   7 C  s         
    77      0.135584   6 C  s               184      0.135584  14 C  s         
    33      0.132391   3 C  px              138     -0.132391  10 C  px        
    48      0.119836   4 C  px              123     -0.119836   9 C  px        

 Vector   23  Occ=2.000000D+00  E=-7.747285D-01  Symmetry=b1
              MO Center= -1.3D-14, -1.9D-31, -6.5D-02, r^2= 9.4D+00
   Bfn.  Coefficient  Atom+Function         Bfn.  Coefficient  Atom+Function  
  ----- ------------  ---------------      ----- ------------  ---------------
    93      0.179608   7 C  px               77     -0.145866   6 C  s         
   184      0.145866  14 C  s                63      0.144562   5 C  px        
   200      0.144562  15 C  px               18     -0.139471   2 C  px        
   153     -0.139471  11 C  px               32     -0.134496   3 C  s         
   137      0.134496  10 C  s                47      0.123336   4 C  s         

 Vector   24  Occ=2.000000D+00  E=-7.739315D-01  Symmetry=a1
              MO Center= -4.2D-14,  3.3D-16, -9.6D-02, r^2= 6.4D+00
   Bfn.  Coefficient  Atom+Function         Bfn.  Coefficient  Atom+Function  
  ----- ------------  ---------------      ----- ------------  ---------------
    35      0.164249   3 C  pz              140      0.164249  10 C  pz        
    50     -0.150081   4 C  pz              125     -0.150081   9 C  pz        
    95      0.145936   7 C  pz              111     -0.125580   8 C  s         
    62     -0.113097   5 C  s               199     -0.113097  15 C  s         
   110     -0.106864   8 C  pz              213     -0.104346  16 H  s         

 Vector   25  Occ=2.000000D+00  E=-7.515345D-01  Symmetry=b1
              MO Center=  2.0D-14,  1.5D-16, -4.9D-02, r^2= 9.7D+00
   Bfn.  Coefficient  Atom+Function         Bfn.  Coefficient  Atom+Function  
  ----- ------------  ---------------      ----- ------------  ---------------
    62      0.149638   5 C  s               199     -0.149638  15 C  s         
    17      0.148059   2 C  s               152     -0.148059  11 C  s         
    21      0.136744   2 C  s               156     -0.136744  11 C  s         
    66      0.131524   5 C  s               203     -0.131524  15 C  s         
    35     -0.129548   3 C  pz              140      0.129548  10 C  pz        

 Vector   26  Occ=2.000000D+00  E=-7.021895D-01  Symmetry=a1
              MO Center= -2.0D-15,  5.3D-19, -1.0D-01, r^2= 1.1D+01
   Bfn.  Coefficient  Atom+Function         Bfn.  Coefficient  Atom+Function  
  ----- ------------  ---------------      ----- ------------  ---------------
    96      0.245149   7 C  s               111     -0.217418   8 C  s         
    18     -0.154739   2 C  px              153      0.154739  11 C  px        
     6      0.145590   1 C  s               173      0.145590  13 C  s         
    63      0.144457   5 C  px              200     -0.144457  15 C  px        
     2      0.131664   1 C  s                81     -0.132281   6 C  s         

 Vector   27  Occ=2.000000D+00  E=-6.807138D-01  Symmetry=b1
              MO Center= -4.2D-14,  6.1D-17, -7.1D-02, r^2= 9.8D+00
   Bfn.  Coefficient  Atom+Function         Bfn.  Coefficient  Atom+Function  
  ----- ------------  ---------------      ----- ------------  ---------------
    93      0.194519   7 C  px              108      0.155194   8 C  px        
     3      0.143881   1 C  px              170      0.143881  13 C  px        
    33     -0.138967   3 C  px              138     -0.138967  10 C  px        
    78      0.136811   6 C  px              185      0.136811  14 C  px        
    65     -0.124333   5 C  pz              202      0.124333  15 C  pz        

 Vector   28  Occ=2.000000D+00  E=-6.643937D-01  Symmetry=a1
              MO Center=  3.9D-14, -1.2D-16, -2.2D-01, r^2= 9.5D+00
   Bfn.  Coefficient  Atom+Function         Bfn.  Coefficient  Atom+Function  
  ----- ------------  ---------------      ----- ------------  ---------------
    95      0.201072   7 C  pz               80      0.148063   6 C  pz        
   187      0.148063  14 C  pz                5     -0.139095   1 C  pz        
   172     -0.139095  13 C  pz               20     -0.125532   2 C  pz        
   155     -0.125532  11 C  pz              213     -0.123649  16 H  s         
    65      0.118208   5 C  pz              202      0.118208  15 C  pz        

 Vector   29  Occ=2.000000D+00  E=-6.214317D-01  Symmetry=a1
              MO Center= -3.8D-14,  2.3D-15, -1.9D-01, r^2= 1.2D+01
   Bfn.  Coefficient  Atom+Function         Bfn.  Coefficient  Atom+Function  
  ----- ------------  ---------------      ----- ------------  ---------------
    78      0.193184   6 C  px              185     -0.193184  14 C  px        
    96      0.191170   7 C  s                 3      0.180817   1 C  px        
   170     -0.180817  13 C  px               95      0.161838   7 C  pz        
    51     -0.142731   4 C  s               126     -0.142731   9 C  s         
    18     -0.130157   2 C  px               20      0.130218   2 C  pz        

 Vector   30  Occ=2.000000D+00  E=-6.170500D-01  Symmetry=b1
              MO Center=  1.0D-13,  1.1D-17, -1.6D-01, r^2= 1.2D+01
   Bfn.  Coefficient  Atom+Function         Bfn.  Coefficient  Atom+Function  
  ----- ------------  ---------------      ----- ------------  ---------------
    93      0.216049   7 C  px               51      0.163283   4 C  s         
   126     -0.163283   9 C  s                66     -0.148558   5 C  s         
   203      0.148558  15 C  s                 6     -0.134329   1 C  s         
   173      0.134329  13 C  s                21      0.133187   2 C  s         
   156     -0.133187  11 C  s               221      0.126257  20 H  s         

 Vector   31  Occ=2.000000D+00  E=-6.097221D-01  Symmetry=b1
              MO Center= -2.0D-14,  9.6D-17,  1.4D-02, r^2= 9.5D+00
   Bfn.  Coefficient  Atom+Function         Bfn.  Coefficient  Atom+Function  
  ----- ------------  ---------------      ----- ------------  ---------------
    50      0.205299   4 C  pz              125     -0.205299   9 C  pz        
     5      0.200938   1 C  pz              172     -0.200938  13 C  pz        
    35     -0.170810   3 C  pz              140      0.170810  10 C  pz        
    80     -0.162810   6 C  pz              187      0.162810  14 C  pz        
    36     -0.161769   3 C  s               141      0.161769  10 C  s         

 Vector   32  Occ=2.000000D+00  E=-6.081933D-01  Symmetry=b2
              MO Center=  1.8D-18, -2.6D-15,  1.2D+00, r^2= 2.7D+00
   Bfn.  Coefficient  Atom+Function         Bfn.  Coefficient  Atom+Function  
  ----- ------------  ---------------      ----- ------------  ---------------
   109      0.371607   8 C  py              113      0.181959   8 C  py        
   223      0.173809  21 H  s               231     -0.173809  25 H  s         
    49      0.165739   4 C  py              124      0.165739   9 C  py        
   224      0.112913  21 H  s               232     -0.112913  25 H  s         
    34      0.104542   3 C  py              139      0.104542  10 C  py        

 Vector   33  Occ=2.000000D+00  E=-6.073203D-01  Symmetry=a1
              MO Center=  1.5D-14, -1.5D-16, -2.1D-02, r^2= 8.8D+00
   Bfn.  Coefficient  Atom+Function         Bfn.  Coefficient  Atom+Function  
  ----- ------------  ---------------      ----- ------------  ---------------
    95      0.192665   7 C  pz              110      0.190876   8 C  pz        
    36      0.185700   3 C  s               141      0.185700  10 C  s         
    65      0.157166   5 C  pz              202      0.157166  15 C  pz        
   213     -0.143584  16 H  s               214     -0.117496  16 H  s         
    18      0.112481   2 C  px              153     -0.112481  11 C  px        

 Vector   34  Occ=2.000000D+00  E=-5.797374D-01  Symmetry=b1
              MO Center=  3.7D-16, -3.3D-32,  6.9D-02, r^2= 1.0D+01
   Bfn.  Coefficient  Atom+Function         Bfn.  Coefficient  Atom+Function  
  ----- ------------  ---------------      ----- ------------  ---------------
    65      0.225783   5 C  pz              202     -0.225783  15 C  pz        
    20      0.214581   2 C  pz              155     -0.214581  11 C  pz        
    78     -0.133966   6 C  px              185     -0.133966  14 C  px        
    33     -0.125297   3 C  px              138     -0.125297  10 C  px        
    48      0.120569   4 C  px              123      0.120569   9 C  px        

 Vector   35  Occ=2.000000D+00  E=-5.714862D-01  Symmetry=a1
              MO Center= -3.3D-15,  1.7D-16, -9.5D-02, r^2= 7.7D+00
   Bfn.  Coefficient  Atom+Function         Bfn.  Coefficient  Atom+Function  
  ----- ------------  ---------------      ----- ------------  ---------------
    95      0.240215   7 C  pz              110      0.200042   8 C  pz        
    20     -0.191037   2 C  pz              155     -0.191037  11 C  pz        
    65     -0.188401   5 C  pz              202     -0.188401  15 C  pz        
    48     -0.143006   4 C  px              123      0.143006   9 C  px        
   213     -0.140576  16 H  s                99      0.126097   7 C  pz        

 Vector   36  Occ=2.000000D+00  E=-5.643446D-01  Symmetry=b1
              MO Center= -2.1D-14,  3.0D-17, -9.6D-02, r^2= 8.9D+00
   Bfn.  Coefficient  Atom+Function         Bfn.  Coefficient  Atom+Function  
  ----- ------------  ---------------      ----- ------------  ---------------
   108      0.220705   8 C  px               48     -0.198510   4 C  px        
   123     -0.198510   9 C  px                3     -0.196066   1 C  px        
   170     -0.196066  13 C  px               33     -0.194911   3 C  px        
   138     -0.194911  10 C  px               93      0.190092   7 C  px        
    18      0.161917   2 C  px              153      0.161917  11 C  px        

 Vector   37  Occ=2.000000D+00  E=-5.514566D-01  Symmetry=a1
              MO Center=  8.7D-16, -3.4D-18,  5.2D-02, r^2= 1.1D+01
   Bfn.  Coefficient  Atom+Function         Bfn.  Coefficient  Atom+Function  
  ----- ------------  ---------------      ----- ------------  ---------------
     5      0.207950   1 C  pz              172      0.207950  13 C  pz        
   110     -0.206185   8 C  pz               80     -0.196731   6 C  pz        
   187     -0.196731  14 C  pz               50      0.152161   4 C  pz        
    95      0.151598   7 C  pz              125      0.152161   9 C  pz        
    35     -0.120023   3 C  pz              140     -0.120023  10 C  pz        

 Vector   38  Occ=2.000000D+00  E=-5.320997D-01  Symmetry=b2
              MO Center= -5.1D-14,  1.1D-16, -1.8D-01, r^2= 5.7D+00
   Bfn.  Coefficient  Atom+Function         Bfn.  Coefficient  Atom+Function  
  ----- ------------  ---------------      ----- ------------  ---------------
    94      0.229426   7 C  py              109     -0.228458   8 C  py        
    34      0.213518   3 C  py              139      0.213518  10 C  py        
    19      0.149461   2 C  py              154      0.149461  11 C  py        
    98      0.132144   7 C  py              223     -0.125181  21 H  s         
   231      0.125181  25 H  s               113     -0.120943   8 C  py        

 Vector   39  Occ=2.000000D+00  E=-5.264591D-01  Symmetry=a1
              MO Center= -2.9D-14,  6.3D-16,  7.8D-02, r^2= 1.5D+01
   Bfn.  Coefficient  Atom+Function         Bfn.  Coefficient  Atom+Function  
  ----- ------------  ---------------      ----- ------------  ---------------
    96      0.242926   7 C  s                78     -0.212995   6 C  px        
   185      0.212995  14 C  px                3      0.199263   1 C  px        
   170     -0.199263  13 C  px              111     -0.192025   8 C  s         
    18     -0.176713   2 C  px              153      0.176713  11 C  px        
    63      0.158815   5 C  px              200     -0.158815  15 C  px        

 Vector   40  Occ=2.000000D+00  E=-5.241735D-01  Symmetry=a2
              MO Center=  4.9D-14, -3.3D-16, -1.7D-02, r^2= 8.4D+00
   Bfn.  Coefficient  Atom+Function         Bfn.  Coefficient  Atom+Function  
  ----- ------------  ---------------      ----- ------------  ---------------
    49      0.170590   4 C  py              124     -0.170590   9 C  py        
    34      0.168606   3 C  py              139     -0.168606  10 C  py        
    64      0.159868   5 C  py              201     -0.159868  15 C  py        
    19      0.157615   2 C  py              154     -0.157615  11 C  py        
    79      0.152959   6 C  py              186     -0.152959  14 C  py        

 Vector   41  Occ=2.000000D+00  E=-5.059149D-01  Symmetry=b1
              MO Center=  1.4D-14, -7.2D-30,  5.8D-02, r^2= 1.2D+01
   Bfn.  Coefficient  Atom+Function         Bfn.  Coefficient  Atom+Function  
  ----- ------------  ---------------      ----- ------------  ---------------
    80     -0.204395   6 C  pz              187      0.204395  14 C  pz        
     5      0.203322   1 C  pz              172     -0.203322  13 C  pz        
    65      0.165219   5 C  pz              202     -0.165219  15 C  pz        
    20     -0.158593   2 C  pz              155      0.158593  11 C  pz        
    50     -0.142256   4 C  pz              125      0.142256   9 C  pz        

 Vector   42  Occ=2.000000D+00  E=-4.896217D-01  Symmetry=b1
              MO Center=  2.4D-13,  8.1D-17,  9.3D-02, r^2= 1.0D+01
   Bfn.  Coefficient  Atom+Function         Bfn.  Coefficient  Atom+Function  
  ----- ------------  ---------------      ----- ------------  ---------------
   108      0.234370   8 C  px               63      0.197010   5 C  px        
   200      0.197010  15 C  px               48     -0.194473   4 C  px        
   123     -0.194473   9 C  px               18     -0.181944   2 C  px        
   153     -0.181944  11 C  px               78     -0.175537   6 C  px        
   185     -0.175537  14 C  px               93     -0.170898   7 C  px        

 Vector   43  Occ=2.000000D+00  E=-4.893682D-01  Symmetry=a1
              MO Center= -2.4D-13, -1.7D-16,  8.0D-02, r^2= 8.3D+00
   Bfn.  Coefficient  Atom+Function         Bfn.  Coefficient  Atom+Function  
  ----- ------------  ---------------      ----- ------------  ---------------
    35      0.217504   3 C  pz              140      0.217504  10 C  pz        
    50     -0.215858   4 C  pz              125     -0.215858   9 C  pz        
   110      0.184801   8 C  pz              111     -0.143804   8 C  s         
    65      0.142449   5 C  pz               80     -0.143076   6 C  pz        
   187     -0.143076  14 C  pz              202      0.142449  15 C  pz        

 Vector   44  Occ=2.000000D+00  E=-4.614812D-01  Symmetry=b2
              MO Center= -1.5D-14, -3.2D-16, -4.9D-02, r^2= 1.0D+01
   Bfn.  Coefficient  Atom+Function         Bfn.  Coefficient  Atom+Function  
  ----- ------------  ---------------      ----- ------------  ---------------
    94     -0.251286   7 C  py               79      0.230607   6 C  py        
   186      0.230607  14 C  py               98     -0.178340   7 C  py        
     4      0.173278   1 C  py              171      0.173278  13 C  py        
    64      0.169664   5 C  py              201      0.169664  15 C  py        
    34     -0.146259   3 C  py              139     -0.146259  10 C  py        

 Vector   45  Occ=2.000000D+00  E=-4.143104D-01  Symmetry=a2
              MO Center= -1.4D-14,  9.7D-16, -6.6D-02, r^2= 8.9D+00
   Bfn.  Coefficient  Atom+Function         Bfn.  Coefficient  Atom+Function  
  ----- ------------  ---------------      ----- ------------  ---------------
    19      0.232056   2 C  py              154     -0.232056  11 C  py        
    64     -0.218087   5 C  py              201      0.218087  15 C  py        
    49     -0.199534   4 C  py              124      0.199534   9 C  py        
     4      0.186138   1 C  py              171     -0.186138  13 C  py        
    23      0.158298   2 C  py              158     -0.158298  11 C  py        

 Vector   46  Occ=2.000000D+00  E=-4.030970D-01  Symmetry=a2
              MO Center=  6.8D-15,  1.5D-16, -2.9D-02, r^2= 9.1D+00
   Bfn.  Coefficient  Atom+Function         Bfn.  Coefficient  Atom+Function  
  ----- ------------  ---------------      ----- ------------  ---------------
    34      0.254489   3 C  py              139     -0.254489  10 C  py        
    79     -0.243641   6 C  py              186      0.243641  14 C  py        
    38      0.177381   3 C  py              143     -0.177381  10 C  py        
    83     -0.166371   6 C  py              190      0.166371  14 C  py        
     4     -0.155772   1 C  py              171      0.155772  13 C  py        

 Vector   47  Occ=2.000000D+00  E=-3.984395D-01  Symmetry=b2
              MO Center=  2.4D-14,  2.6D-16,  9.3D-02, r^2= 9.0D+00
   Bfn.  Coefficient  Atom+Function         Bfn.  Coefficient  Atom+Function  
  ----- ------------  ---------------      ----- ------------  ---------------
    64      0.219979   5 C  py              201      0.219979  15 C  py        
    19     -0.216518   2 C  py              154     -0.216518  11 C  py        
     4     -0.197704   1 C  py              171     -0.197704  13 C  py        
    49      0.183533   4 C  py              124      0.183533   9 C  py        
    23     -0.158607   2 C  py              158     -0.158607  11 C  py        

 Vector   48  Occ=0.000000D+00  E=-2.727899D-01  Symmetry=b2
              MO Center= -2.7D-15, -1.5D-16, -3.3D-01, r^2= 6.9D+00
   Bfn.  Coefficient  Atom+Function         Bfn.  Coefficient  Atom+Function  
  ----- ------------  ---------------      ----- ------------  ---------------
    94      0.384402   7 C  py               98      0.353099   7 C  py        
    79      0.212562   6 C  py              186      0.212562  14 C  py        
    49     -0.211183   4 C  py              124     -0.211183   9 C  py        
    83      0.187040   6 C  py              190      0.187040  14 C  py        
    19     -0.183450   2 C  py              154     -0.183450  11 C  py        

 Vector   49  Occ=0.000000D+00  E=-1.667376D-01  Symmetry=a2
              MO Center=  2.1D-14, -2.5D-16, -5.4D-02, r^2= 9.0D+00
   Bfn.  Coefficient  Atom+Function         Bfn.  Coefficient  Atom+Function  
  ----- ------------  ---------------      ----- ------------  ---------------
    38      0.324086   3 C  py              143     -0.324086  10 C  py        
    83      0.296624   6 C  py              190     -0.296624  14 C  py        
    34      0.270763   3 C  py              139     -0.270763  10 C  py        
    53     -0.260265   4 C  py              128      0.260265   9 C  py        
    79      0.243752   6 C  py              186     -0.243752  14 C  py        

 Vector   50  Occ=0.000000D+00  E=-1.631588D-01  Symmetry=b2
              MO Center= -4.7D-15,  6.0D-17,  2.2D-01, r^2= 9.3D+00
   Bfn.  Coefficient  Atom+Function         Bfn.  Coefficient  Atom+Function  
  ----- ------------  ---------------      ----- ------------  ---------------
   224      0.314389  21 H  s               232     -0.314389  25 H  s         
    68      0.311661   5 C  py              205      0.311661  15 C  py        
    23      0.296336   2 C  py              158      0.296336  11 C  py        
     8     -0.249428   1 C  py              175     -0.249428  13 C  py        
    64      0.234071   5 C  py              201      0.234071  15 C  py        

 Vector   51  Occ=0.000000D+00  E=-1.491145D-01  Symmetry=a2
              MO Center= -1.7D-15, -2.2D-16, -2.1D-02, r^2= 9.6D+00
   Bfn.  Coefficient  Atom+Function         Bfn.  Coefficient  Atom+Function  
  ----- ------------  ---------------      ----- ------------  ---------------
    68      0.330498   5 C  py              205     -0.330498  15 C  py        
    23      0.324533   2 C  py              158     -0.324533  11 C  py        
    64      0.260958   5 C  py              201     -0.260958  15 C  py        
    19      0.254841   2 C  py              154     -0.254841  11 C  py        
     8     -0.234724   1 C  py              175      0.234724  13 C  py        

 Vector   52  Occ=0.000000D+00  E=-9.843990D-02  Symmetry=b2
              MO Center= -1.2D-14,  1.8D-16, -2.3D-01, r^2= 9.7D+00
   Bfn.  Coefficient  Atom+Function         Bfn.  Coefficient  Atom+Function  
  ----- ------------  ---------------      ----- ------------  ---------------
    98      0.423651   7 C  py               83     -0.358857   6 C  py        
   190     -0.358857  14 C  py               38     -0.331764   3 C  py        
   143     -0.331764  10 C  py               94      0.301938   7 C  py        
     8      0.284103   1 C  py              175      0.284103  13 C  py        
    79     -0.249062   6 C  py              186     -0.249062  14 C  py        

 Vector   53  Occ=0.000000D+00  E=-4.229692D-02  Symmetry=a1
              MO Center= -2.3D-13,  5.5D-18, -2.0D+00, r^2= 9.5D+00
   Bfn.  Coefficient  Atom+Function         Bfn.  Coefficient  Atom+Function  
  ----- ------------  ---------------      ----- ------------  ---------------
   214      1.288734  16 H  s                99      0.837046   7 C  pz        
   167      0.777523  12 H  s               218      0.777523  18 H  s         
    96     -0.618918   7 C  s                24      0.488084   2 C  pz        
   159      0.488084  11 C  pz              216      0.424563  17 H  s         
   226      0.424563  22 H  s                21     -0.390024   2 C  s         

 Vector   54  Occ=0.000000D+00  E=-3.518262D-02  Symmetry=b1
              MO Center=  4.2D-13, -1.4D-16,  3.6D-02, r^2= 1.8D+01
   Bfn.  Coefficient  Atom+Function         Bfn.  Coefficient  Atom+Function  
  ----- ------------  ---------------      ----- ------------  ---------------
   167      0.647395  12 H  s               218     -0.647395  18 H  s         
   220     -0.632401  19 H  s               230      0.632401  24 H  s         
   222     -0.581320  20 H  s               228      0.581320  23 H  s         
   216     -0.548248  17 H  s               226      0.548248  22 H  s         
    21      0.497639   2 C  s               156     -0.497639  11 C  s         

 Vector   55  Occ=0.000000D+00  E=-3.206626D-02  Symmetry=a1
              MO Center= -1.8D-13,  1.8D-16,  1.7D+00, r^2= 9.6D+00
   Bfn.  Coefficient  Atom+Function         Bfn.  Coefficient  Atom+Function  
  ----- ------------  ---------------      ----- ------------  ---------------
   111      1.386110   8 C  s               224     -0.934955  21 H  s         
   232     -0.934955  25 H  s               220     -0.768814  19 H  s         
   230     -0.768814  24 H  s               114      0.577082   8 C  pz        
    69      0.531984   5 C  pz              206      0.531984  15 C  pz        
    81      0.479897   6 C  s               188      0.479897  14 C  s         

 Vector   56  Occ=0.000000D+00  E=-1.474934D-02  Symmetry=a1
              MO Center= -1.2D-14, -2.3D-16,  5.2D-01, r^2= 1.2D+01
   Bfn.  Coefficient  Atom+Function         Bfn.  Coefficient  Atom+Function  
  ----- ------------  ---------------      ----- ------------  ---------------
   111      1.546329   8 C  s               214     -0.889919  16 H  s         
   224     -0.879401  21 H  s               232     -0.879401  25 H  s         
    96      0.790852   7 C  s               222      0.543405  20 H  s         
   228      0.543405  23 H  s                81     -0.496980   6 C  s         
   188     -0.496980  14 C  s                 6     -0.451233   1 C  s         

 Vector   57  Occ=0.000000D+00  E=-7.965732D-03  Symmetry=b2
              MO Center=  2.2D-16, -3.5D-17,  5.5D-01, r^2= 7.7D+00
   Bfn.  Coefficient  Atom+Function         Bfn.  Coefficient  Atom+Function  
  ----- ------------  ---------------      ----- ------------  ---------------
   224      0.946676  21 H  s               232     -0.946676  25 H  s         
   113     -0.796546   8 C  py               38      0.366832   3 C  py        
   143      0.366832  10 C  py               98     -0.359268   7 C  py        
    23     -0.337930   2 C  py              158     -0.337930  11 C  py        
     8      0.285501   1 C  py              175      0.285501  13 C  py        

 Vector   58  Occ=0.000000D+00  E= 4.368495D-03  Symmetry=a2
              MO Center=  4.4D-16, -2.1D-15, -1.6D-02, r^2= 1.0D+01
   Bfn.  Coefficient  Atom+Function         Bfn.  Coefficient  Atom+Function  
  ----- ------------  ---------------      ----- ------------  ---------------
     8      0.389067   1 C  py              175     -0.389067  13 C  py        
    83     -0.383126   6 C  py              190      0.383126  14 C  py        
    68      0.373925   5 C  py              205     -0.373925  15 C  py        
    23     -0.361018   2 C  py              158      0.361018  11 C  py        
    53     -0.332559   4 C  py              128      0.332559   9 C  py        

 Vector   59  Occ=0.000000D+00  E= 1.124811D-02  Symmetry=b1
              MO Center= -1.1D-13,  1.4D-15, -1.5D-01, r^2= 1.6D+01
   Bfn.  Coefficient  Atom+Function         Bfn.  Coefficient  Atom+Function  
  ----- ------------  ---------------      ----- ------------  ---------------
   167      1.055355  12 H  s               218     -1.055355  18 H  s         
   220      0.997719  19 H  s               230     -0.997719  24 H  s         
    24     -0.636144   2 C  pz              159      0.636144  11 C  pz        
    69     -0.596262   5 C  pz              206      0.596262  15 C  pz        
    21      0.564142   2 C  s               156     -0.564142  11 C  s         

 Vector   60  Occ=0.000000D+00  E= 2.711531D-02  Symmetry=b1
              MO Center= -1.6D-14,  3.1D-16,  5.8D-01, r^2= 1.8D+01
   Bfn.  Coefficient  Atom+Function         Bfn.  Coefficient  Atom+Function  
  ----- ------------  ---------------      ----- ------------  ---------------
    81      1.146605   6 C  s               188     -1.146605  14 C  s         
   112     -0.976862   8 C  px              222     -0.978483  20 H  s         
   228      0.978483  23 H  s                51     -0.936123   4 C  s         
   126      0.936123   9 C  s                21     -0.597425   2 C  s         
   156      0.597425  11 C  s               216     -0.519170  17 H  s         

 Vector   61  Occ=0.000000D+00  E= 3.441223D-02  Symmetry=a1
              MO Center=  1.3D-13, -2.1D-16, -5.3D-01, r^2= 1.8D+01
   Bfn.  Coefficient  Atom+Function         Bfn.  Coefficient  Atom+Function  
  ----- ------------  ---------------      ----- ------------  ---------------
    96     -0.861080   7 C  s               216     -0.860012  17 H  s         
   226     -0.860012  22 H  s                 6      0.846023   1 C  s         
   173      0.846023  13 C  s               214      0.825416  16 H  s         
   111      0.794634   8 C  s                81     -0.684321   6 C  s         
   188     -0.684321  14 C  s               222      0.676586  20 H  s         

 Vector   62  Occ=0.000000D+00  E= 4.199062D-02  Symmetry=b1
              MO Center=  5.5D-13,  5.6D-17, -8.9D-01, r^2= 1.6D+01
   Bfn.  Coefficient  Atom+Function         Bfn.  Coefficient  Atom+Function  
  ----- ------------  ---------------      ----- ------------  ---------------
    36      1.403703   3 C  s               141     -1.403703  10 C  s         
     6     -1.246458   1 C  s               173      1.246458  13 C  s         
    97      1.176223   7 C  px              216      1.050075  17 H  s         
   226     -1.050075  22 H  s                51     -0.931379   4 C  s         
   126      0.931379   9 C  s                22     -0.739598   2 C  px        

 Vector   63  Occ=0.000000D+00  E= 4.548096D-02  Symmetry=a1
              MO Center= -5.4D-13,  4.6D-17,  6.9D-01, r^2= 1.7D+01
   Bfn.  Coefficient  Atom+Function         Bfn.  Coefficient  Atom+Function  
  ----- ------------  ---------------      ----- ------------  ---------------
    21      1.219716   2 C  s               156      1.219716  11 C  s         
   220     -1.048350  19 H  s               230     -1.048350  24 H  s         
    66      0.879986   5 C  s               203      0.879986  15 C  s         
   222      0.680863  20 H  s               228      0.680863  23 H  s         
    81     -0.643293   6 C  s               188     -0.643293  14 C  s         

 Vector   64  Occ=0.000000D+00  E= 5.895376D-02  Symmetry=a1
              MO Center=  4.7D-14, -2.5D-16, -3.6D-01, r^2= 1.5D+01
   Bfn.  Coefficient  Atom+Function         Bfn.  Coefficient  Atom+Function  
  ----- ------------  ---------------      ----- ------------  ---------------
   111     -1.339877   8 C  s                52      1.298897   4 C  px        
   127     -1.298897   9 C  px              114      1.208319   8 C  pz        
   167     -0.976887  12 H  s               218     -0.976887  18 H  s         
   216      0.897177  17 H  s               226      0.897177  22 H  s         
    24     -0.853354   2 C  pz              159     -0.853354  11 C  pz        

 Vector   65  Occ=0.000000D+00  E= 7.973131D-02  Symmetry=b2
              MO Center= -7.7D-16,  2.9D-16,  1.2D+00, r^2= 6.1D+00
   Bfn.  Coefficient  Atom+Function         Bfn.  Coefficient  Atom+Function  
  ----- ------------  ---------------      ----- ------------  ---------------
   113      1.139384   8 C  py              224     -1.142783  21 H  s         
   232      1.142783  25 H  s                53     -0.549514   4 C  py        
   128     -0.549514   9 C  py              109      0.408056   8 C  py        
    38      0.403340   3 C  py              143      0.403340  10 C  py        
    98     -0.333317   7 C  py               68      0.314438   5 C  py        

 Vector   66  Occ=0.000000D+00  E= 8.142482D-02  Symmetry=b1
              MO Center=  2.1D-14,  6.7D-16,  4.8D-01, r^2= 1.7D+01
   Bfn.  Coefficient  Atom+Function         Bfn.  Coefficient  Atom+Function  
  ----- ------------  ---------------      ----- ------------  ---------------
   222      1.059431  20 H  s               228     -1.059431  23 H  s         
   112     -0.986622   8 C  px                7     -0.919105   1 C  px        
   174     -0.919105  13 C  px               82      0.912580   6 C  px        
   189      0.912580  14 C  px              216     -0.894207  17 H  s         
   226      0.894207  22 H  s                97      0.868366   7 C  px        

 Vector   67  Occ=0.000000D+00  E= 8.392606D-02  Symmetry=a1
              MO Center= -1.4D-14,  9.3D-17,  6.5D-01, r^2= 1.1D+01
   Bfn.  Coefficient  Atom+Function         Bfn.  Coefficient  Atom+Function  
  ----- ------------  ---------------      ----- ------------  ---------------
   111      1.200923   8 C  s                51     -0.976387   4 C  s         
   126     -0.976387   9 C  s                82     -0.868225   6 C  px        
   189      0.868225  14 C  px              222     -0.870990  20 H  s         
   228     -0.870990  23 H  s                66      0.798298   5 C  s         
   203      0.798298  15 C  s                96      0.698142   7 C  s         

 Vector   68  Occ=0.000000D+00  E= 1.221286D-01  Symmetry=a1
              MO Center= -9.2D-14, -4.5D-16, -4.1D-01, r^2= 1.1D+01
   Bfn.  Coefficient  Atom+Function         Bfn.  Coefficient  Atom+Function  
  ----- ------------  ---------------      ----- ------------  ---------------
    21      1.284172   2 C  s               156      1.284172  11 C  s         
    81     -1.081936   6 C  s               188     -1.081936  14 C  s         
    96      0.984741   7 C  s                39      0.854097   3 C  pz        
   144      0.854097  10 C  pz                9      0.836994   1 C  pz        
   176      0.836994  13 C  pz                6      0.800392   1 C  s         

 Vector   69  Occ=0.000000D+00  E= 1.437620D-01  Symmetry=a1
              MO Center=  9.5D-15, -4.6D-17, -2.5D-02, r^2= 1.2D+01
   Bfn.  Coefficient  Atom+Function         Bfn.  Coefficient  Atom+Function  
  ----- ------------  ---------------      ----- ------------  ---------------
    96      1.613202   7 C  s                52      1.371226   4 C  px        
   127     -1.371226   9 C  px              111     -1.258951   8 C  s         
    51     -1.054469   4 C  s               126     -1.054469   9 C  s         
    67      0.967275   5 C  px              204     -0.967275  15 C  px        
     7     -0.928452   1 C  px              174      0.928452  13 C  px        

 Vector   70  Occ=0.000000D+00  E= 1.479180D-01  Symmetry=b1
              MO Center=  6.3D-14,  2.1D-17, -2.6D-01, r^2= 9.2D+00
   Bfn.  Coefficient  Atom+Function         Bfn.  Coefficient  Atom+Function  
  ----- ------------  ---------------      ----- ------------  ---------------
[...]
    21     -4.253175   2 C  s               156      4.253175  11 C  s         
    66      4.204933   5 C  s               203     -4.204933  15 C  s         
     6      3.892474   1 C  s               173     -3.892474  13 C  s         
    81     -3.776009   6 C  s               188      3.776009  14 C  s         
    36      3.259616   3 C  s               141     -3.259616  10 C  s         

 Vector  214  Occ=0.000000D+00  E= 2.880637D+00  Symmetry=a1
              MO Center= -1.0D-13,  8.8D-17, -1.8D-01, r^2= 6.0D+00
   Bfn.  Coefficient  Atom+Function         Bfn.  Coefficient  Atom+Function  
  ----- ------------  ---------------      ----- ------------  ---------------
    36      7.052099   3 C  s                96     -7.086333   7 C  s         
   141      7.052099  10 C  s                51     -5.519086   4 C  s         
   126     -5.519086   9 C  s                99     -3.205236   7 C  pz        
   111      3.028861   8 C  s                66      2.641260   5 C  s         
    81     -2.643878   6 C  s               188     -2.643878  14 C  s         

 Vector  215  Occ=0.000000D+00  E= 2.927234D+00  Symmetry=b1
              MO Center=  2.6D-14,  1.2D-18, -1.5D-01, r^2= 7.2D+00
   Bfn.  Coefficient  Atom+Function         Bfn.  Coefficient  Atom+Function  
  ----- ------------  ---------------      ----- ------------  ---------------
    66     -3.236376   5 C  s               203      3.236376  15 C  s         
    21      2.959531   2 C  s               156     -2.959531  11 C  s         
     6     -2.675291   1 C  s               173      2.675291  13 C  s         
    81      2.566017   6 C  s               188     -2.566017  14 C  s         
    39      2.246289   3 C  pz              144     -2.246289  10 C  pz        

 Vector  216  Occ=0.000000D+00  E= 3.134144D+00  Symmetry=a1
              MO Center= -5.2D-15,  2.6D-19, -1.8D-01, r^2= 6.4D+00
   Bfn.  Coefficient  Atom+Function         Bfn.  Coefficient  Atom+Function  
  ----- ------------  ---------------      ----- ------------  ---------------
    36      3.049361   3 C  s               141      3.049361  10 C  s         
    51     -2.580606   4 C  s               126     -2.580606   9 C  s         
    81     -2.316467   6 C  s               188     -2.316467  14 C  s         
    66      2.228306   5 C  s               203      2.228306  15 C  s         
     6      2.149107   1 C  s               173      2.149107  13 C  s         

 Vector  217  Occ=0.000000D+00  E= 3.288613D+00  Symmetry=a1
              MO Center= -1.0D-14, -3.0D-18, -9.4D-02, r^2= 7.2D+00
   Bfn.  Coefficient  Atom+Function         Bfn.  Coefficient  Atom+Function  
  ----- ------------  ---------------      ----- ------------  ---------------
    21     -2.539914   2 C  s               156     -2.539914  11 C  s         
     6      2.443961   1 C  s               173      2.443961  13 C  s         
    66      2.422777   5 C  s               203      2.422777  15 C  s         
    81     -2.337050   6 C  s                96      2.332552   7 C  s         
   188     -2.337050  14 C  s                37     -2.082927   3 C  px        

 Vector  218  Occ=0.000000D+00  E= 3.302614D+00  Symmetry=b1
              MO Center= -3.6D-14, -3.4D-19, -5.1D-02, r^2= 8.3D+00
   Bfn.  Coefficient  Atom+Function         Bfn.  Coefficient  Atom+Function  
  ----- ------------  ---------------      ----- ------------  ---------------
    66      2.420127   5 C  s               203     -2.420127  15 C  s         
    21     -2.397307   2 C  s               156      2.397307  11 C  s         
     6      2.324095   1 C  s                81     -2.315046   6 C  s         
   173     -2.324095  13 C  s               188      2.315046  14 C  s         
    51     -2.020899   4 C  s               126      2.020899   9 C  s         

 Vector  219  Occ=0.000000D+00  E= 3.917083D+00  Symmetry=a1
              MO Center= -2.3D-15,  1.6D-17, -7.1D-01, r^2= 2.6D+00
   Bfn.  Coefficient  Atom+Function         Bfn.  Coefficient  Atom+Function  
  ----- ------------  ---------------      ----- ------------  ---------------
    92      1.725537   7 C  s                32      1.506087   3 C  s         
   137      1.506087  10 C  s               103     -1.041460   7 C  dyy       
   105     -0.999652   7 C  dzz             100     -0.985177   7 C  dxx       
    43     -0.849143   3 C  dyy             148     -0.849143  10 C  dyy       
    45     -0.831215   3 C  dzz             150     -0.831215  10 C  dzz       

 Vector  220  Occ=0.000000D+00  E= 3.935366D+00  Symmetry=b1
              MO Center=  2.2D-12, -3.5D-18, -6.2D-02, r^2= 1.0D+01
   Bfn.  Coefficient  Atom+Function         Bfn.  Coefficient  Atom+Function  
  ----- ------------  ---------------      ----- ------------  ---------------
    77      1.090163   6 C  s               184     -1.090163  14 C  s         
     2      1.067854   1 C  s               169     -1.067854  13 C  s         
    17      0.931160   2 C  s               152     -0.931160  11 C  s         
    62      0.897635   5 C  s               199     -0.897635  15 C  s         
    32      0.699801   3 C  s               137     -0.699801  10 C  s         

 Vector  221  Occ=0.000000D+00  E= 3.940575D+00  Symmetry=a1
              MO Center= -2.0D-12,  3.0D-18,  2.2D-01, r^2= 1.3D+01
   Bfn.  Coefficient  Atom+Function         Bfn.  Coefficient  Atom+Function  
  ----- ------------  ---------------      ----- ------------  ---------------
    77      1.432084   6 C  s               184      1.432084  14 C  s         
     2      1.133276   1 C  s               169      1.133276  13 C  s         
    62      0.977327   5 C  s               199      0.977327  15 C  s         
    88     -0.852796   6 C  dyy             195     -0.852796  14 C  dyy       
    85     -0.842051   6 C  dxx             192     -0.842051  14 C  dxx       

 Vector  222  Occ=0.000000D+00  E= 3.958770D+00  Symmetry=b1
              MO Center= -1.2D-13,  1.0D-18, -2.1D-01, r^2= 8.1D+00
   Bfn.  Coefficient  Atom+Function         Bfn.  Coefficient  Atom+Function  
  ----- ------------  ---------------      ----- ------------  ---------------
    32      1.245903   3 C  s               137     -1.245903  10 C  s         
    77     -1.092613   6 C  s               184      1.092613  14 C  s         
    17      0.940494   2 C  s               152     -0.940494  11 C  s         
    40     -0.791367   3 C  dxx             145      0.791367  10 C  dxx       
    43     -0.786999   3 C  dyy             148      0.786999  10 C  dyy       

 Vector  223  Occ=0.000000D+00  E= 3.971849D+00  Symmetry=a1
              MO Center=  2.0D-14,  3.0D-17, -2.9D-02, r^2= 8.6D+00
   Bfn.  Coefficient  Atom+Function         Bfn.  Coefficient  Atom+Function  
  ----- ------------  ---------------      ----- ------------  ---------------
    17      1.120761   2 C  s               152      1.120761  11 C  s         
    62     -1.031715   5 C  s               199     -1.031715  15 C  s         
    66     -1.007712   5 C  s               203     -1.007712  15 C  s         
     2      0.980453   1 C  s               169      0.980453  13 C  s         
    47     -0.970099   4 C  s               122     -0.970099   9 C  s         

 Vector  224  Occ=0.000000D+00  E= 3.974862D+00  Symmetry=b1
              MO Center= -6.5D-14, -3.0D-19,  1.7D-01, r^2= 8.1D+00
   Bfn.  Coefficient  Atom+Function         Bfn.  Coefficient  Atom+Function  
  ----- ------------  ---------------      ----- ------------  ---------------
    47      1.268048   4 C  s               122     -1.268048   9 C  s         
     2     -1.043045   1 C  s               169      1.043045  13 C  s         
    62      1.027229   5 C  s               199     -1.027229  15 C  s         
    17     -0.803469   2 C  s               152      0.803469  11 C  s         
    60     -0.781210   4 C  dzz             135      0.781210   9 C  dzz       

 Vector  225  Occ=0.000000D+00  E= 4.014817D+00  Symmetry=a1
              MO Center=  1.1D-14, -1.1D-17, -3.4D-01, r^2= 5.4D+00
   Bfn.  Coefficient  Atom+Function         Bfn.  Coefficient  Atom+Function  
  ----- ------------  ---------------      ----- ------------  ---------------
    92      1.746580   7 C  s               100     -1.321647   7 C  dxx       
   103     -1.131667   7 C  dyy             105     -1.096913   7 C  dzz       
    81      1.021352   6 C  s               188      1.021352  14 C  s         
    47     -0.955101   4 C  s               122     -0.955101   9 C  s         
   107     -0.916665   8 C  s                17     -0.862547   2 C  s         

 Vector  226  Occ=0.000000D+00  E= 4.104024D+00  Symmetry=a1
              MO Center= -1.2D-14,  1.0D-16,  5.7D-01, r^2= 7.2D+00
   Bfn.  Coefficient  Atom+Function         Bfn.  Coefficient  Atom+Function  
  ----- ------------  ---------------      ----- ------------  ---------------
   111      2.013282   8 C  s               107      1.573076   8 C  s         
   118     -1.175661   8 C  dyy             115     -1.146898   8 C  dxx       
   120     -1.112041   8 C  dzz              21     -1.103251   2 C  s         
   156     -1.103251  11 C  s                62     -1.044009   5 C  s         
   199     -1.044009  15 C  s                 6      0.977872   1 C  s         

 Vector  227  Occ=0.000000D+00  E= 4.172978D+00  Symmetry=b1
              MO Center=  2.3D-13,  8.8D-19, -4.7D-03, r^2= 8.8D+00
   Bfn.  Coefficient  Atom+Function         Bfn.  Coefficient  Atom+Function  
  ----- ------------  ---------------      ----- ------------  ---------------
    21      1.342753   2 C  s               156     -1.342753  11 C  s         
    66      1.162133   5 C  s               203     -1.162133  15 C  s         
    62      1.151986   5 C  s               199     -1.151986  15 C  s         
    17      1.107484   2 C  s               152     -1.107484  11 C  s         
    70     -0.946746   5 C  dxx             207      0.946746  15 C  dxx       

 Vector  228  Occ=0.000000D+00  E= 4.191012D+00  Symmetry=b1
              MO Center= -5.1D-15, -2.3D-18, -5.4D-02, r^2= 8.8D+00
   Bfn.  Coefficient  Atom+Function         Bfn.  Coefficient  Atom+Function  
  ----- ------------  ---------------      ----- ------------  ---------------
    81     -1.540332   6 C  s               188      1.540332  14 C  s         
     6      1.412331   1 C  s               173     -1.412331  13 C  s         
    32     -1.124504   3 C  s               137      1.124504  10 C  s         
    77     -1.020379   6 C  s               184      1.020379  14 C  s         
    47      0.940155   4 C  s               122     -0.940155   9 C  s         

 Vector  229  Occ=0.000000D+00  E= 4.277454D+00  Symmetry=a1
              MO Center= -1.0D-13,  4.2D-17,  5.6D-02, r^2= 6.7D+00
   Bfn.  Coefficient  Atom+Function         Bfn.  Coefficient  Atom+Function  
  ----- ------------  ---------------      ----- ------------  ---------------
    96      1.548453   7 C  s                81     -1.429351   6 C  s         
   188     -1.429351  14 C  s                66      1.413946   5 C  s         
   203      1.413946  15 C  s               111      1.206969   8 C  s         
    92      1.181004   7 C  s               100     -1.082648   7 C  dxx       
    36     -1.031273   3 C  s               141     -1.031273  10 C  s         

 Vector  230  Occ=0.000000D+00  E= 4.301341D+00  Symmetry=a1
              MO Center= -1.2D-13,  1.5D-16,  2.0D-01, r^2= 9.6D+00
   Bfn.  Coefficient  Atom+Function         Bfn.  Coefficient  Atom+Function  
  ----- ------------  ---------------      ----- ------------  ---------------
   111      3.327837   8 C  s                 6     -2.243576   1 C  s         
   173     -2.243576  13 C  s                21      2.019600   2 C  s         
   156      2.019600  11 C  s                81      1.852109   6 C  s         
   188      1.852109  14 C  s                96     -1.577152   7 C  s         
    52     -1.324400   4 C  px              127      1.324400   9 C  px        

 Vector  231  Occ=0.000000D+00  E= 4.504132D+00  Symmetry=b1
              MO Center=  1.7D-14,  4.7D-20, -3.3D-02, r^2= 9.1D+00
   Bfn.  Coefficient  Atom+Function         Bfn.  Coefficient  Atom+Function  
  ----- ------------  ---------------      ----- ------------  ---------------
     6      2.470474   1 C  s                66      2.465431   5 C  s         
   173     -2.470474  13 C  s               203     -2.465431  15 C  s         
    21     -2.423451   2 C  s                81     -2.418928   6 C  s         
   156      2.423451  11 C  s               188      2.418928  14 C  s         
    51     -2.359780   4 C  s               126      2.359780   9 C  s         

 Vector  232  Occ=0.000000D+00  E= 4.689101D+00  Symmetry=a1
              MO Center=  6.6D-15, -9.7D-17,  1.2D-02, r^2= 5.6D+00
   Bfn.  Coefficient  Atom+Function         Bfn.  Coefficient  Atom+Function  
  ----- ------------  ---------------      ----- ------------  ---------------
    51     -3.297579   4 C  s               126     -3.297579   9 C  s         
    36      3.217658   3 C  s               141      3.217658  10 C  s         
   111      2.040665   8 C  s                96     -1.841467   7 C  s         
    66      1.723596   5 C  s               203      1.723596  15 C  s         
    81     -1.711011   6 C  s               188     -1.711011  14 C  s         


------------------------------------------------------------
EAF file 0: "./molecule.aoints.0" size=533200896 bytes
------------------------------------------------------------
               write      read    awrite     aread      wait
               -----      ----    ------     -----      ----
     calls:     1017         9         0      9144      9144
   data(b): 5.33e+08  4.72e+06  0.00e+00  4.79e+09
   time(s): 0.00e+00  0.00e+00  0.00e+00  0.00e+00  0.00e+00
rate(mb/s): 0.00e+00  0.00e+00
------------------------------------------------------------


 center of mass
 --------------
 x =  -0.00000000 y =   0.00000000 z =  -0.01433947

 moments of inertia (a.u.)
 ------------------
         855.679753469216           0.000000000000           0.000000000000
           0.000000000000        4865.166152787180           0.000000000000
           0.000000000000           0.000000000000        4020.333464758770

     Multipole analysis of the density
     ---------------------------------

     L   x y z        total         alpha         beta         nuclear
     -   - - -        -----         -----         ----         -------
     0   0 0 0      1.000000    -47.000000    -47.000000     95.000000

     1   1 0 0     -0.000000     -0.000000     -0.000000     -0.000000
     1   0 1 0      0.000000      0.000000      0.000000      0.000000
     1   0 0 1     -0.014394     -0.007197     -0.007197     -0.000000

     2   2 0 0    -22.835813  -1111.993868  -1111.993868   2201.151924
     2   1 1 0      0.000000      0.000000      0.000000      0.000000
     2   1 0 1     -0.000000     -0.000000     -0.000000     -0.000000
     2   0 2 0    -60.436217    -32.908820    -32.908820      5.381423
     2   0 1 1     -0.000000     -0.000000     -0.000000      0.000000
     2   0 0 2    -42.069670   -274.661522   -274.661522    507.253374


 Parallel integral file used    1017 records with       0 large values


 Task  times  cpu:       65.6s     wall:       63.2s


                                NWChem Input Module
                                -------------------



  Limits (a.u.) specified for the density plot:
  ---------------------------------------------

        From        To      # of spacings
X   -11.33836    11.33836        50
Y   -11.33836    11.33836        50
Z   -11.33836    11.33836        50

  Total number of grid points =                132651

  1-st set of MOs      : n2.movecs
  Output is written to : 2orbdensity.cube
  Type of picture      : CHARGE DENSITY
  Format used          : Gaussian9x Cube
  Spin                 : TOTAL   
  The density is computed using orbitals :   47
  The density is computed on the specified grid
  max element    4.2557434198987207E-002

  Tol_rho              =                    0.10000E-39
  Sum of elements      =                       21.38815
  Integration volume   =                        0.09329
  Integrated Charge    =                        1.99528

 Task  times  cpu:        2.3s     wall:        2.6s
 Summary of allocated global arrays
-----------------------------------
  No active global arrays



                         GA Statistics for process    0
                         ------------------------------

       create   destroy   get      put      acc     scatter   gather  read&inc
calls:  288      288     7.80e+05 2.76e+04 3.04e+05    0        0     1.96e+04 
number of processes/call 1.00e+00 1.00e+00 1.00e+00 0.00e+00 0.00e+00
bytes total:             8.31e+08 1.26e+08 3.14e+08 0.00e+00 0.00e+00 1.57e+05
bytes remote:            0.00e+00 0.00e+00 0.00e+00 0.00e+00 0.00e+00 0.00e+00
Max memory consumed for GA by this process: 16793088 bytes
MA_summarize_allocated_blocks: starting scan ...
MA_summarize_allocated_blocks: scan completed: 0 heap blocks, 0 stack blocks
MA usage statistics:

	allocation statistics:
					      heap	     stack
					      ----	     -----
	current number of blocks	         0	         0
	maximum number of blocks	        21	        55
	current total bytes		         0	         0
	maximum total bytes		  10291624	  22525528
	maximum total K-bytes		     10292	     22526
	maximum total M-bytes		        11	        23


                                NWChem Input Module
                                -------------------





                                     CITATION
                                     --------
                Please cite the following reference when publishing
                           results obtained with NWChem:

                 M. Valiev, E.J. Bylaska, N. Govind, K. Kowalski,
              T.P. Straatsma, H.J.J. van Dam, D. Wang, J. Nieplocha,
                        E. Apra, T.L. Windus, W.A. de Jong
                 "NWChem: a comprehensive and scalable open-source
                  solution for large scale molecular simulations"
                      Comput. Phys. Commun. 181, 1477 (2010)
                           doi:10.1016/j.cpc.2010.04.018

                                      AUTHORS
                                      -------
          E. Apra, E. J. Bylaska, W. A. de Jong, N. Govind, K. Kowalski,
       T. P. Straatsma, M. Valiev, H. J. J. van Dam, D. Wang, T. L. Windus,
        J. Hammond, J. Autschbach, K. Bhaskaran-Nair, J. Brabec, K. Lopata,
    S. A. Fischer, S. Krishnamoorthy, M. Jacquelin, W. Ma, M. Klemm, O. Villa,
      Y. Chen, V. Anisimov, F. Aquino, S. Hirata, M. T. Hackler, V. Konjkov,
            D. Mejia-Rodriguez, T. Risthaus, M. Malagoli, A. Marenich,
   A. Otero-de-la-Roza, J. Mullin, P. Nichols, R. Peverati, J. Pittner, Y. Zhao,
        P.-D. Fan, A. Fonari, M. J. Williamson, R. J. Harrison, J. R. Rehr,
      M. Dupuis, D. Silverstein, D. M. A. Smith, J. Nieplocha, V. Tipparaju,
    M. Krishnan, B. E. Van Kuiken, A. Vazquez-Mayagoitia, L. Jensen, M. Swart,
      Q. Wu, T. Van Voorhis, A. A. Auer, M. Nooijen, L. D. Crosby, E. Brown,
      G. Cisneros, G. I. Fann, H. Fruchtl, J. Garza, K. Hirao, R. A. Kendall,
      J. A. Nichols, K. Tsemekhman, K. Wolinski, J. Anchell, D. E. Bernholdt,
      P. Borowski, T. Clark, D. Clerc, H. Dachsel, M. J. O. Deegan, K. Dyall,
    D. Elwood, E. Glendening, M. Gutowski, A. C. Hess, J. Jaffe, B. G. Johnson,
     J. Ju, R. Kobayashi, R. Kutteh, Z. Lin, R. Littlefield, X. Long, B. Meng,
      T. Nakajima, S. Niu, L. Pollack, M. Rosing, K. Glaesemann, G. Sandrone,
      M. Stave, H. Taylor, G. Thomas, J. H. van Lenthe, A. T. Wong, Z. Zhang.

 Total times  cpu:       68.1s     wall:       66.0s
