 Entering Gaussian System, Link 0=g09
 Initial command:
 /apps/gaussian/g09d01/g09/l1.exe "/scratch/pbs.1385675.kman.restech.unsw.edu.au/Gau-20211.inp" -scrdir="/scratch/pbs.1385675.kman.restech.unsw.edu.au/"
 Entering Link 1 = /apps/gaussian/g09d01/g09/l1.exe PID=     20212.
  
 Copyright (c) 1988,1990,1992,1993,1995,1998,2003,2009,2013,
            Gaussian, Inc.  All Rights Reserved.
  
 This is part of the Gaussian(R) 09 program.  It is based on
 the Gaussian(R) 03 system (copyright 2003, Gaussian, Inc.),
 the Gaussian(R) 98 system (copyright 1998, Gaussian, Inc.),
 the Gaussian(R) 94 system (copyright 1995, Gaussian, Inc.),
 the Gaussian 92(TM) system (copyright 1992, Gaussian, Inc.),
 the Gaussian 90(TM) system (copyright 1990, Gaussian, Inc.),
 the Gaussian 88(TM) system (copyright 1988, Gaussian, Inc.),
 the Gaussian 86(TM) system (copyright 1986, Carnegie Mellon
 University), and the Gaussian 82(TM) system (copyright 1983,
 Carnegie Mellon University). Gaussian is a federally registered
 trademark of Gaussian, Inc.
  
 This software contains proprietary and confidential information,
 including trade secrets, belonging to Gaussian, Inc.
  
 This software is provided under written license and may be
 used, copied, transmitted, or stored only in accord with that
 written license.
  
 The following legend is applicable only to US Government
 contracts under FAR:
  
                    RESTRICTED RIGHTS LEGEND
  
 Use, reproduction and disclosure by the US Government is
 subject to restrictions as set forth in subparagraphs (a)
 and (c) of the Commercial Computer Software - Restricted
 Rights clause in FAR 52.227-19.
  
 Gaussian, Inc.
 340 Quinnipiac St., Bldg. 40, Wallingford CT 06492
  
  
 ---------------------------------------------------------------
 Warning -- This program may not be used in any manner that
 competes with the business of Gaussian, Inc. or will provide
 assistance to any competitor of Gaussian, Inc.  The licensee
 of this program is prohibited from giving any competitor of
 Gaussian, Inc. access to this program.  By using this program,
 the user acknowledges that Gaussian, Inc. is engaged in the
 business of creating and licensing software in the field of
 computational chemistry and represents and warrants to the
 licensee that it is not a competitor of Gaussian, Inc. and that
 it will not use this program in any manner prohibited above.
 ---------------------------------------------------------------
  

 Cite this work as:
 Gaussian 09, Revision D.01,
 M. J. Frisch, G. W. Trucks, H. B. Schlegel, G. E. Scuseria, 
 M. A. Robb, J. R. Cheeseman, G. Scalmani, V. Barone, B. Mennucci, 
 G. A. Petersson, H. Nakatsuji, M. Caricato, X. Li, H. P. Hratchian, 
 A. F. Izmaylov, J. Bloino, G. Zheng, J. L. Sonnenberg, M. Hada, 
 M. Ehara, K. Toyota, R. Fukuda, J. Hasegawa, M. Ishida, T. Nakajima, 
 Y. Honda, O. Kitao, H. Nakai, T. Vreven, J. A. Montgomery, Jr., 
 J. E. Peralta, F. Ogliaro, M. Bearpark, J. J. Heyd, E. Brothers, 
 K. N. Kudin, V. N. Staroverov, T. Keith, R. Kobayashi, J. Normand, 
 K. Raghavachari, A. Rendell, J. C. Burant, S. S. Iyengar, J. Tomasi, 
 M. Cossi, N. Rega, J. M. Millam, M. Klene, J. E. Knox, J. B. Cross, 
 V. Bakken, C. Adamo, J. Jaramillo, R. Gomperts, R. E. Stratmann, 
 O. Yazyev, A. J. Austin, R. Cammi, C. Pomelli, J. W. Ochterski, 
 R. L. Martin, K. Morokuma, V. G. Zakrzewski, G. A. Voth, 
 P. Salvador, J. J. Dannenberg, S. Dapprich, A. D. Daniels, 
 O. Farkas, J. B. Foresman, J. V. Ortiz, J. Cioslowski, 
 and D. J. Fox, Gaussian, Inc., Wallingford CT, 2013.
 
 ******************************************
 Gaussian 09:  ES64L-G09RevD.01 24-Apr-2013
                 5-Aug-2021 
 ******************************************
 %NProcShared=8
 Will use up to    8 processors via shared memory.
 %mem = 32GB
 -----------------------------------------------------------------
 #n M062X/6-31G(2df,p) TD=(nstates=5,root=1) Symmetry=(PG=C2v) Opt
 -----------------------------------------------------------------
 1/14=-1,18=20,19=15,26=3,38=1/1,3;
 2/9=110,12=2,17=6,18=5,19=2314885530821997123,40=1/2;
 3/5=1,6=6,7=104,11=9,16=1,25=1,30=1,71=1,74=-55/1,2,8,3;
 4//1;
 5/5=2,38=5/2;
 8/6=1,10=2,107=1,108=5/1;
 9/8=1,15=2,41=5,42=1,70=2/14;
 10/5=4/2;
 6/7=2,8=2,9=2,10=2/1;
 7/12=6,13=5,14=1/1,2,3,16;
 1/14=-1,18=20,19=15,26=3/3(2);
 2/9=110,19=2314885530821997123/2;
 99//99;
 2/9=110,19=2314885530821997123/2;
 3/5=1,6=6,7=104,11=9,16=1,25=1,30=1,71=1,74=-55/1,2,8,3;
 4/5=5,16=3,69=1/1;
 5/5=2,38=5/2;
 8/6=1,10=2,107=1,108=5/1;
 9/8=1,15=2,41=5,42=1,49=4,70=2/14;
 10/5=4/2;
 7/12=6,13=5,14=1/1,2,3,16;
 1/14=-1,18=20,19=15,26=3/3(-8);
 2/9=110,19=2314885530821997123/2;
 6/7=2,8=2,9=2,10=2/1;
 99//99;
 -----
 Title
 -----
 Symbolic Z-matrix:
 Charge =  1 Multiplicity = 1
 C                     3.66511  -0.78612  -0.00006 
 C                     2.45321  -1.43882  -0.00007 
 C                     1.24264  -0.69315  -0.00002 
 C                     1.27792   0.73302   0.00003 
 C                     2.515     1.36722   0.00005 
 C                     3.69109   0.61879   0.00001 
 C                     0.       -1.35058   0.00003 
 C                     0.        1.51851   0.00005 
 C                    -1.27792   0.73302   0.00001 
 C                    -1.24264  -0.69315   0.00006 
 C                    -2.45321  -1.43882   0.00006 
 H                    -2.40689  -2.52195   0.0001 
 C                    -3.66511  -0.78612   0.00002 
 C                    -3.69109   0.61879  -0.00007 
 C                    -2.515     1.36722  -0.00008 
 H                     0.       -2.4378    0.00003 
 H                     4.59227  -1.34508  -0.0001 
 H                     2.40689  -2.52195  -0.00013 
 H                     2.56929   2.45018   0.00009 
 H                     4.64555   1.13283   0.00003 
 H                    -0.00001   2.19342   0.86739 
 H                    -4.59227  -1.34508   0.00003 
 H                    -4.64555   1.13283  -0.00014 
 H                    -2.56929   2.45018  -0.00016 
 H                     0.00001   2.1935   -0.86725 
 

 GradGradGradGradGradGradGradGradGradGradGradGradGradGradGradGradGradGrad
 Berny optimization.
 Initialization pass.
                           ----------------------------
                           !    Initial Parameters    !
                           ! (Angstroms and Degrees)  !
 --------------------------                            --------------------------
 ! Name  Definition              Value          Derivative Info.                !
 --------------------------------------------------------------------------------
 ! R1    R(1,2)                  1.3765         estimate D2E/DX2                !
 ! R2    R(1,6)                  1.4052         estimate D2E/DX2                !
 ! R3    R(1,17)                 1.0826         estimate D2E/DX2                !
 ! R4    R(2,3)                  1.4218         estimate D2E/DX2                !
 ! R5    R(2,18)                 1.0841         estimate D2E/DX2                !
 ! R6    R(3,4)                  1.4266         estimate D2E/DX2                !
 ! R7    R(3,7)                  1.4058         estimate D2E/DX2                !
 ! R8    R(4,5)                  1.3902         estimate D2E/DX2                !
 ! R9    R(4,8)                  1.5            estimate D2E/DX2                !
 ! R10   R(5,6)                  1.394          estimate D2E/DX2                !
 ! R11   R(5,19)                 1.0843         estimate D2E/DX2                !
 ! R12   R(6,20)                 1.0841         estimate D2E/DX2                !
 ! R13   R(7,10)                 1.4058         estimate D2E/DX2                !
 ! R14   R(7,16)                 1.0872         estimate D2E/DX2                !
 ! R15   R(8,9)                  1.5            estimate D2E/DX2                !
 ! R16   R(8,21)                 1.099          estimate D2E/DX2                !
 ! R17   R(8,25)                 1.099          estimate D2E/DX2                !
 ! R18   R(9,10)                 1.4266         estimate D2E/DX2                !
 ! R19   R(9,15)                 1.3902         estimate D2E/DX2                !
 ! R20   R(10,11)                1.4218         estimate D2E/DX2                !
 ! R21   R(11,12)                1.0841         estimate D2E/DX2                !
 ! R22   R(11,13)                1.3765         estimate D2E/DX2                !
 ! R23   R(13,14)                1.4052         estimate D2E/DX2                !
 ! R24   R(13,22)                1.0826         estimate D2E/DX2                !
 ! R25   R(14,15)                1.394          estimate D2E/DX2                !
 ! R26   R(14,23)                1.0841         estimate D2E/DX2                !
 ! R27   R(15,24)                1.0843         estimate D2E/DX2                !
 ! A1    A(2,1,6)              119.3652         estimate D2E/DX2                !
 ! A2    A(2,1,17)             120.6095         estimate D2E/DX2                !
 ! A3    A(6,1,17)             120.0252         estimate D2E/DX2                !
 ! A4    A(1,2,3)              120.0625         estimate D2E/DX2                !
 ! A5    A(1,2,18)             120.7546         estimate D2E/DX2                !
 ! A6    A(3,2,18)             119.1829         estimate D2E/DX2                !
 ! A7    A(2,3,4)              120.2146         estimate D2E/DX2                !
 ! A8    A(2,3,7)              120.4869         estimate D2E/DX2                !
 ! A9    A(4,3,7)              119.2986         estimate D2E/DX2                !
 ! A10   A(3,4,5)              118.5594         estimate D2E/DX2                !
 ! A11   A(3,4,8)              120.1604         estimate D2E/DX2                !
 ! A12   A(5,4,8)              121.2802         estimate D2E/DX2                !
 ! A13   A(4,5,6)              120.3861         estimate D2E/DX2                !
 ! A14   A(4,5,19)             120.0122         estimate D2E/DX2                !
 ! A15   A(6,5,19)             119.6016         estimate D2E/DX2                !
 ! A16   A(1,6,5)              121.4121         estimate D2E/DX2                !
 ! A17   A(1,6,20)             119.3648         estimate D2E/DX2                !
 ! A18   A(5,6,20)             119.2231         estimate D2E/DX2                !
 ! A19   A(3,7,10)             124.237          estimate D2E/DX2                !
 ! A20   A(3,7,16)             117.8815         estimate D2E/DX2                !
 ! A21   A(10,7,16)            117.8815         estimate D2E/DX2                !
 ! A22   A(4,8,9)              116.845          estimate D2E/DX2                !
 ! A23   A(4,8,21)             108.7598         estimate D2E/DX2                !
 ! A24   A(4,8,25)             108.7596         estimate D2E/DX2                !
 ! A25   A(9,8,21)             108.7595         estimate D2E/DX2                !
 ! A26   A(9,8,25)             108.7599         estimate D2E/DX2                !
 ! A27   A(21,8,25)            104.2198         estimate D2E/DX2                !
 ! A28   A(8,9,10)             120.1604         estimate D2E/DX2                !
 ! A29   A(8,9,15)             121.2802         estimate D2E/DX2                !
 ! A30   A(10,9,15)            118.5594         estimate D2E/DX2                !
 ! A31   A(7,10,9)             119.2986         estimate D2E/DX2                !
 ! A32   A(7,10,11)            120.4869         estimate D2E/DX2                !
 ! A33   A(9,10,11)            120.2146         estimate D2E/DX2                !
 ! A34   A(10,11,12)           119.1829         estimate D2E/DX2                !
 ! A35   A(10,11,13)           120.0625         estimate D2E/DX2                !
 ! A36   A(12,11,13)           120.7546         estimate D2E/DX2                !
 ! A37   A(11,13,14)           119.3652         estimate D2E/DX2                !
 ! A38   A(11,13,22)           120.6095         estimate D2E/DX2                !
 ! A39   A(14,13,22)           120.0252         estimate D2E/DX2                !
 ! A40   A(13,14,15)           121.4121         estimate D2E/DX2                !
 ! A41   A(13,14,23)           119.3648         estimate D2E/DX2                !
 ! A42   A(15,14,23)           119.2231         estimate D2E/DX2                !
 ! A43   A(9,15,14)            120.3861         estimate D2E/DX2                !
 ! A44   A(9,15,24)            120.0122         estimate D2E/DX2                !
 ! A45   A(14,15,24)           119.6016         estimate D2E/DX2                !
 ! D1    D(6,1,2,3)              0.0005         estimate D2E/DX2                !
 ! D2    D(6,1,2,18)           179.9996         estimate D2E/DX2                !
 ! D3    D(17,1,2,3)          -179.9999         estimate D2E/DX2                !
 ! D4    D(17,1,2,18)           -0.0007         estimate D2E/DX2                !
 ! D5    D(2,1,6,5)             -0.0009         estimate D2E/DX2                !
 ! D6    D(2,1,6,20)           179.9993         estimate D2E/DX2                !
 ! D7    D(17,1,6,5)           179.9994         estimate D2E/DX2                !
 ! D8    D(17,1,6,20)           -0.0004         estimate D2E/DX2                !
 ! D9    D(1,2,3,4)              0.0005         estimate D2E/DX2                !
 ! D10   D(1,2,3,7)           -179.9972         estimate D2E/DX2                !
 ! D11   D(18,2,3,4)          -179.9986         estimate D2E/DX2                !
 ! D12   D(18,2,3,7)             0.0037         estimate D2E/DX2                !
 ! D13   D(2,3,4,5)             -0.001          estimate D2E/DX2                !
 ! D14   D(2,3,4,8)            179.9986         estimate D2E/DX2                !
 ! D15   D(7,3,4,5)            179.9967         estimate D2E/DX2                !
 ! D16   D(7,3,4,8)             -0.0037         estimate D2E/DX2                !
 ! D17   D(2,3,7,10)          -179.999          estimate D2E/DX2                !
 ! D18   D(2,3,7,16)             0.0001         estimate D2E/DX2                !
 ! D19   D(4,3,7,10)             0.0034         estimate D2E/DX2                !
 ! D20   D(4,3,7,16)          -179.9976         estimate D2E/DX2                !
 ! D21   D(3,4,5,6)              0.0006         estimate D2E/DX2                !
 ! D22   D(3,4,5,19)          -179.9999         estimate D2E/DX2                !
 ! D23   D(8,4,5,6)           -179.999          estimate D2E/DX2                !
 ! D24   D(8,4,5,19)             0.0006         estimate D2E/DX2                !
 ! D25   D(3,4,8,9)             -0.0002         estimate D2E/DX2                !
 ! D26   D(3,4,8,21)           123.543          estimate D2E/DX2                !
 ! D27   D(3,4,8,25)          -123.5438         estimate D2E/DX2                !
 ! D28   D(5,4,8,9)            179.9993         estimate D2E/DX2                !
 ! D29   D(5,4,8,21)           -56.4574         estimate D2E/DX2                !
 ! D30   D(5,4,8,25)            56.4558         estimate D2E/DX2                !
 ! D31   D(4,5,6,1)              0.0004         estimate D2E/DX2                !
 ! D32   D(4,5,6,20)          -179.9998         estimate D2E/DX2                !
 ! D33   D(19,5,6,1)          -179.9992         estimate D2E/DX2                !
 ! D34   D(19,5,6,20)            0.0006         estimate D2E/DX2                !
 ! D35   D(3,7,10,9)             0.0014         estimate D2E/DX2                !
 ! D36   D(3,7,10,11)          179.9976         estimate D2E/DX2                !
 ! D37   D(16,7,10,9)         -179.9977         estimate D2E/DX2                !
 ! D38   D(16,7,10,11)          -0.0014         estimate D2E/DX2                !
 ! D39   D(4,8,9,10)             0.0048         estimate D2E/DX2                !
 ! D40   D(4,8,9,15)          -179.995          estimate D2E/DX2                !
 ! D41   D(21,8,9,10)         -123.5385         estimate D2E/DX2                !
 ! D42   D(21,8,9,15)           56.4617         estimate D2E/DX2                !
 ! D43   D(25,8,9,10)          123.5483         estimate D2E/DX2                !
 ! D44   D(25,8,9,15)          -56.4515         estimate D2E/DX2                !
 ! D45   D(8,9,10,7)            -0.0055         estimate D2E/DX2                !
 ! D46   D(8,9,10,11)          179.9982         estimate D2E/DX2                !
 ! D47   D(15,9,10,7)          179.9943         estimate D2E/DX2                !
 ! D48   D(15,9,10,11)          -0.002          estimate D2E/DX2                !
 ! D49   D(8,9,15,14)         -179.9978         estimate D2E/DX2                !
 ! D50   D(8,9,15,24)            0.0023         estimate D2E/DX2                !
 ! D51   D(10,9,15,14)           0.0024         estimate D2E/DX2                !
 ! D52   D(10,9,15,24)        -179.9975         estimate D2E/DX2                !
 ! D53   D(7,10,11,12)           0.0038         estimate D2E/DX2                !
 ! D54   D(7,10,11,13)        -179.9967         estimate D2E/DX2                !
 ! D55   D(9,10,11,12)        -179.9999         estimate D2E/DX2                !
 ! D56   D(9,10,11,13)          -0.0004         estimate D2E/DX2                !
 ! D57   D(10,11,13,14)          0.0023         estimate D2E/DX2                !
 ! D58   D(10,11,13,22)       -179.9994         estimate D2E/DX2                !
 ! D59   D(12,11,13,14)       -179.9982         estimate D2E/DX2                !
 ! D60   D(12,11,13,22)          0.0001         estimate D2E/DX2                !
 ! D61   D(11,13,14,15)         -0.0019         estimate D2E/DX2                !
 ! D62   D(11,13,14,23)        179.9977         estimate D2E/DX2                !
 ! D63   D(22,13,14,15)        179.9998         estimate D2E/DX2                !
 ! D64   D(22,13,14,23)         -0.0007         estimate D2E/DX2                !
 ! D65   D(13,14,15,9)          -0.0005         estimate D2E/DX2                !
 ! D66   D(13,14,15,24)        179.9994         estimate D2E/DX2                !
 ! D67   D(23,14,15,9)         179.9999         estimate D2E/DX2                !
 ! D68   D(23,14,15,24)         -0.0002         estimate D2E/DX2                !
 --------------------------------------------------------------------------------
 Trust Radius=3.00D-01 FncErr=1.00D-07 GrdErr=1.00D-06
 Number of steps in this run=    150 maximum allowed number of steps=    150.
 GradGradGradGradGradGradGradGradGradGradGradGradGradGradGradGradGradGrad

                          Input orientation:                          
 ---------------------------------------------------------------------
 Center     Atomic      Atomic             Coordinates (Angstroms)
 Number     Number       Type             X           Y           Z
 ---------------------------------------------------------------------
      1          6           0        3.665110   -0.786120   -0.000060
      2          6           0        2.453210   -1.438820   -0.000070
      3          6           0        1.242640   -0.693150   -0.000020
      4          6           0        1.277920    0.733020    0.000030
      5          6           0        2.515000    1.367220    0.000050
      6          6           0        3.691090    0.618790    0.000010
      7          6           0        0.000000   -1.350580    0.000030
      8          6           0        0.000000    1.518510    0.000050
      9          6           0       -1.277920    0.733020    0.000010
     10          6           0       -1.242640   -0.693150    0.000060
     11          6           0       -2.453210   -1.438820    0.000060
     12          1           0       -2.406890   -2.521950    0.000100
     13          6           0       -3.665110   -0.786120    0.000020
     14          6           0       -3.691090    0.618790   -0.000070
     15          6           0       -2.515000    1.367220   -0.000080
     16          1           0        0.000000   -2.437800    0.000030
     17          1           0        4.592270   -1.345080   -0.000100
     18          1           0        2.406890   -2.521950   -0.000130
     19          1           0        2.569290    2.450180    0.000090
     20          1           0        4.645550    1.132830    0.000030
     21          1           0       -0.000010    2.193420    0.867390
     22          1           0       -4.592270   -1.345080    0.000030
     23          1           0       -4.645550    1.132830   -0.000140
     24          1           0       -2.569290    2.450180   -0.000160
     25          1           0        0.000010    2.193500   -0.867250
 ---------------------------------------------------------------------
                    Distance matrix (angstroms):
                    1          2          3          4          5
     1  C    0.000000
     2  C    1.376488   0.000000
     3  C    2.424253   1.421796   0.000000
     4  C    2.829569   2.469452   1.426606   0.000000
     5  C    2.441235   2.806720   2.421575   1.390171   0.000000
     6  C    1.405150   2.401272   2.777786   2.415872   1.394036
     7  C    3.708321   2.454796   1.405834   2.444273   3.702926
     8  C    4.329475   3.842400   2.536847   1.500025   2.519546
     9  C    5.171202   4.317200   2.896063   2.555840   3.845576
    10  C    4.908631   3.770322   2.485280   2.896063   4.285438
    11  C    6.153036   4.906420   3.770322   4.317200   5.705872
    12  H    6.315243   4.979332   4.082105   4.916569   6.273009
    13  C    7.330220   6.153036   4.908631   5.171202   6.544512
    14  C    7.489156   6.479674   5.105182   4.970323   6.251056
    15  C    6.544512   5.705872   4.285438   3.845576   5.030000
    16  H    4.020084   2.648811   2.141952   3.418652   4.561075
    17  H    1.082618   2.141113   3.412482   3.911958   3.416376
    18  H    2.143880   1.084120   2.167945   3.445200   3.890672
    19  H    3.416791   3.890732   3.411821   2.148552   1.084320
    20  H    2.154909   3.379310   3.861865   3.391280   2.143404
    21  H    4.802419   4.468103   3.260194   2.125603   2.785706
    22  H    8.276277   7.046104   5.871217   6.227169   7.607224
    23  H    8.529328   7.550217   6.164818   5.936947   7.164385
    24  H    7.024342   6.352151   4.940783   4.213035   5.198347
    25  H    4.802407   4.468103   3.260209   2.125613   2.785700
                    6          7          8          9         10
     6  C    0.000000
     7  C    4.183607   0.000000
     8  C    3.799163   2.869090   0.000000
     9  C    4.970323   2.444273   1.500025   0.000000
    10  C    5.105182   1.405834   2.536847   1.426606   0.000000
    11  C    6.479674   2.454796   3.842400   2.469452   1.421796
    12  H    6.859272   2.676794   4.703024   3.445200   2.167945
    13  C    7.489156   3.708321   4.329475   2.829569   2.424253
    14  C    7.382180   4.183607   3.799163   2.415872   2.777786
    15  C    6.251056   3.702926   2.519546   1.390171   2.421575
    16  H    4.792378   1.087220   3.956310   3.418652   2.141952
    17  H    2.160766   4.592273   5.411940   6.227169   5.871217
    18  H    3.393143   2.676794   4.703024   4.916569   4.082105
    19  H    2.147656   4.587704   2.732995   4.213035   4.940783
    20  H    1.084081   5.267681   4.661532   5.936947   6.164818
    21  H    4.105609   3.648596   1.098991   2.125599   3.260165
    22  H    8.512981   4.592273   5.411940   3.911958   3.412482
    23  H    8.352473   5.267681   4.661532   3.391280   3.861865
    24  H    6.522756   4.587704   2.732995   2.148552   3.411821
    25  H    4.105597   3.648654   1.099009   2.125617   3.260238
                   11         12         13         14         15
    11  C    0.000000
    12  H    1.084120   0.000000
    13  C    1.376488   2.143880   0.000000
    14  C    2.401272   3.393143   1.405150   0.000000
    15  C    2.806720   3.890672   2.441235   1.394036   0.000000
    16  H    2.648811   2.408361   4.020084   4.792378   4.561075
    17  H    7.046104   7.097412   8.276277   8.512981   7.607224
    18  H    4.979332   4.813780   6.315243   6.859272   6.273009
    19  H    6.352151   7.034518   7.024342   6.522756   5.198347
    20  H    7.550217   7.943194   8.529328   8.352473   7.164385
    21  H    4.468067   5.364697   4.802390   4.105608   2.785729
    22  H    2.141113   2.482118   1.082618   2.160766   3.416376
    23  H    3.379310   4.285909   2.154909   1.084081   2.143404
    24  H    3.890732   4.974781   3.416791   2.147656   1.084320
    25  H    4.468139   5.364786   4.802437   4.105598   2.785677
                   16         17         18         19         20
    16  H    0.000000
    17  H    4.720485   0.000000
    18  H    2.408361   2.482118   0.000000
    19  H    5.522101   4.300750   4.974781   0.000000
    20  H    5.859226   2.478483   4.285909   2.458916   0.000000
    21  H    4.711742   5.861958   5.364743   2.723864   4.843386
    22  H    4.720485   9.184540   7.097412   8.105056   9.564380
    23  H    5.859226   9.564380   7.943194   7.334121   9.291100
    24  H    5.522101   8.105056   7.034518   5.138580   7.334121
    25  H    4.711806   5.861941   5.364740   2.723851   4.843370
                   21         22         23         24         25
    21  H    0.000000
    22  H    5.861924   0.000000
    23  H    4.843398   2.478483   0.000000
    24  H    2.723925   4.300750   2.458916   0.000000
    25  H    1.734640   5.861976   4.843359   2.723790   0.000000
 Symm:  InNGrp=C2V  InAxis=0.
 Stoichiometry    C14H11(1+)
 Framework group  C1[X(C14H11)]
 Deg. of freedom    69
 Full point group                 C1      NOp   1
 Largest Abelian subgroup         C1      NOp   1
 Largest concise Abelian subgroup C1      NOp   1
                         Standard orientation:                         
 ---------------------------------------------------------------------
 Center     Atomic      Atomic             Coordinates (Angstroms)
 Number     Number       Type             X           Y           Z
 ---------------------------------------------------------------------
      1          6           0        3.665110   -0.786119   -0.000060
      2          6           0        2.453210   -1.438819   -0.000070
      3          6           0        1.242640   -0.693149   -0.000020
      4          6           0        1.277920    0.733021    0.000030
      5          6           0        2.515000    1.367221    0.000050
      6          6           0        3.691090    0.618791    0.000010
      7          6           0        0.000000   -1.350579    0.000030
      8          6           0        0.000000    1.518511    0.000050
      9          6           0       -1.277920    0.733021    0.000010
     10          6           0       -1.242640   -0.693149    0.000060
     11          6           0       -2.453210   -1.438819    0.000060
     12          1           0       -2.406890   -2.521949    0.000100
     13          6           0       -3.665110   -0.786119    0.000020
     14          6           0       -3.691090    0.618791   -0.000070
     15          6           0       -2.515000    1.367221   -0.000080
     16          1           0        0.000000   -2.437799    0.000030
     17          1           0        4.592270   -1.345079   -0.000100
     18          1           0        2.406890   -2.521949   -0.000130
     19          1           0        2.569290    2.450181    0.000090
     20          1           0        4.645550    1.132831    0.000030
     21          1           0       -0.000010    2.193421    0.867390
     22          1           0       -4.592270   -1.345079    0.000030
     23          1           0       -4.645550    1.132831   -0.000140
     24          1           0       -2.569290    2.450181   -0.000160
     25          1           0        0.000010    2.193501   -0.867250
 ---------------------------------------------------------------------
 Rotational constants (GHZ):      2.0978600      0.4455128      0.3682861
 Standard basis: 6-31G(2df,p) (6D, 7F)
 There are   489 symmetry adapted cartesian basis functions of A   symmetry.
 There are   447 symmetry adapted basis functions of A   symmetry.
   447 basis functions,   693 primitive gaussians,   489 cartesian basis functions
    47 alpha electrons       47 beta electrons
       nuclear repulsion energy       779.7166015949 Hartrees.
 NAtoms=   25 NActive=   25 NUniq=   25 SFac= 1.00D+00 NAtFMM=   60 NAOKFM=F Big=F
 Integral buffers will be    131072 words long.
 Regular integral format.
 Two-electron integral symmetry is turned on.
 One-electron integrals computed using PRISM.
 NBasis=   447 RedAO= T EigKep=  1.03D-04  NBF=   447
 NBsUse=   447 1.00D-06 EigRej= -1.00D+00 NBFU=   447
 ExpMin= 1.61D-01 ExpMax= 3.05D+03 ExpMxC= 4.57D+02 IAcc=1 IRadAn=         1 AccDes= 0.00D+00
 Harris functional with IExCor= 1009 and IRadAn=       1 diagonalized for initial guess.
 HarFok:  IExCor= 1009 AccDes= 0.00D+00 IRadAn=         1 IDoV= 1 UseB2=F ITyADJ=14
 ICtDFT=  3500011 ScaDFX=  1.000000  1.000000  1.000000  1.000000
 FoFCou: FMM=F IPFlag=           0 FMFlag=      100000 FMFlg1=           0
         NFxFlg=           0 DoJE=T BraDBF=F KetDBF=T FulRan=T
         wScrn=  0.000000 ICntrl=     500 IOpCl=  0 I1Cent=   200000004 NGrid=           0
         NMat0=    1 NMatS0=      1 NMatT0=    0 NMatD0=    1 NMtDS0=    0 NMtDT0=    0
 Petite list used in FoFCou.
 Requested convergence on RMS density matrix=1.00D-08 within 128 cycles.
 Requested convergence on MAX density matrix=1.00D-06.
 Requested convergence on             energy=1.00D-06.
 No special actions if energy rises.
 Integral accuracy reduced to 1.0D-05 until final iterations.
 Initial convergence to 1.0D-05 achieved.  Increase integral accuracy.
 SCF Done:  E(RM062X) =  -539.680757014     A.U. after   14 cycles
            NFock= 14  Conv=0.73D-08     -V/T= 2.0085
 DoSCS=F DFT=T ScalE2(SS,OS)=  1.000000  1.000000
 ExpMin= 1.61D-01 ExpMax= 3.05D+03 ExpMxC= 4.57D+02 IAcc=3 IRadAn=         5 AccDes= 0.00D+00
 HarFok:  IExCor=  205 AccDes= 0.00D+00 IRadAn=         5 IDoV=-2 UseB2=F ITyADJ=14
 ICtDFT= 12500011 ScaDFX=  1.000000  1.000000  1.000000  1.000000
 Range of M.O.s used for correlation:    15   447
 NBasis=   447 NAE=    47 NBE=    47 NFC=    14 NFV=     0
 NROrb=    433 NOA=    33 NOB=    33 NVA=   400 NVB=   400

 **** Warning!!: The largest alpha MO coefficient is  0.16955986D+02

 Would need an additional         10925800000 words for in-memory AO integral storage.
 Orbital symmetries:
       Occupied  (A) (A) (A) (A) (A) (A) (A) (A) (A) (A) (A) (A)
                 (A) (A) (A) (A) (A) (A) (A) (A) (A) (A) (A) (A)
                 (A) (A) (A) (A) (A) (A) (A) (A) (A) (A) (A) (A)
                 (A) (A) (A) (A) (A) (A) (A) (A) (A) (A) (A)
       Virtual   (A) (A) (A) (A) (A) (A) (A) (A) (A) (A) (A) (A)
                 (A) (A) (A) (A) (A) (A) (A) (A) (A) (A) (A) (A)
                 (A) (A) (A) (A) (A) (A) (A) (A) (A) (A) (A) (A)
                 (A) (A) (A) (A) (A) (A) (A) (A) (A) (A) (A) (A)
                 (A) (A) (A) (A) (A) (A) (A) (A) (A) (A) (A) (A)
                 (A) (A) (A) (A) (A) (A) (A) (A) (A) (A) (A) (A)
                 (A) (A) (A) (A) (A) (A) (A) (A) (A) (A) (A) (A)
                 (A) (A) (A) (A) (A) (A) (A) (A) (A) (A) (A) (A)
                 (A) (A) (A) (A) (A) (A) (A) (A) (A) (A) (A) (A)
                 (A) (A) (A) (A) (A) (A) (A) (A) (A) (A) (A) (A)
                 (A) (A) (A) (A) (A) (A) (A) (A) (A) (A) (A) (A)
                 (A) (A) (A) (A) (A) (A) (A) (A) (A) (A) (A) (A)
                 (A) (A) (A) (A) (A) (A) (A) (A) (A) (A) (A) (A)
                 (A) (A) (A) (A) (A) (A) (A) (A) (A) (A) (A) (A)
                 (A) (A) (A) (A) (A) (A) (A) (A) (A) (A) (A) (A)
                 (A) (A) (A) (A) (A) (A) (A) (A) (A) (A) (A) (A)
                 (A) (A) (A) (A) (A) (A) (A) (A) (A) (A) (A) (A)
                 (A) (A) (A) (A) (A) (A) (A) (A) (A) (A) (A) (A)
                 (A) (A) (A) (A) (A) (A) (A) (A) (A) (A) (A) (A)
                 (A) (A) (A) (A) (A) (A) (A) (A) (A) (A) (A) (A)
                 (A) (A) (A) (A) (A) (A) (A) (A) (A) (A) (A) (A)
                 (A) (A) (A) (A) (A) (A) (A) (A) (A) (A) (A) (A)
                 (A) (A) (A) (A) (A) (A) (A) (A) (A) (A) (A) (A)
                 (A) (A) (A) (A) (A) (A) (A) (A) (A) (A) (A) (A)
                 (A) (A) (A) (A) (A) (A) (A) (A) (A) (A) (A) (A)
                 (A) (A) (A) (A) (A) (A) (A) (A) (A) (A) (A) (A)
                 (A) (A) (A) (A) (A) (A) (A) (A) (A) (A) (A) (A)
                 (A) (A) (A) (A) (A) (A) (A) (A) (A) (A) (A) (A)
                 (A) (A) (A) (A) (A) (A) (A) (A) (A) (A) (A) (A)
                 (A) (A) (A) (A) (A) (A) (A) (A) (A) (A) (A) (A)
                 (A) (A) (A) (A) (A) (A) (A) (A) (A) (A) (A) (A)
                 (A) (A) (A) (A) (A) (A) (A) (A) (A) (A) (A) (A)
                 (A) (A) (A) (A) (A) (A) (A) (A) (A) (A) (A) (A)
                 (A) (A) (A) (A)
    20 initial guesses have been made.
 Convergence on wavefunction:    0.000001000000000
 Iteration     1 Dimension    20 NMult     0 NNew     20
 CISAX will form    20 AO SS matrices at one time.
 New state      2 was old state      3
 New state      3 was old state      2
 New state      4 was old state      5
 New state      5 was old state      6
 Iteration     2 Dimension    30 NMult    20 NNew     10
 New state      2 was old state      3
 New state      3 was old state      2
 Iteration     3 Dimension    40 NMult    30 NNew     10
 Iteration     4 Dimension    50 NMult    40 NNew     10
 Iteration     5 Dimension    60 NMult    50 NNew     10
 Iteration     6 Dimension    70 NMult    60 NNew     10
 Iteration     7 Dimension    80 NMult    70 NNew     10
 Iteration     8 Dimension    90 NMult    80 NNew     10
 Iteration     9 Dimension   100 NMult    90 NNew     10
 Iteration    10 Dimension   106 NMult   100 NNew      6
 Iteration    11 Dimension   108 NMult   106 NNew      2
 ***********************************************************************
 Excited states from <AA,BB:AA,BB> singles matrix:
 ***********************************************************************
 
 Ground to excited state transition densities written to RWF  633
 Ground to excited state transition electric dipole moments (Au):
       state          X           Y           Z        Dip. S.      Osc.
         1         0.0000      0.6650      0.0000      0.4422      0.0346
         2         2.3371      0.0000      0.0000      5.4619      0.4624
         3         1.1804      0.0000      0.0000      1.3933      0.1233
         4         0.0000      0.0000     -0.0555      0.0031      0.0004
         5         0.0000      0.0000      0.0000      0.0000      0.0000
 Ground to excited state transition velocity dipole moments (Au):
       state          X           Y           Z        Dip. S.      Osc.
         1         0.0000     -0.0846      0.0000      0.0072      0.0407
         2        -0.3013      0.0000      0.0000      0.0908      0.4768
         3        -0.1634      0.0000      0.0000      0.0267      0.1342
         4         0.0000      0.0000      0.0085      0.0001      0.0003
         5         0.0000      0.0000      0.0000      0.0000      0.0000
 Ground to excited state transition magnetic dipole moments (Au):
       state          X           Y           Z
         1         0.0000      0.0000      0.0000
         2         0.0000      0.0000     -1.4290
         3         0.0000      0.0000      0.4273
         4         0.1943      0.0000      0.0001
         5         0.0000     -0.0682      0.0000
 Ground to excited state transition velocity quadrupole moments (Au):
       state          XX          YY          ZZ          XY          XZ          YZ
         1         0.3366      0.0226     -0.0123      0.0000      0.0000      0.0000
         2         0.0000      0.0000      0.0000     -0.2490      0.0000      0.0000
         3         0.0000      0.0000      0.0000      0.2300      0.0000      0.0000
         4         0.0001      0.0000      0.0000      0.0000      0.0000      0.0584
         5         0.0000      0.0000      0.0000      0.0000     -0.0209      0.0000
 <0|del|b> * <b|rxdel|0> + <0|del|b> * <b|delr+rdel|0>
 Rotatory Strengths (R) in cgs (10**-40 erg-esu-cm/Gauss)
       state          XX          YY          ZZ    R(velocity)    E-M Angle
         1        -0.0116      0.0000     -0.0081     -0.0066       90.00
         2         0.0072      0.0081     -0.0079      0.0024       90.00
         3         0.0031      0.0111     -0.0019      0.0041       90.00
         4         0.0011      0.0035      0.0014      0.0020       90.00
         5        -0.0002      0.0000     -0.0004     -0.0002       90.00
 1/2[<0|r|b>*<b|rxdel|0> + (<0|rxdel|b>*<b|r|0>)*]
 Rotatory Strengths (R) in cgs (10**-40 erg-esu-cm/Gauss)
       state          XX          YY          ZZ     R(length)
         1         0.0000     -0.0182      0.0000     -0.0061
         2        -0.0048      0.0000      0.0104      0.0018
         3         0.0080      0.0000      0.0046      0.0042
         4         0.0041      0.0000      0.0023      0.0021
         5         0.0000     -0.0005      0.0000     -0.0002
  1/2[<0|del|b>*<b|r|0> + (<0|r|b>*<b|del|0>)*] (Au)
       state          X           Y           Z        Dip. S.   Osc.(frdel)
         1         0.0000     -0.0563      0.0000      0.0563      0.0375
         2        -0.7043      0.0000      0.0000      0.7043      0.4695
         3        -0.1929      0.0000      0.0000      0.1929      0.1286
         4         0.0000      0.0000     -0.0005      0.0005      0.0003
         5         0.0000      0.0000      0.0000      0.0000      0.0000

 Excitation energies and oscillator strengths:
 
 Excited State   1:      Singlet-A      3.1907 eV  388.57 nm  f=0.0346  <S**2>=0.000
      47 -> 48         0.70237
 This state for optimization and/or second-order correction.
 Total Energy, E(TD-HF/TD-KS) =  -539.563499308    
 Copying the excited state density for this state as the 1-particle RhoCI density.
 
 Excited State   2:      Singlet-A      3.4552 eV  358.84 nm  f=0.4624  <S**2>=0.000
      45 -> 48        -0.17940
      46 -> 48         0.67548
 
 Excited State   3:      Singlet-A      3.6113 eV  343.32 nm  f=0.1233  <S**2>=0.000
      45 -> 48         0.67683
      46 -> 48         0.18074
 
 Excited State   4:      Singlet-A      4.9068 eV  252.68 nm  f=0.0004  <S**2>=0.000
      37 -> 48        -0.10125
      43 -> 48         0.68688
 
 Excited State   5:      Singlet-A      4.9532 eV  250.31 nm  f=0.0000  <S**2>=0.000
      42 -> 48         0.68627
 SavETr:  write IOETrn=   770 NScale= 10 NData=  16 NLR=1 NState=    5 LETran=     100.
          IDoAtm=1111111111111111111111111
          Differentiating once with respect to electric field.
                with respect to dipole field.
          Differentiating once with respect to nuclear coordinates.
          There are     1 degrees of freedom in the 1st order CPHF.  IDoFFX=0 NUNeed=     1.
 LinEq1:  Iter=  0 NonCon=     1 RMS=6.07D-03 Max=3.64D-01 NDo=     1
 AX will form     1 AO Fock derivatives at one time.
 LinEq1:  Iter=  1 NonCon=     1 RMS=2.04D-03 Max=1.42D-01 NDo=     1
 LinEq1:  Iter=  2 NonCon=     1 RMS=1.60D-03 Max=1.18D-01 NDo=     1
 LinEq1:  Iter=  3 NonCon=     1 RMS=4.52D-04 Max=1.86D-02 NDo=     1
 LinEq1:  Iter=  4 NonCon=     1 RMS=2.37D-04 Max=1.21D-02 NDo=     1
 LinEq1:  Iter=  5 NonCon=     1 RMS=1.22D-04 Max=6.03D-03 NDo=     1
 LinEq1:  Iter=  6 NonCon=     1 RMS=7.20D-05 Max=3.78D-03 NDo=     1
 LinEq1:  Iter=  7 NonCon=     1 RMS=2.72D-05 Max=1.29D-03 NDo=     1
 LinEq1:  Iter=  8 NonCon=     1 RMS=1.22D-05 Max=5.28D-04 NDo=     1
 LinEq1:  Iter=  9 NonCon=     1 RMS=5.44D-06 Max=2.65D-04 NDo=     1
 LinEq1:  Iter= 10 NonCon=     1 RMS=2.06D-06 Max=8.98D-05 NDo=     1
 LinEq1:  Iter= 11 NonCon=     1 RMS=9.40D-07 Max=3.06D-05 NDo=     1
 LinEq1:  Iter= 12 NonCon=     1 RMS=3.90D-07 Max=1.79D-05 NDo=     1
 LinEq1:  Iter= 13 NonCon=     1 RMS=1.46D-07 Max=4.26D-06 NDo=     1
 LinEq1:  Iter= 14 NonCon=     1 RMS=5.19D-08 Max=1.76D-06 NDo=     1
 LinEq1:  Iter= 15 NonCon=     1 RMS=1.87D-08 Max=3.86D-07 NDo=     1
 LinEq1:  Iter= 16 NonCon=     1 RMS=7.61D-09 Max=2.37D-07 NDo=     1
 LinEq1:  Iter= 17 NonCon=     1 RMS=1.87D-09 Max=5.92D-08 NDo=     1
 LinEq1:  Iter= 18 NonCon=     1 RMS=4.09D-10 Max=1.61D-08 NDo=     1
 LinEq1:  Iter= 19 NonCon=     1 RMS=8.89D-11 Max=2.71D-09 NDo=     1
 LinEq1:  Iter= 20 NonCon=     0 RMS=1.30D-11 Max=3.49D-10 NDo=     1
 Linear equations converged to 1.000D-10 1.000D-09 after    20 iterations.
 End of Minotr F.D. properties file   721 does not exist.
 End of Minotr F.D. properties file   722 does not exist.
 End of Minotr F.D. properties file   788 does not exist.

 **********************************************************************

            Population analysis using the SCF density.

 **********************************************************************

 Orbital symmetries:
       Occupied  (A) (A) (A) (A) (A) (A) (A) (A) (A) (A) (A) (A)
                 (A) (A) (A) (A) (A) (A) (A) (A) (A) (A) (A) (A)
                 (A) (A) (A) (A) (A) (A) (A) (A) (A) (A) (A) (A)
                 (A) (A) (A) (A) (A) (A) (A) (A) (A) (A) (A)
       Virtual   (A) (A) (A) (A) (A) (A) (A) (A) (A) (A) (A) (A)
                 (A) (A) (A) (A) (A) (A) (A) (A) (A) (A) (A) (A)
                 (A) (A) (A) (A) (A) (A) (A) (A) (A) (A) (A) (A)
                 (A) (A) (A) (A) (A) (A) (A) (A) (A) (A) (A) (A)
                 (A) (A) (A) (A) (A) (A) (A) (A) (A) (A) (A) (A)
                 (A) (A) (A) (A) (A) (A) (A) (A) (A) (A) (A) (A)
                 (A) (A) (A) (A) (A) (A) (A) (A) (A) (A) (A) (A)
                 (A) (A) (A) (A) (A) (A) (A) (A) (A) (A) (A) (A)
                 (A) (A) (A) (A) (A) (A) (A) (A) (A) (A) (A) (A)
                 (A) (A) (A) (A) (A) (A) (A) (A) (A) (A) (A) (A)
                 (A) (A) (A) (A) (A) (A) (A) (A) (A) (A) (A) (A)
                 (A) (A) (A) (A) (A) (A) (A) (A) (A) (A) (A) (A)
                 (A) (A) (A) (A) (A) (A) (A) (A) (A) (A) (A) (A)
                 (A) (A) (A) (A) (A) (A) (A) (A) (A) (A) (A) (A)
                 (A) (A) (A) (A) (A) (A) (A) (A) (A) (A) (A) (A)
                 (A) (A) (A) (A) (A) (A) (A) (A) (A) (A) (A) (A)
                 (A) (A) (A) (A) (A) (A) (A) (A) (A) (A) (A) (A)
                 (A) (A) (A) (A) (A) (A) (A) (A) (A) (A) (A) (A)
                 (A) (A) (A) (A) (A) (A) (A) (A) (A) (A) (A) (A)
                 (A) (A) (A) (A) (A) (A) (A) (A) (A) (A) (A) (A)
                 (A) (A) (A) (A) (A) (A) (A) (A) (A) (A) (A) (A)
                 (A) (A) (A) (A) (A) (A) (A) (A) (A) (A) (A) (A)
                 (A) (A) (A) (A) (A) (A) (A) (A) (A) (A) (A) (A)
                 (A) (A) (A) (A) (A) (A) (A) (A) (A) (A) (A) (A)
                 (A) (A) (A) (A) (A) (A) (A) (A) (A) (A) (A) (A)
                 (A) (A) (A) (A) (A) (A) (A) (A) (A) (A) (A) (A)
                 (A) (A) (A) (A) (A) (A) (A) (A) (A) (A) (A) (A)
                 (A) (A) (A) (A) (A) (A) (A) (A) (A) (A) (A) (A)
                 (A) (A) (A) (A) (A) (A) (A) (A) (A) (A) (A) (A)
                 (A) (A) (A) (A) (A) (A) (A) (A) (A) (A) (A) (A)
                 (A) (A) (A) (A) (A) (A) (A) (A) (A) (A) (A) (A)
                 (A) (A) (A) (A) (A) (A) (A) (A) (A) (A) (A) (A)
                 (A) (A) (A) (A) (A) (A) (A) (A) (A) (A) (A) (A)
                 (A) (A) (A) (A)
 The electronic state is 1-A.
 Alpha  occ. eigenvalues --  -10.76853 -10.73706 -10.73705 -10.72550 -10.72550
 Alpha  occ. eigenvalues --  -10.71767 -10.71767 -10.71729 -10.71729 -10.71651
 Alpha  occ. eigenvalues --  -10.70329 -10.70329 -10.70028 -10.70028  -1.15268
 Alpha  occ. eigenvalues --   -1.11511  -1.05988  -1.04935  -1.00460  -0.99431
 Alpha  occ. eigenvalues --   -0.95428  -0.89818  -0.85362  -0.85206  -0.82881
 Alpha  occ. eigenvalues --   -0.77642  -0.75016  -0.73405  -0.68714  -0.68500
 Alpha  occ. eigenvalues --   -0.67523  -0.67196  -0.67127  -0.64041  -0.63266
 Alpha  occ. eigenvalues --   -0.62247  -0.60958  -0.59543  -0.59019  -0.58363
 Alpha  occ. eigenvalues --   -0.55984  -0.54088  -0.54023  -0.51693  -0.46599
 Alpha  occ. eigenvalues --   -0.44725  -0.44701
 Alpha virt. eigenvalues --   -0.24867  -0.13435  -0.12776  -0.11261  -0.05643
 Alpha virt. eigenvalues --    0.00343   0.01101   0.01354   0.02886   0.03944
 Alpha virt. eigenvalues --    0.05384   0.05655   0.06804   0.07938   0.07972
 Alpha virt. eigenvalues --    0.08896   0.10072   0.12525   0.12705   0.12982
 Alpha virt. eigenvalues --    0.15989   0.17760   0.17835   0.19226   0.20635
 Alpha virt. eigenvalues --    0.21041   0.21417   0.23731   0.26450   0.28262
 Alpha virt. eigenvalues --    0.32684   0.33534   0.33598   0.34242   0.35920
 Alpha virt. eigenvalues --    0.36250   0.37087   0.37529   0.39565   0.40092
 Alpha virt. eigenvalues --    0.40207   0.40612   0.40691   0.41472   0.42126
 Alpha virt. eigenvalues --    0.42434   0.43852   0.43875   0.45118   0.45643
 Alpha virt. eigenvalues --    0.46110   0.47328   0.47463   0.47731   0.47985
 Alpha virt. eigenvalues --    0.50071   0.52827   0.55979   0.56036   0.57316
 Alpha virt. eigenvalues --    0.58747   0.61838   0.62044   0.63267   0.63341
 Alpha virt. eigenvalues --    0.64249   0.64923   0.64942   0.65436   0.66610
 Alpha virt. eigenvalues --    0.66811   0.67899   0.68043   0.68418   0.69851
 Alpha virt. eigenvalues --    0.70392   0.72243   0.72273   0.72274   0.74039
 Alpha virt. eigenvalues --    0.74535   0.74758   0.75206   0.76698   0.76712
 Alpha virt. eigenvalues --    0.76966   0.79216   0.80825   0.81263   0.82701
 Alpha virt. eigenvalues --    0.83050   0.83652   0.85627   0.86557   0.86934
 Alpha virt. eigenvalues --    0.89054   0.92083   0.93548   0.94987   0.95243
 Alpha virt. eigenvalues --    0.97341   1.01126   1.04407   1.04942   1.04964
 Alpha virt. eigenvalues --    1.06088   1.11162   1.12825   1.16038   1.18387
 Alpha virt. eigenvalues --    1.19041   1.20010   1.20382   1.22554   1.22880
 Alpha virt. eigenvalues --    1.23133   1.25261   1.26401   1.27122   1.28058
 Alpha virt. eigenvalues --    1.29639   1.30902   1.31126   1.31135   1.31685
 Alpha virt. eigenvalues --    1.35852   1.36247   1.37268   1.38012   1.38526
 Alpha virt. eigenvalues --    1.40649   1.43760   1.44492   1.46792   1.47132
 Alpha virt. eigenvalues --    1.49681   1.50360   1.53264   1.55974   1.58222
 Alpha virt. eigenvalues --    1.59044   1.59140   1.60393   1.61460   1.61975
 Alpha virt. eigenvalues --    1.62582   1.63048   1.66843   1.67771   1.72719
 Alpha virt. eigenvalues --    1.73633   1.78741   1.78847   1.79985   1.80945
 Alpha virt. eigenvalues --    1.81848   1.82698   1.85579   1.88352   1.90234
 Alpha virt. eigenvalues --    1.92584   1.95645   1.97064   1.99034   1.99130
 Alpha virt. eigenvalues --    2.01281   2.01924   2.05630   2.06116   2.06918
 Alpha virt. eigenvalues --    2.08272   2.10510   2.11468   2.11812   2.12562
 Alpha virt. eigenvalues --    2.13829   2.15009   2.16129   2.16670   2.19724
 Alpha virt. eigenvalues --    2.22424   2.28692   2.31825   2.33635   2.39977
 Alpha virt. eigenvalues --    2.41629   2.43731   2.44383   2.47516   2.50662
 Alpha virt. eigenvalues --    2.53663   2.53699   2.60260   2.61182   2.62456
 Alpha virt. eigenvalues --    2.62505   2.64646   2.65062   2.66574   2.68812
 Alpha virt. eigenvalues --    2.70443   2.72863   2.74652   2.74661   2.74746
 Alpha virt. eigenvalues --    2.78380   2.78484   2.79047   2.81600   2.81893
 Alpha virt. eigenvalues --    2.82097   2.86435   2.86636   2.86764   2.88818
 Alpha virt. eigenvalues --    2.89865   2.89960   2.90309   2.92274   2.94635
 Alpha virt. eigenvalues --    2.94640   2.94814   2.97148   2.97205   2.97632
 Alpha virt. eigenvalues --    2.98151   2.98431   2.99637   3.01010   3.01454
 Alpha virt. eigenvalues --    3.02534   3.04231   3.06198   3.06813   3.07281
 Alpha virt. eigenvalues --    3.08610   3.08716   3.08768   3.10960   3.12671
 Alpha virt. eigenvalues --    3.13225   3.14686   3.15477   3.16030   3.16352
 Alpha virt. eigenvalues --    3.17198   3.20314   3.20361   3.21079   3.21271
 Alpha virt. eigenvalues --    3.23345   3.28474   3.29676   3.30408   3.31141
 Alpha virt. eigenvalues --    3.31429   3.33247   3.36264   3.37147   3.38075
 Alpha virt. eigenvalues --    3.39251   3.39630   3.42201   3.43919   3.43936
 Alpha virt. eigenvalues --    3.45058   3.46722   3.48233   3.50171   3.50232
 Alpha virt. eigenvalues --    3.53151   3.54635   3.57168   3.60343   3.60720
 Alpha virt. eigenvalues --    3.61514   3.64524   3.65469   3.66522   3.67775
 Alpha virt. eigenvalues --    3.69865   3.72488   3.73602   3.74418   3.80443
 Alpha virt. eigenvalues --    3.82597   3.82819   3.82921   3.89584   3.92003
 Alpha virt. eigenvalues --    3.94148   3.96163   4.01926   4.04891   4.05657
 Alpha virt. eigenvalues --    4.09022   4.09080   4.13561   4.14473   4.20804
 Alpha virt. eigenvalues --    4.21739   4.23384   4.26558   4.27303   4.27656
 Alpha virt. eigenvalues --    4.27816   4.29027   4.29759   4.30770   4.31185
 Alpha virt. eigenvalues --    4.31777   4.32225   4.32929   4.34052   4.35794
 Alpha virt. eigenvalues --    4.36163   4.37103   4.37591   4.37791   4.38393
 Alpha virt. eigenvalues --    4.40927   4.41313   4.42413   4.43445   4.44437
 Alpha virt. eigenvalues --    4.45251   4.45577   4.46519   4.48824   4.49993
 Alpha virt. eigenvalues --    4.50027   4.50039   4.54963   4.57403   4.57587
 Alpha virt. eigenvalues --    4.60937   4.63812   4.64128   4.64877   4.66267
 Alpha virt. eigenvalues --    4.67885   4.73051   4.73067   4.75350   4.76380
 Alpha virt. eigenvalues --    4.77225   4.79146   4.81403   4.84638   4.84724
 Alpha virt. eigenvalues --    4.88852   4.91304   4.93674   4.98661   4.99595
 Alpha virt. eigenvalues --    5.02220   5.04097   5.07090   5.08045   5.11203
 Alpha virt. eigenvalues --    5.12405   5.16053   5.17647   5.20919   5.23945
 Alpha virt. eigenvalues --    5.24764   5.27296   5.31695   5.32546   5.40237
 Alpha virt. eigenvalues --    5.47583   5.49755   5.53402   5.55243   5.55316
 Alpha virt. eigenvalues --    5.58126   5.60548   5.67863   5.68957   5.71276
 Alpha virt. eigenvalues --    5.88331   5.99321   5.99664   6.97955   7.80068
 Alpha virt. eigenvalues --    8.41711   9.16774   9.37208   9.89077  10.21631
 Alpha virt. eigenvalues --   10.26377  10.43663  10.86075  11.23366  11.49523
 Alpha virt. eigenvalues --   11.54342  11.77935  12.00192  12.42528  12.88934
          Condensed to atoms (all electrons):
               1          2          3          4          5          6
     1  C    4.740395   0.561052   0.001728  -0.035773   0.000458   0.541943
     2  C    0.561052   4.900218   0.486739  -0.033621  -0.056575   0.007386
     3  C    0.001728   0.486739   4.454140   0.556416   0.007613  -0.043499
     4  C   -0.035773  -0.033621   0.556416   4.534104   0.529981   0.007836
     5  C    0.000458  -0.056575   0.007613   0.529981   4.884515   0.536251
     6  C    0.541943   0.007386  -0.043499   0.007836   0.536251   4.719401
     7  C    0.002754  -0.060710   0.452787   0.007629   0.006657   0.000116
     8  C    0.000028   0.008046  -0.009772   0.365768  -0.072039   0.003265
     9  C    0.000010  -0.000281  -0.025463  -0.025830   0.002436  -0.000080
    10  C   -0.000179   0.006608  -0.016804  -0.025463   0.001030   0.000005
    11  C   -0.000001  -0.000147   0.006608  -0.000281  -0.000016   0.000001
    12  H    0.000000  -0.000009   0.000397   0.000010   0.000000   0.000000
    13  C    0.000000  -0.000001  -0.000179   0.000010   0.000001   0.000000
    14  C    0.000000   0.000001   0.000005  -0.000080   0.000000   0.000000
    15  C    0.000001  -0.000016   0.001030   0.002436  -0.000167   0.000000
    16  H    0.000279  -0.007468  -0.028473   0.004508  -0.000043  -0.000034
    17  H    0.376052  -0.023723   0.000910   0.001394   0.001699  -0.027130
    18  H   -0.024616   0.376844  -0.039068   0.002290   0.001037   0.002124
    19  H    0.002271   0.000845   0.002472  -0.036295   0.380366  -0.028173
    20  H   -0.027553   0.001820   0.001440   0.001137  -0.026466   0.374788
    21  H    0.000028  -0.000135  -0.001258  -0.006874  -0.002799  -0.000149
    22  H    0.000000   0.000000   0.000001   0.000000   0.000000   0.000000
    23  H    0.000000   0.000000   0.000000   0.000001   0.000000   0.000000
    24  H    0.000000   0.000000  -0.000043   0.000467   0.000003   0.000000
    25  H    0.000028  -0.000135  -0.001259  -0.006876  -0.002799  -0.000149
               7          8          9         10         11         12
     1  C    0.002754   0.000028   0.000010  -0.000179  -0.000001   0.000000
     2  C   -0.060710   0.008046  -0.000281   0.006608  -0.000147  -0.000009
     3  C    0.452787  -0.009772  -0.025463  -0.016804   0.006608   0.000397
     4  C    0.007629   0.365768  -0.025830  -0.025463  -0.000281   0.000010
     5  C    0.006657  -0.072039   0.002436   0.001030  -0.000016   0.000000
     6  C    0.000116   0.003265  -0.000080   0.000005   0.000001   0.000000
     7  C    5.074349  -0.080048   0.007629   0.452787  -0.060710  -0.002719
     8  C   -0.080048   5.275063   0.365768  -0.009772   0.008046  -0.000109
     9  C    0.007629   0.365768   4.534104   0.556416  -0.033621   0.002290
    10  C    0.452787  -0.009772   0.556416   4.454140   0.486739  -0.039068
    11  C   -0.060710   0.008046  -0.033621   0.486739   4.900218   0.376844
    12  H   -0.002719  -0.000109   0.002290  -0.039068   0.376844   0.503803
    13  C    0.002754   0.000028  -0.035773   0.001728   0.561052  -0.024616
    14  C    0.000116   0.003265   0.007836  -0.043499   0.007386   0.002124
    15  C    0.006657  -0.072039   0.529981   0.007613  -0.056575   0.001037
    16  H    0.360919  -0.000428   0.004508  -0.028473  -0.007468   0.003756
    17  H   -0.000166   0.000011   0.000000   0.000001   0.000000   0.000000
    18  H   -0.002719  -0.000109   0.000010   0.000397  -0.000009   0.000002
    19  H   -0.000031  -0.004636   0.000467  -0.000043   0.000000   0.000000
    20  H    0.000007  -0.000134   0.000001   0.000000   0.000000   0.000000
    21  H    0.001787   0.340331  -0.006873  -0.001259  -0.000135   0.000002
    22  H   -0.000166   0.000011   0.001394   0.000910  -0.023723  -0.003056
    23  H    0.000007  -0.000134   0.001137   0.001440   0.001820  -0.000156
    24  H   -0.000031  -0.004636  -0.036295   0.002472   0.000845   0.000019
    25  H    0.001787   0.340333  -0.006877  -0.001258  -0.000135   0.000002
              13         14         15         16         17         18
     1  C    0.000000   0.000000   0.000001   0.000279   0.376052  -0.024616
     2  C   -0.000001   0.000001  -0.000016  -0.007468  -0.023723   0.376844
     3  C   -0.000179   0.000005   0.001030  -0.028473   0.000910  -0.039068
     4  C    0.000010  -0.000080   0.002436   0.004508   0.001394   0.002290
     5  C    0.000001   0.000000  -0.000167  -0.000043   0.001699   0.001037
     6  C    0.000000   0.000000   0.000000  -0.000034  -0.027130   0.002124
     7  C    0.002754   0.000116   0.006657   0.360919  -0.000166  -0.002719
     8  C    0.000028   0.003265  -0.072039  -0.000428   0.000011  -0.000109
     9  C   -0.035773   0.007836   0.529981   0.004508   0.000000   0.000010
    10  C    0.001728  -0.043499   0.007613  -0.028473   0.000001   0.000397
    11  C    0.561052   0.007386  -0.056575  -0.007468   0.000000  -0.000009
    12  H   -0.024616   0.002124   0.001037   0.003756   0.000000   0.000002
    13  C    4.740395   0.541943   0.000458   0.000279   0.000000   0.000000
    14  C    0.541943   4.719401   0.536251  -0.000034   0.000000   0.000000
    15  C    0.000458   0.536251   4.884515  -0.000043   0.000000   0.000000
    16  H    0.000279  -0.000034  -0.000043   0.491585  -0.000006   0.003756
    17  H    0.000000   0.000000   0.000000  -0.000006   0.489449  -0.003056
    18  H    0.000000   0.000000   0.000000   0.003756  -0.003056   0.503803
    19  H    0.000000   0.000000   0.000003   0.000003  -0.000139   0.000019
    20  H    0.000000   0.000000   0.000000   0.000000  -0.002974  -0.000156
    21  H    0.000028  -0.000149  -0.002799   0.000023   0.000000   0.000002
    22  H    0.376052  -0.027130   0.001699  -0.000006   0.000000   0.000000
    23  H   -0.027553   0.374788  -0.026466   0.000000   0.000000   0.000000
    24  H    0.002271  -0.028173   0.380366   0.000003   0.000000   0.000000
    25  H    0.000028  -0.000149  -0.002799   0.000023   0.000000   0.000002
              19         20         21         22         23         24
     1  C    0.002271  -0.027553   0.000028   0.000000   0.000000   0.000000
     2  C    0.000845   0.001820  -0.000135   0.000000   0.000000   0.000000
     3  C    0.002472   0.001440  -0.001258   0.000001   0.000000  -0.000043
     4  C   -0.036295   0.001137  -0.006874   0.000000   0.000001   0.000467
     5  C    0.380366  -0.026466  -0.002799   0.000000   0.000000   0.000003
     6  C   -0.028173   0.374788  -0.000149   0.000000   0.000000   0.000000
     7  C   -0.000031   0.000007   0.001787  -0.000166   0.000007  -0.000031
     8  C   -0.004636  -0.000134   0.340331   0.000011  -0.000134  -0.004636
     9  C    0.000467   0.000001  -0.006873   0.001394   0.001137  -0.036295
    10  C   -0.000043   0.000000  -0.001259   0.000910   0.001440   0.002472
    11  C    0.000000   0.000000  -0.000135  -0.023723   0.001820   0.000845
    12  H    0.000000   0.000000   0.000002  -0.003056  -0.000156   0.000019
    13  C    0.000000   0.000000   0.000028   0.376052  -0.027553   0.002271
    14  C    0.000000   0.000000  -0.000149  -0.027130   0.374788  -0.028173
    15  C    0.000003   0.000000  -0.002799   0.001699  -0.026466   0.380366
    16  H    0.000003   0.000000   0.000023  -0.000006   0.000000   0.000003
    17  H   -0.000139  -0.002974   0.000000   0.000000   0.000000   0.000000
    18  H    0.000019  -0.000156   0.000002   0.000000   0.000000   0.000000
    19  H    0.509876  -0.003488   0.001355   0.000000   0.000000   0.000002
    20  H   -0.003488   0.488370  -0.000001   0.000000   0.000000   0.000000
    21  H    0.001355  -0.000001   0.482321   0.000000  -0.000001   0.001355
    22  H    0.000000   0.000000   0.000000   0.489449  -0.002974  -0.000139
    23  H    0.000000   0.000000  -0.000001  -0.002974   0.488370  -0.003488
    24  H    0.000002   0.000000   0.001355  -0.000139  -0.003488   0.509876
    25  H    0.001355  -0.000001  -0.023097   0.000000  -0.000001   0.001356
              25
     1  C    0.000028
     2  C   -0.000135
     3  C   -0.001259
     4  C   -0.006876
     5  C   -0.002799
     6  C   -0.000149
     7  C    0.001787
     8  C    0.340333
     9  C   -0.006877
    10  C   -0.001258
    11  C   -0.000135
    12  H    0.000002
    13  C    0.000028
    14  C   -0.000149
    15  C   -0.002799
    16  H    0.000023
    17  H    0.000000
    18  H    0.000002
    19  H    0.001355
    20  H   -0.000001
    21  H   -0.023097
    22  H    0.000000
    23  H   -0.000001
    24  H    0.001356
    25  H    0.482327
 Mulliken charges:
               1
     1  C   -0.138906
     2  C   -0.166736
     3  C    0.193530
     4  C    0.157105
     5  C   -0.191142
     6  C   -0.093902
     7  C   -0.171438
     8  C   -0.456108
     9  C    0.157105
    10  C    0.193530
    11  C   -0.166736
    12  H    0.179446
    13  C   -0.138906
    14  C   -0.093902
    15  C   -0.191142
    16  H    0.202836
    17  H    0.187679
    18  H    0.179446
    19  H    0.173772
    20  H    0.193212
    21  H    0.218301
    22  H    0.187679
    23  H    0.193212
    24  H    0.173772
    25  H    0.218296
 Sum of Mulliken charges =   1.00000
 Mulliken charges with hydrogens summed into heavy atoms:
               1
     1  C    0.048773
     2  C    0.012710
     3  C    0.193530
     4  C    0.157105
     5  C   -0.017371
     6  C    0.099310
     7  C    0.031397
     8  C   -0.019511
     9  C    0.157105
    10  C    0.193530
    11  C    0.012710
    13  C    0.048773
    14  C    0.099310
    15  C   -0.017371
 Electronic spatial extent (au):  <R**2>=           2857.3462
 Charge=              1.0000 electrons
 Dipole moment (field-independent basis, Debye):
    X=              0.0000    Y=             -0.1151    Z=              0.0000  Tot=              0.1151
 Quadrupole moment (field-independent basis, Debye-Ang):
   XX=            -29.6329   YY=            -55.8552   ZZ=            -81.7372
   XY=              0.0000   XZ=              0.0002   YZ=              0.0000
 Traceless Quadrupole moment (field-independent basis, Debye-Ang):
   XX=             26.1089   YY=             -0.1134   ZZ=            -25.9954
   XY=              0.0000   XZ=              0.0002   YZ=              0.0000
 Octapole moment (field-independent basis, Debye-Ang**2):
  XXX=              0.0000  YYY=             -4.4228  ZZZ=              0.0004  XYY=              0.0000
  XXY=              1.2962  XXZ=             -0.0028  XZZ=              0.0000  YZZ=              3.0229
  YYZ=             -0.0004  XYZ=              0.0030
 Hexadecapole moment (field-independent basis, Debye-Ang**3):
 XXXX=          -2088.0553 YYYY=           -614.7527 ZZZZ=            -88.5101 XXXY=              0.0000
 XXXZ=              0.0055 YYYX=              0.0000 YYYZ=             -0.0008 ZZZX=              0.0005
 ZZZY=              0.0005 XXYY=           -499.6169 XXZZ=           -569.1098 YYZZ=           -141.4604
 XXYZ=             -0.0012 YYXZ=              0.0002 ZZXY=              0.0000
 N-N= 7.797166015949D+02 E-N=-2.793694633445D+03  KE= 5.351315200538D+02
 Calling FoFJK, ICntrl=  10005127 FMM=F ISym2X=0 I1Cent= 0 IOpClX= 0 NMat=1 NMatS=1 NMatT=0.
 ***** Axes restored to original set *****
 -------------------------------------------------------------------
 Center     Atomic                   Forces (Hartrees/Bohr)
 Number     Number              X              Y              Z
 -------------------------------------------------------------------
      1        6           0.015550171    0.024319853    0.000001276
      2        6          -0.029419665    0.003429812   -0.000001072
      3        6           0.006628037    0.006898399    0.000003984
      4        6          -0.015964033   -0.020292634   -0.000001801
      5        6           0.013070882    0.002435415   -0.000000549
      6        6           0.009391864   -0.005222817   -0.000000794
      7        6           0.000000000   -0.018565626    0.000000189
      8        6          -0.000000002   -0.013988825   -0.000010445
      9        6           0.015964030   -0.020292627    0.000001839
     10        6          -0.006628038    0.006898393   -0.000004485
     11        6           0.029419671    0.003429812    0.000002727
     12        1           0.000876541   -0.000488703   -0.000000063
     13        6          -0.015550172    0.024319850   -0.000003111
     14        6          -0.009391867   -0.005222812    0.000000233
     15        6          -0.013070880    0.002435413    0.000000731
     16        1           0.000000000    0.001056925   -0.000000030
     17        1           0.000574743   -0.000026784    0.000000123
     18        1          -0.000876541   -0.000488702    0.000000648
     19        1           0.000008118    0.001044456    0.000000450
     20        1          -0.000579546   -0.000380028   -0.000000168
     21        1           0.000000279    0.004035215    0.002100947
     22        1          -0.000574744   -0.000026785    0.000000131
     23        1           0.000579547   -0.000380029    0.000000420
     24        1          -0.000008118    0.001044455    0.000000467
     25        1          -0.000000278    0.004028374   -0.002091646
 -------------------------------------------------------------------
 Cartesian Forces:  Max     0.029419671 RMS     0.009026288

 GradGradGradGradGradGradGradGradGradGradGradGradGradGradGradGradGradGrad
 Berny optimization.
 FormGI is forming the generalized inverse of G from B-inverse, IUseBI=4.
 Internal  Forces:  Max     0.025682660 RMS     0.005526267
 Search for a local minimum.
 Step number   1 out of a maximum of  150
 All quantities printed in internal units (Hartrees-Bohrs-Radians)
 Mixed Optimization -- RFO/linear search
 Second derivative matrix not updated -- first step.
 ITU=  0
     Eigenvalues ---    0.00896   0.01398   0.01517   0.01632   0.01892
     Eigenvalues ---    0.01908   0.01922   0.02012   0.02048   0.02056
     Eigenvalues ---    0.02088   0.02089   0.02137   0.02139   0.02163
     Eigenvalues ---    0.02165   0.02194   0.02194   0.02249   0.02250
     Eigenvalues ---    0.04000   0.06618   0.10756   0.11571   0.16000
     Eigenvalues ---    0.16000   0.16000   0.16000   0.16000   0.16000
     Eigenvalues ---    0.16000   0.16000   0.16000   0.22000   0.22000
     Eigenvalues ---    0.22433   0.22595   0.23280   0.23888   0.24474
     Eigenvalues ---    0.24630   0.25000   0.31482   0.31939   0.33792
     Eigenvalues ---    0.33794   0.35136   0.35477   0.35477   0.35501
     Eigenvalues ---    0.35501   0.35506   0.35506   0.35680   0.35680
     Eigenvalues ---    0.36727   0.39101   0.40501   0.40725   0.42879
     Eigenvalues ---    0.43617   0.43671   0.44371   0.44900   0.44902
     Eigenvalues ---    0.46537   0.46553   0.49000   0.49009
 RFO step:  Lambda=-1.10860609D-02 EMin= 8.95695389D-03
 Linear search not attempted -- first point.
 Iteration  1 RMS(Cart)=  0.03978481 RMS(Int)=  0.00045589
 Iteration  2 RMS(Cart)=  0.00104342 RMS(Int)=  0.00003176
 Iteration  3 RMS(Cart)=  0.00000012 RMS(Int)=  0.00003176
 Variable       Old X    -DE/DX   Delta X   Delta X   Delta X     New X
                                 (Linear)    (Quad)   (Total)
    R1        2.60119   0.02568   0.00000   0.05062   0.05065   2.65184
    R2        2.65535  -0.01292   0.00000  -0.02742  -0.02736   2.62799
    R3        2.04585   0.00051   0.00000   0.00138   0.00138   2.04723
    R4        2.68680  -0.01355   0.00000  -0.03193  -0.03195   2.65485
    R5        2.04869   0.00053   0.00000   0.00144   0.00144   2.05013
    R6        2.69590  -0.01217   0.00000  -0.02934  -0.02939   2.66651
    R7        2.65664   0.00883   0.00000   0.02097   0.02101   2.67765
    R8        2.62704   0.01824   0.00000   0.03758   0.03755   2.66460
    R9        2.83464  -0.00750   0.00000  -0.02459  -0.02463   2.81000
   R10        2.63435  -0.00247   0.00000  -0.00458  -0.00455   2.62979
   R11        2.04907   0.00104   0.00000   0.00285   0.00285   2.05192
   R12        2.04862  -0.00069   0.00000  -0.00189  -0.00189   2.04673
   R13        2.65664   0.00883   0.00000   0.02097   0.02101   2.67765
   R14        2.05455  -0.00106   0.00000  -0.00292  -0.00292   2.05163
   R15        2.83464  -0.00750   0.00000  -0.02459  -0.02463   2.81000
   R16        2.07679   0.00414   0.00000   0.01185   0.01185   2.08864
   R17        2.07683   0.00412   0.00000   0.01182   0.01182   2.08864
   R18        2.69590  -0.01217   0.00000  -0.02934  -0.02939   2.66651
   R19        2.62704   0.01824   0.00000   0.03758   0.03755   2.66460
   R20        2.68680  -0.01355   0.00000  -0.03193  -0.03195   2.65485
   R21        2.04869   0.00053   0.00000   0.00144   0.00144   2.05013
   R22        2.60119   0.02568   0.00000   0.05062   0.05065   2.65184
   R23        2.65535  -0.01292   0.00000  -0.02742  -0.02736   2.62799
   R24        2.04585   0.00051   0.00000   0.00138   0.00138   2.04723
   R25        2.63435  -0.00247   0.00000  -0.00458  -0.00455   2.62979
   R26        2.04862  -0.00069   0.00000  -0.00189  -0.00189   2.04673
   R27        2.04907   0.00104   0.00000   0.00285   0.00285   2.05192
    A1        2.08332   0.00316   0.00000   0.01508   0.01516   2.09848
    A2        2.10503  -0.00130   0.00000  -0.00590  -0.00594   2.09909
    A3        2.09484  -0.00186   0.00000  -0.00918  -0.00922   2.08562
    A4        2.09549   0.00541   0.00000   0.02213   0.02213   2.11761
    A5        2.10757  -0.00183   0.00000  -0.00595  -0.00595   2.10162
    A6        2.08013  -0.00358   0.00000  -0.01618  -0.01618   2.06395
    A7        2.09814  -0.00828   0.00000  -0.03570  -0.03580   2.06234
    A8        2.10289   0.00505   0.00000   0.01947   0.01950   2.12240
    A9        2.08215   0.00323   0.00000   0.01623   0.01630   2.09845
   A10        2.06925   0.00596   0.00000   0.02264   0.02258   2.09184
   A11        2.09720   0.00070   0.00000   0.00021   0.00018   2.09738
   A12        2.11674  -0.00666   0.00000  -0.02285  -0.02277   2.09397
   A13        2.10113   0.00325   0.00000   0.01463   0.01462   2.11576
   A14        2.09461  -0.00167   0.00000  -0.00758  -0.00758   2.08703
   A15        2.08744  -0.00158   0.00000  -0.00705  -0.00705   2.08039
   A16        2.11904  -0.00950   0.00000  -0.03878  -0.03870   2.08034
   A17        2.08331   0.00469   0.00000   0.01903   0.01899   2.10230
   A18        2.08084   0.00481   0.00000   0.01975   0.01971   2.10054
   A19        2.16835  -0.01048   0.00000  -0.03943  -0.03936   2.12898
   A20        2.05742   0.00524   0.00000   0.01972   0.01968   2.07710
   A21        2.05742   0.00524   0.00000   0.01972   0.01968   2.07710
   A22        2.03933   0.00263   0.00000   0.00656   0.00640   2.04573
   A23        1.89822  -0.00050   0.00000   0.00198   0.00200   1.90021
   A24        1.89821  -0.00049   0.00000   0.00200   0.00201   1.90022
   A25        1.89821  -0.00050   0.00000   0.00199   0.00200   1.90021
   A26        1.89822  -0.00050   0.00000   0.00199   0.00200   1.90022
   A27        1.81898  -0.00105   0.00000  -0.01743  -0.01743   1.80155
   A28        2.09720   0.00070   0.00000   0.00021   0.00018   2.09738
   A29        2.11674  -0.00666   0.00000  -0.02285  -0.02277   2.09397
   A30        2.06925   0.00596   0.00000   0.02264   0.02258   2.09184
   A31        2.08215   0.00323   0.00000   0.01623   0.01630   2.09845
   A32        2.10289   0.00505   0.00000   0.01947   0.01950   2.12240
   A33        2.09814  -0.00828   0.00000  -0.03570  -0.03580   2.06234
   A34        2.08013  -0.00358   0.00000  -0.01618  -0.01618   2.06395
   A35        2.09549   0.00541   0.00000   0.02213   0.02213   2.11761
   A36        2.10757  -0.00183   0.00000  -0.00595  -0.00595   2.10162
   A37        2.08332   0.00316   0.00000   0.01508   0.01516   2.09848
   A38        2.10503  -0.00130   0.00000  -0.00590  -0.00594   2.09909
   A39        2.09484  -0.00186   0.00000  -0.00918  -0.00922   2.08562
   A40        2.11904  -0.00950   0.00000  -0.03878  -0.03870   2.08034
   A41        2.08331   0.00469   0.00000   0.01903   0.01899   2.10230
   A42        2.08084   0.00481   0.00000   0.01975   0.01971   2.10054
   A43        2.10113   0.00325   0.00000   0.01463   0.01462   2.11576
   A44        2.09461  -0.00167   0.00000  -0.00758  -0.00758   2.08703
   A45        2.08744  -0.00158   0.00000  -0.00705  -0.00705   2.08039
    D1        0.00001   0.00000   0.00000  -0.00001  -0.00001   0.00000
    D2        3.14159   0.00000   0.00000   0.00000   0.00000   3.14159
    D3       -3.14159   0.00000   0.00000  -0.00001  -0.00001   3.14159
    D4       -0.00001   0.00000   0.00000   0.00000   0.00000  -0.00001
    D5       -0.00002   0.00000   0.00000   0.00001   0.00001  -0.00001
    D6        3.14158   0.00000   0.00000   0.00000   0.00000   3.14158
    D7        3.14158   0.00000   0.00000   0.00001   0.00001   3.14159
    D8       -0.00001   0.00000   0.00000   0.00000   0.00000  -0.00001
    D9        0.00001   0.00000   0.00000   0.00000   0.00000   0.00001
   D10       -3.14154   0.00000   0.00000  -0.00002  -0.00002  -3.14157
   D11       -3.14157   0.00000   0.00000   0.00000   0.00000  -3.14157
   D12        0.00006   0.00000   0.00000  -0.00003  -0.00003   0.00003
   D13       -0.00002   0.00000   0.00000   0.00000   0.00000  -0.00002
   D14        3.14157   0.00000   0.00000   0.00001   0.00001   3.14158
   D15        3.14153   0.00000   0.00000   0.00003   0.00003   3.14156
   D16       -0.00007   0.00000   0.00000   0.00004   0.00004  -0.00003
   D17       -3.14157   0.00000   0.00000   0.00000   0.00000  -3.14157
   D18        0.00000   0.00000   0.00000   0.00001   0.00001   0.00001
   D19        0.00006   0.00000   0.00000  -0.00002  -0.00002   0.00004
   D20       -3.14155   0.00000   0.00000  -0.00002  -0.00002  -3.14157
   D21        0.00001   0.00000   0.00000   0.00000   0.00000   0.00001
   D22       -3.14159   0.00000   0.00000   0.00001   0.00001  -3.14158
   D23       -3.14158   0.00000   0.00000  -0.00001  -0.00001  -3.14158
   D24        0.00001   0.00000   0.00000   0.00000   0.00000   0.00001
   D25        0.00000   0.00000   0.00000  -0.00001  -0.00001  -0.00002
   D26        2.15623   0.00087   0.00000   0.00919   0.00919   2.16542
   D27       -2.15625  -0.00087   0.00000  -0.00922  -0.00922  -2.16546
   D28        3.14158   0.00000   0.00000   0.00000   0.00000   3.14158
   D29       -0.98537   0.00087   0.00000   0.00920   0.00920  -0.97617
   D30        0.98534  -0.00087   0.00000  -0.00921  -0.00921   0.97613
   D31        0.00001   0.00000   0.00000  -0.00001  -0.00001   0.00000
   D32       -3.14159   0.00000   0.00000   0.00000   0.00000  -3.14159
   D33       -3.14158   0.00000   0.00000  -0.00001  -0.00001  -3.14159
   D34        0.00001   0.00000   0.00000  -0.00001  -0.00001   0.00001
   D35        0.00002   0.00000   0.00000  -0.00001  -0.00001   0.00001
   D36        3.14155   0.00000   0.00000   0.00002   0.00002   3.14157
   D37       -3.14155   0.00000   0.00000  -0.00002  -0.00002  -3.14157
   D38       -0.00002   0.00000   0.00000   0.00002   0.00002  -0.00001
   D39        0.00008   0.00000   0.00000  -0.00003  -0.00002   0.00006
   D40       -3.14150   0.00000   0.00000  -0.00003  -0.00003  -3.14154
   D41       -2.15615  -0.00087   0.00000  -0.00922  -0.00922  -2.16537
   D42        0.98544  -0.00087   0.00000  -0.00923  -0.00923   0.97621
   D43        2.15632   0.00087   0.00000   0.00919   0.00919   2.16551
   D44       -0.98527   0.00087   0.00000   0.00918   0.00918  -0.97609
   D45       -0.00010   0.00000   0.00000   0.00004   0.00004  -0.00006
   D46        3.14156   0.00000   0.00000   0.00000   0.00000   3.14156
   D47        3.14149   0.00000   0.00000   0.00005   0.00005   3.14154
   D48       -0.00003   0.00000   0.00000   0.00001   0.00001  -0.00003
   D49       -3.14155   0.00000   0.00000  -0.00001  -0.00001  -3.14156
   D50        0.00004   0.00000   0.00000  -0.00001  -0.00001   0.00003
   D51        0.00004   0.00000   0.00000  -0.00002  -0.00002   0.00003
   D52       -3.14155   0.00000   0.00000  -0.00002  -0.00002  -3.14157
   D53        0.00007   0.00000   0.00000  -0.00003  -0.00003   0.00004
   D54       -3.14153   0.00000   0.00000  -0.00003  -0.00003  -3.14156
   D55       -3.14159   0.00000   0.00000   0.00001   0.00001  -3.14158
   D56       -0.00001   0.00000   0.00000   0.00001   0.00001   0.00000
   D57        0.00004   0.00000   0.00000  -0.00002  -0.00002   0.00002
   D58       -3.14158   0.00000   0.00000   0.00000   0.00000  -3.14158
   D59       -3.14156   0.00000   0.00000  -0.00002  -0.00002  -3.14158
   D60        0.00000   0.00000   0.00000   0.00000   0.00000   0.00001
   D61       -0.00003   0.00000   0.00000   0.00002   0.00002  -0.00002
   D62        3.14155   0.00000   0.00000   0.00002   0.00002   3.14157
   D63        3.14159   0.00000   0.00000  -0.00001  -0.00001   3.14158
   D64       -0.00001   0.00000   0.00000   0.00000   0.00000  -0.00001
   D65       -0.00001   0.00000   0.00000   0.00000   0.00000   0.00000
   D66        3.14158   0.00000   0.00000   0.00000   0.00000   3.14159
   D67        3.14159   0.00000   0.00000   0.00000   0.00000   3.14159
   D68        0.00000   0.00000   0.00000   0.00000   0.00000   0.00000
         Item               Value     Threshold  Converged?
 Maximum Force            0.025683     0.000450     NO 
 RMS     Force            0.005526     0.000300     NO 
 Maximum Displacement     0.124751     0.001800     NO 
 RMS     Displacement     0.039671     0.001200     NO 
 Predicted change in Energy=-5.721127D-03
 GradGradGradGradGradGradGradGradGradGradGradGradGradGradGradGradGradGrad

                          Input orientation:                          
 ---------------------------------------------------------------------
 Center     Atomic      Atomic             Coordinates (Angstroms)
 Number     Number       Type             X           Y           Z
 ---------------------------------------------------------------------
      1          6           0        3.687273   -0.732433   -0.000039
      2          6           0        2.463303   -1.418819   -0.000044
      3          6           0        1.239184   -0.729444   -0.000009
      4          6           0        1.269302    0.681289    0.000015
      5          6           0        2.506939    1.356920    0.000027
      6          6           0        3.710351    0.658046    0.000001
      7          6           0        0.000000   -1.416595    0.000019
      8          6           0        0.000000    1.455894    0.000031
      9          6           0       -1.269302    0.681289   -0.000001
     10          6           0       -1.239184   -0.729444    0.000028
     11          6           0       -2.463303   -1.418819    0.000033
     12          1           0       -2.441894   -2.503488    0.000064
     13          6           0       -3.687273   -0.732433    0.000004
     14          6           0       -3.710351    0.658046   -0.000050
     15          6           0       -2.506939    1.356920   -0.000055
     16          1           0        0.000000   -2.502272    0.000023
     17          1           0        4.621215   -1.281424   -0.000064
     18          1           0        2.441894   -2.503488   -0.000081
     19          1           0        2.524901    2.442601    0.000055
     20          1           0        4.652998    1.191417    0.000014
     21          1           0       -0.000004    2.142233    0.866370
     22          1           0       -4.621215   -1.281424    0.000017
     23          1           0       -4.652998    1.191417   -0.000091
     24          1           0       -2.524901    2.442601   -0.000103
     25          1           0        0.000004    2.142300   -0.866255
 ---------------------------------------------------------------------
                    Distance matrix (angstroms):
                    1          2          3          4          5
     1  C    0.000000
     2  C    1.403292   0.000000
     3  C    2.448090   1.404886   0.000000
     4  C    2.800927   2.415800   1.411054   0.000000
     5  C    2.399704   2.776082   2.441335   1.410044   0.000000
     6  C    1.390670   2.422498   2.834042   2.441159   1.391626
     7  C    3.750208   2.463304   1.416952   2.451988   3.738600
     8  C    4.287744   3.785741   2.512226   1.486991   2.508892
     9  C    5.154245   4.282849   2.877963   2.538605   3.836206
    10  C    4.926458   3.766119   2.478368   2.877963   4.287931
    11  C    6.188757   4.926606   3.766119   4.282849   5.692806
    12  H    6.379915   5.023690   4.086266   4.890376   6.276440
    13  C    7.374546   6.188757   4.926458   5.154245   6.537099
    14  C    7.527168   6.513630   5.140333   4.979707   6.256446
    15  C    6.537099   5.692806   4.287931   3.836206   5.013879
    16  H    4.090026   2.691047   2.162983   3.427271   4.601968
    17  H    1.083346   2.162281   3.426779   3.884270   3.380979
    18  H    2.165088   1.084880   2.143302   3.393784   3.860956
    19  H    3.381116   3.861911   3.422709   2.163041   1.085829
    20  H    2.152631   3.407066   3.917121   3.421934   2.152431
    21  H    4.755037   4.415841   3.245417   2.120393   2.766231
    22  H    8.326605   7.085850   5.886336   6.208899   7.600752
    23  H    8.559283   7.579913   6.197380   5.944230   7.161850
[...]
 The electronic state is 1-A.
 Alpha  occ. eigenvalues --  -10.78024 -10.73503 -10.73503 -10.72695 -10.72694
 Alpha  occ. eigenvalues --  -10.71762 -10.71762 -10.71481 -10.71481 -10.71386
 Alpha  occ. eigenvalues --  -10.70381 -10.70381 -10.70091 -10.70091  -1.15528
 Alpha  occ. eigenvalues --   -1.11545  -1.06071  -1.04907  -1.00480  -0.99357
 Alpha  occ. eigenvalues --   -0.94995  -0.90223  -0.85553  -0.85064  -0.83004
 Alpha  occ. eigenvalues --   -0.77641  -0.75040  -0.73493  -0.68709  -0.68502
 Alpha  occ. eigenvalues --   -0.67662  -0.67415  -0.67236  -0.63818  -0.63388
 Alpha  occ. eigenvalues --   -0.62106  -0.60998  -0.59371  -0.59030  -0.58278
 Alpha  occ. eigenvalues --   -0.56036  -0.54345  -0.53913  -0.51805  -0.45957
 Alpha  occ. eigenvalues --   -0.45392  -0.43876
 Alpha virt. eigenvalues --   -0.25364  -0.13211  -0.13051  -0.11521  -0.05835
 Alpha virt. eigenvalues --    0.00507   0.01082   0.01110   0.02909   0.03713
 Alpha virt. eigenvalues --    0.05471   0.05755   0.07186   0.07659   0.07957
 Alpha virt. eigenvalues --    0.08935   0.10220   0.12560   0.12690   0.13157
 Alpha virt. eigenvalues --    0.16049   0.17551   0.17776   0.18614   0.20904
 Alpha virt. eigenvalues --    0.21021   0.21409   0.23950   0.26141   0.28279
 Alpha virt. eigenvalues --    0.32773   0.33245   0.33928   0.34715   0.36011
 Alpha virt. eigenvalues --    0.36144   0.36676   0.37470   0.39903   0.40102
 Alpha virt. eigenvalues --    0.40229   0.40725   0.40910   0.41231   0.41709
 Alpha virt. eigenvalues --    0.42434   0.43165   0.44038   0.44853   0.45722
 Alpha virt. eigenvalues --    0.46628   0.47124   0.47471   0.48106   0.48421
 Alpha virt. eigenvalues --    0.50389   0.52671   0.55591   0.56051   0.57245
 Alpha virt. eigenvalues --    0.58641   0.61998   0.62138   0.62760   0.63780
 Alpha virt. eigenvalues --    0.64771   0.64843   0.65139   0.65359   0.66143
 Alpha virt. eigenvalues --    0.66423   0.67207   0.68131   0.68586   0.69915
 Alpha virt. eigenvalues --    0.70481   0.71047   0.72025   0.72145   0.74183
 Alpha virt. eigenvalues --    0.74502   0.74601   0.75859   0.76893   0.76950
 Alpha virt. eigenvalues --    0.77197   0.78943   0.80831   0.81401   0.81704
 Alpha virt. eigenvalues --    0.82835   0.84069   0.85260   0.86314   0.86605
 Alpha virt. eigenvalues --    0.89384   0.91575   0.93648   0.95088   0.95199
 Alpha virt. eigenvalues --    0.97931   1.00169   1.04577   1.05082   1.05430
 Alpha virt. eigenvalues --    1.05569   1.11878   1.12867   1.17118   1.17731
 Alpha virt. eigenvalues --    1.19899   1.19989   1.20986   1.21759   1.21981
 Alpha virt. eigenvalues --    1.23240   1.24690   1.26665   1.26900   1.27812
 Alpha virt. eigenvalues --    1.29602   1.30967   1.31359   1.31427   1.32324
 Alpha virt. eigenvalues --    1.35634   1.36498   1.36837   1.37580   1.38248
 Alpha virt. eigenvalues --    1.41114   1.43643   1.43780   1.47440   1.48120
 Alpha virt. eigenvalues --    1.48461   1.50593   1.53010   1.56821   1.57614
 Alpha virt. eigenvalues --    1.57756   1.59401   1.61537   1.61595   1.62575
 Alpha virt. eigenvalues --    1.63021   1.63082   1.66774   1.68181   1.71133
 Alpha virt. eigenvalues --    1.73817   1.78827   1.78880   1.79941   1.81463
 Alpha virt. eigenvalues --    1.81470   1.82568   1.84316   1.87057   1.89957
 Alpha virt. eigenvalues --    1.92736   1.95090   1.97314   1.98690   1.98983
 Alpha virt. eigenvalues --    2.02442   2.02839   2.04978   2.06058   2.07214
 Alpha virt. eigenvalues --    2.09415   2.11691   2.12049   2.12523   2.12708
 Alpha virt. eigenvalues --    2.14408   2.14983   2.15879   2.16567   2.20534
 Alpha virt. eigenvalues --    2.21815   2.28936   2.29602   2.34067   2.39986
 Alpha virt. eigenvalues --    2.41000   2.44077   2.45898   2.46072   2.50555
 Alpha virt. eigenvalues --    2.51598   2.54186   2.59957   2.60936   2.61412
 Alpha virt. eigenvalues --    2.62113   2.65091   2.65333   2.67234   2.68465
 Alpha virt. eigenvalues --    2.69897   2.72916   2.73748   2.74451   2.74665
 Alpha virt. eigenvalues --    2.78252   2.78777   2.79027   2.81162   2.82650
 Alpha virt. eigenvalues --    2.82889   2.86941   2.87447   2.87569   2.89411
 Alpha virt. eigenvalues --    2.89457   2.89948   2.90976   2.92859   2.93944
 Alpha virt. eigenvalues --    2.94028   2.95071   2.96397   2.96424   2.96484
 Alpha virt. eigenvalues --    2.97823   2.98514   2.99824   3.01044   3.01738
 Alpha virt. eigenvalues --    3.01931   3.03551   3.05849   3.06159   3.06933
 Alpha virt. eigenvalues --    3.08699   3.08733   3.09181   3.11264   3.12224
 Alpha virt. eigenvalues --    3.14293   3.14328   3.15886   3.16499   3.17388
 Alpha virt. eigenvalues --    3.17766   3.20275   3.20391   3.21076   3.21358
 Alpha virt. eigenvalues --    3.21790   3.29175   3.29291   3.29928   3.31233
 Alpha virt. eigenvalues --    3.31606   3.31693   3.36284   3.36727   3.38428
 Alpha virt. eigenvalues --    3.38783   3.39718   3.42659   3.43081   3.43689
 Alpha virt. eigenvalues --    3.45454   3.48044   3.48875   3.49663   3.52526
 Alpha virt. eigenvalues --    3.54662   3.55370   3.55485   3.59086   3.59582
 Alpha virt. eigenvalues --    3.60196   3.64461   3.65517   3.68591   3.68796
 Alpha virt. eigenvalues --    3.68880   3.74444   3.74492   3.74504   3.78888
 Alpha virt. eigenvalues --    3.81672   3.83399   3.83415   3.90894   3.93129
 Alpha virt. eigenvalues --    3.94284   3.94485   4.01551   4.04476   4.06522
 Alpha virt. eigenvalues --    4.08794   4.08996   4.13592   4.16371   4.21141
 Alpha virt. eigenvalues --    4.21268   4.24305   4.24419   4.27721   4.27758
 Alpha virt. eigenvalues --    4.27813   4.28430   4.28432   4.31573   4.31861
 Alpha virt. eigenvalues --    4.32913   4.33158   4.33470   4.33619   4.34735
 Alpha virt. eigenvalues --    4.35730   4.36695   4.37114   4.37420   4.37815
 Alpha virt. eigenvalues --    4.39429   4.40587   4.43048   4.43591   4.43978
 Alpha virt. eigenvalues --    4.45217   4.45479   4.46698   4.46889   4.49150
 Alpha virt. eigenvalues --    4.49671   4.50627   4.54966   4.57911   4.58985
 Alpha virt. eigenvalues --    4.59517   4.63052   4.63714   4.64963   4.66215
 Alpha virt. eigenvalues --    4.67469   4.72124   4.74624   4.75281   4.76515
 Alpha virt. eigenvalues --    4.77698   4.80286   4.82962   4.85341   4.86445
 Alpha virt. eigenvalues --    4.89024   4.92687   4.93880   4.98117   4.98542
 Alpha virt. eigenvalues --    5.00459   5.07781   5.08765   5.09617   5.11550
 Alpha virt. eigenvalues --    5.12445   5.14303   5.17101   5.20327   5.22630
 Alpha virt. eigenvalues --    5.22768   5.27945   5.30544   5.32522   5.39787
 Alpha virt. eigenvalues --    5.45304   5.50982   5.55947   5.56918   5.57952
 Alpha virt. eigenvalues --    5.58060   5.60444   5.67517   5.69371   5.71040
 Alpha virt. eigenvalues --    5.87441   5.96408   5.99711   7.02630   7.83053
 Alpha virt. eigenvalues --    8.44946   9.16399   9.37482   9.87068  10.23710
 Alpha virt. eigenvalues --   10.27777  10.42721  10.83845  11.21490  11.48978
 Alpha virt. eigenvalues --   11.55356  11.78013  11.99542  12.43723  12.90057
          Condensed to atoms (all electrons):
               1          2          3          4          5          6
     1  C    4.743004   0.552383   0.003620  -0.039938   0.000141   0.547467
     2  C    0.552383   4.932438   0.486232  -0.028911  -0.061722   0.008152
     3  C    0.003620   0.486232   4.412620   0.568139   0.006540  -0.039915
     4  C   -0.039938  -0.028911   0.568139   4.529821   0.527044   0.007102
     5  C    0.000141  -0.061722   0.006540   0.527044   4.894932   0.534590
     6  C    0.547467   0.008152  -0.039915   0.007102   0.534590   4.711312
     7  C    0.003168  -0.067657   0.447287   0.004205   0.006806  -0.000066
     8  C    0.000064   0.009352  -0.003473   0.361078  -0.073659   0.003180
     9  C    0.000008  -0.000236  -0.023425  -0.028684   0.002826  -0.000086
    10  C   -0.000145   0.005876  -0.019110  -0.023425   0.000825   0.000008
    11  C    0.000000  -0.000161   0.005876  -0.000236  -0.000016   0.000001
    12  H    0.000000  -0.000006   0.000380   0.000011   0.000000   0.000000
    13  C    0.000000   0.000000  -0.000145   0.000008   0.000001   0.000000
    14  C    0.000000   0.000001   0.000008  -0.000086   0.000000   0.000000
    15  C    0.000001  -0.000016   0.000825   0.002826  -0.000181   0.000000
    16  H    0.000138  -0.006335  -0.024021   0.004064  -0.000027  -0.000026
    17  H    0.376431  -0.025146   0.001066   0.001489   0.001753  -0.027342
    18  H   -0.025244   0.375618  -0.037454   0.002657   0.001205   0.001959
    19  H    0.002387   0.000916   0.002347  -0.039723   0.382200  -0.028331
    20  H   -0.026278   0.001758   0.001323   0.001082  -0.025509   0.374708
    21  H    0.000033  -0.000149  -0.001491  -0.005699  -0.003285  -0.000154
    22  H    0.000000   0.000000   0.000001   0.000000   0.000000   0.000000
    23  H    0.000000   0.000000   0.000000   0.000000   0.000000   0.000000
    24  H    0.000000   0.000000  -0.000048   0.000606   0.000002   0.000000
    25  H    0.000033  -0.000149  -0.001490  -0.005700  -0.003285  -0.000154
               7          8          9         10         11         12
     1  C    0.003168   0.000064   0.000008  -0.000145   0.000000   0.000000
     2  C   -0.067657   0.009352  -0.000236   0.005876  -0.000161  -0.000006
     3  C    0.447287  -0.003473  -0.023425  -0.019110   0.005876   0.000380
     4  C    0.004205   0.361078  -0.028684  -0.023425  -0.000236   0.000011
     5  C    0.006806  -0.073659   0.002826   0.000825  -0.000016   0.000000
     6  C   -0.000066   0.003180  -0.000086   0.000008   0.000001   0.000000
     7  C    5.139026  -0.086097   0.004205   0.447287  -0.067657  -0.003503
     8  C   -0.086097   5.291767   0.361078  -0.003473   0.009352  -0.000142
     9  C    0.004205   0.361078   4.529821   0.568139  -0.028911   0.002657
    10  C    0.447287  -0.003473   0.568139   4.412620   0.486232  -0.037454
    11  C   -0.067657   0.009352  -0.028911   0.486232   4.932438   0.375618
    12  H   -0.003503  -0.000142   0.002657  -0.037454   0.375618   0.508520
    13  C    0.003168   0.000064  -0.039938   0.003620   0.552383  -0.025244
    14  C   -0.000066   0.003180   0.007102  -0.039915   0.008152   0.001959
    15  C    0.006806  -0.073659   0.527044   0.006540  -0.061722   0.001205
    16  H    0.358652  -0.000484   0.004064  -0.024021  -0.006335   0.003464
    17  H   -0.000150   0.000011   0.000000   0.000001   0.000000   0.000000
    18  H   -0.003503  -0.000142   0.000011   0.000380  -0.000006   0.000002
    19  H   -0.000020  -0.004659   0.000606  -0.000048   0.000000   0.000000
    20  H    0.000009  -0.000129   0.000000   0.000000   0.000000   0.000000
    21  H    0.001801   0.336459  -0.005699  -0.001491  -0.000149   0.000002
    22  H   -0.000150   0.000011   0.001489   0.001066  -0.025146  -0.003451
    23  H    0.000009  -0.000129   0.001082   0.001323   0.001758  -0.000146
    24  H   -0.000020  -0.004659  -0.039723   0.002347   0.000916   0.000020
    25  H    0.001801   0.336462  -0.005700  -0.001490  -0.000149   0.000002
              13         14         15         16         17         18
     1  C    0.000000   0.000000   0.000001   0.000138   0.376431  -0.025244
     2  C    0.000000   0.000001  -0.000016  -0.006335  -0.025146   0.375618
     3  C   -0.000145   0.000008   0.000825  -0.024021   0.001066  -0.037454
     4  C    0.000008  -0.000086   0.002826   0.004064   0.001489   0.002657
     5  C    0.000001   0.000000  -0.000181  -0.000027   0.001753   0.001205
     6  C    0.000000   0.000000   0.000000  -0.000026  -0.027342   0.001959
     7  C    0.003168  -0.000066   0.006806   0.358652  -0.000150  -0.003503
     8  C    0.000064   0.003180  -0.073659  -0.000484   0.000011  -0.000142
     9  C   -0.039938   0.007102   0.527044   0.004064   0.000000   0.000011
    10  C    0.003620  -0.039915   0.006540  -0.024021   0.000001   0.000380
    11  C    0.552383   0.008152  -0.061722  -0.006335   0.000000  -0.000006
    12  H   -0.025244   0.001959   0.001205   0.003464   0.000000   0.000002
    13  C    4.743004   0.547467   0.000141   0.000138   0.000000   0.000000
    14  C    0.547467   4.711312   0.534590  -0.000026   0.000000   0.000000
    15  C    0.000141   0.534590   4.894932  -0.000027   0.000000   0.000000
    16  H    0.000138  -0.000026  -0.000027   0.471143  -0.000004   0.003464
    17  H    0.000000   0.000000   0.000000  -0.000004   0.492903  -0.003451
    18  H    0.000000   0.000000   0.000000   0.003464  -0.003451   0.508520
    19  H    0.000000   0.000000   0.000002   0.000002  -0.000160   0.000020
    20  H    0.000000   0.000000   0.000000   0.000000  -0.002729  -0.000146
    21  H    0.000033  -0.000154  -0.003285   0.000022   0.000000   0.000002
    22  H    0.376431  -0.027342   0.001753  -0.000004   0.000000   0.000000
    23  H   -0.026278   0.374708  -0.025509   0.000000   0.000000   0.000000
    24  H    0.002387  -0.028331   0.382200   0.000002   0.000000   0.000000
    25  H    0.000033  -0.000154  -0.003285   0.000022   0.000000   0.000002
              19         20         21         22         23         24
     1  C    0.002387  -0.026278   0.000033   0.000000   0.000000   0.000000
     2  C    0.000916   0.001758  -0.000149   0.000000   0.000000   0.000000
     3  C    0.002347   0.001323  -0.001491   0.000001   0.000000  -0.000048
     4  C   -0.039723   0.001082  -0.005699   0.000000   0.000000   0.000606
     5  C    0.382200  -0.025509  -0.003285   0.000000   0.000000   0.000002
     6  C   -0.028331   0.374708  -0.000154   0.000000   0.000000   0.000000
     7  C   -0.000020   0.000009   0.001801  -0.000150   0.000009  -0.000020
     8  C   -0.004659  -0.000129   0.336459   0.000011  -0.000129  -0.004659
     9  C    0.000606   0.000000  -0.005699   0.001489   0.001082  -0.039723
    10  C   -0.000048   0.000000  -0.001491   0.001066   0.001323   0.002347
    11  C    0.000000   0.000000  -0.000149  -0.025146   0.001758   0.000916
    12  H    0.000000   0.000000   0.000002  -0.003451  -0.000146   0.000020
    13  C    0.000000   0.000000   0.000033   0.376431  -0.026278   0.002387
    14  C    0.000000   0.000000  -0.000154  -0.027342   0.374708  -0.028331
    15  C    0.000002   0.000000  -0.003285   0.001753  -0.025509   0.382200
    16  H    0.000002   0.000000   0.000022  -0.000004   0.000000   0.000002
    17  H   -0.000160  -0.002729   0.000000   0.000000   0.000000   0.000000
    18  H    0.000020  -0.000146   0.000002   0.000000   0.000000   0.000000
    19  H    0.514568  -0.003130   0.001505   0.000000   0.000000   0.000004
    20  H   -0.003130   0.482502  -0.000002   0.000000   0.000000   0.000000
    21  H    0.001505  -0.000002   0.485980   0.000000  -0.000002   0.001505
    22  H    0.000000   0.000000   0.000000   0.492903  -0.002729  -0.000160
    23  H    0.000000   0.000000  -0.000002  -0.002729   0.482502  -0.003130
    24  H    0.000004   0.000000   0.001505  -0.000160  -0.003130   0.514568
    25  H    0.001505  -0.000002  -0.024594   0.000000  -0.000002   0.001505
              25
     1  C    0.000033
     2  C   -0.000149
     3  C   -0.001490
     4  C   -0.005700
     5  C   -0.003285
     6  C   -0.000154
     7  C    0.001801
     8  C    0.336462
     9  C   -0.005700
    10  C   -0.001490
    11  C   -0.000149
    12  H    0.000002
    13  C    0.000033
    14  C   -0.000154
    15  C   -0.003285
    16  H    0.000022
    17  H    0.000000
    18  H    0.000002
    19  H    0.001505
    20  H   -0.000002
    21  H   -0.024594
    22  H    0.000000
    23  H   -0.000002
    24  H    0.001505
    25  H    0.485980
 Mulliken charges:
               1
     1  C   -0.137273
     2  C   -0.182237
     3  C    0.214306
     4  C    0.162270
     5  C   -0.191180
     6  C   -0.092403
     7  C   -0.195339
     8  C   -0.461355
     9  C    0.162270
    10  C    0.214306
    11  C   -0.182237
    12  H    0.176104
    13  C   -0.137273
    14  C   -0.092403
    15  C   -0.191180
    16  H    0.216131
    17  H    0.185329
    18  H    0.176104
    19  H    0.170008
    20  H    0.196544
    21  H    0.218814
    22  H    0.185329
    23  H    0.196544
    24  H    0.170008
    25  H    0.218812
 Sum of Mulliken charges =   1.00000
 Mulliken charges with hydrogens summed into heavy atoms:
               1
     1  C    0.048056
     2  C   -0.006133
     3  C    0.214306
     4  C    0.162270
     5  C   -0.021172
     6  C    0.104141
     7  C    0.020792
     8  C   -0.023729
     9  C    0.162270
    10  C    0.214306
    11  C   -0.006133
    13  C    0.048056
    14  C    0.104141
    15  C   -0.021172
 Electronic spatial extent (au):  <R**2>=           2861.0408
 Charge=              1.0000 electrons
 Dipole moment (field-independent basis, Debye):
    X=              0.0000    Y=             -0.2352    Z=              0.0000  Tot=              0.2352
 Quadrupole moment (field-independent basis, Debye-Ang):
   XX=            -30.1077   YY=            -55.7906   ZZ=            -81.8191
   XY=              0.0000   XZ=              0.0000   YZ=              0.0000
 Traceless Quadrupole moment (field-independent basis, Debye-Ang):
   XX=             25.7981   YY=              0.1152   ZZ=            -25.9133
   XY=              0.0000   XZ=              0.0000   YZ=              0.0000
 Octapole moment (field-independent basis, Debye-Ang**2):
  XXX=              0.0000  YYY=             -5.3770  ZZZ=              0.0002  XYY=              0.0000
  XXY=              4.7029  XXZ=             -0.0009  XZZ=              0.0000  YZZ=              2.7668
  YYZ=              0.0000  XYZ=              0.0003
 Hexadecapole moment (field-independent basis, Debye-Ang**3):
 XXXX=          -2095.8538 YYYY=           -604.9638 ZZZZ=            -88.6737 XXXY=              0.0000
 XXXZ=             -0.0002 YYYX=              0.0000 YYYZ=             -0.0003 ZZZX=             -0.0015
 ZZZY=              0.0003 XXYY=           -503.0822 XXZZ=           -572.5195 YYZZ=           -140.2386
 XXYZ=             -0.0003 YYXZ=             -0.0004 ZZXY=              0.0000
 N-N= 7.800597189440D+02 E-N=-2.794339674306D+03  KE= 5.351150190261D+02
 1\1\GINC-K066\FOpt\RM062X TD-FC\6-31G(2df,p)\C14H11(1+)\Z3531397\05-Au
 g-2021\0\\#n M062X/6-31G(2df,p) TD=(nstates=5,root=1) Symmetry=(PG=C2v
 ) Opt\\Title\\1,1\C,3.6889858792,-0.7215668497,-0.0000133296\C,2.46647
 55955,-1.4152716149,-0.0000079436\C,1.2390750469,-0.7381247756,0.00000
 27326\C,1.2644403245,0.6711380423,0.0000040812\C,2.496372323,1.3555452
 328,-0.0000006153\C,3.707149479,0.6665771668,-0.0000102416\C,-0.000000
 0003,-1.436579102,0.000008467\C,0.0000000003,1.4498740802,0.0000128553
 \C,-1.2644403248,0.6711380422,-0.0000032392\C,-1.2390750461,-0.7381247
 768,0.0000019772\C,-2.4664755951,-1.4152716141,-0.0000021903\H,-2.4697
 951384,-2.5007033463,0.0000034114\C,-3.6889858789,-0.7215668477,-0.000
 0132287\C,-3.707149479,0.666577168,-0.0000219552\C,-2.4963723231,1.355
 5452332,-0.0000167099\H,-0.0000000005,-2.5203769433,0.000011971\H,4.61
 6295549,-1.282164328,-0.0000193932\H,2.4697951359,-2.5007033471,-0.000
 0136212\H,2.4909894982,2.4415376578,0.0000045793\H,4.6445670095,1.2076
 26109,-0.0000135289\H,-0.0000018096,2.1443684831,0.8616532628\H,-4.616
 2955488,-1.2821643257,-0.0000160776\H,-4.6445670097,1.2076261101,-0.00
 00329693\H,-2.4909894971,2.4415376583,-0.0000219465\H,0.0000018048,2.1
 444168874,-0.8615863475\\Version=ES64L-G09RevD.01\State=1-A\HF=-539.67
 38483\RMSD=6.227e-09\RMSF=7.814e-05\Dipole=0.,0.2479624,0.0000038\PG=C
 01 [X(C14H11)]\\@


 IN NATURE THERE ARE NEITHER REWARDS OR
 PUNISHMENTS -- THERE ARE CONSEQUENCES.

                            -- ROBERT GREEN INGERSOLL
 Job cpu time:       0 days  7 hours 38 minutes 44.3 seconds.
 File lengths (MBytes):  RWF=    289 Int=      0 D2E=      0 Chk=     46 Scr=      1
 Normal termination of Gaussian 09 at Thu Aug  5 17:44:01 2021.
