 Entering Gaussian System, Link 0=g16
 Initial command:
 /apps/gaussian/g16c01/g16/l1.exe "/jobfs/52826432.gadi-pbs/Gau-2810419.inp" -scrdir="/jobfs/52826432.gadi-pbs/"
 Entering Link 1 = /apps/gaussian/g16c01/g16/l1.exe PID=   2810420.
  
 Copyright (c) 1988-2019, Gaussian, Inc.  All Rights Reserved.
  
 This is part of the Gaussian(R) 16 program.  It is based on
 the Gaussian(R) 09 system (copyright 2009, Gaussian, Inc.),
 the Gaussian(R) 03 system (copyright 2003, Gaussian, Inc.),
 the Gaussian(R) 98 system (copyright 1998, Gaussian, Inc.),
 the Gaussian(R) 94 system (copyright 1995, Gaussian, Inc.),
 the Gaussian 92(TM) system (copyright 1992, Gaussian, Inc.),
 the Gaussian 90(TM) system (copyright 1990, Gaussian, Inc.),
 the Gaussian 88(TM) system (copyright 1988, Gaussian, Inc.),
 the Gaussian 86(TM) system (copyright 1986, Carnegie Mellon
 University), and the Gaussian 82(TM) system (copyright 1983,
 Carnegie Mellon University). Gaussian is a federally registered
 trademark of Gaussian, Inc.
  
 This software contains proprietary and confidential information,
 including trade secrets, belonging to Gaussian, Inc.
  
 This software is provided under written license and may be
 used, copied, transmitted, or stored only in accord with that
 written license.
  
 The following legend is applicable only to US Government
 contracts under FAR:
  
                    RESTRICTED RIGHTS LEGEND
  
 Use, reproduction and disclosure by the US Government is
 subject to restrictions as set forth in subparagraphs (a)
 and (c) of the Commercial Computer Software - Restricted
 Rights clause in FAR 52.227-19.
  
 Gaussian, Inc.
 340 Quinnipiac St., Bldg. 40, Wallingford CT 06492
  
  
 ---------------------------------------------------------------
 Warning -- This program may not be used in any manner that
 competes with the business of Gaussian, Inc. or will provide
 assistance to any competitor of Gaussian, Inc.  The licensee
 of this program is prohibited from giving any competitor of
 Gaussian, Inc. access to this program.  By using this program,
 the user acknowledges that Gaussian, Inc. is engaged in the
 business of creating and licensing software in the field of
 computational chemistry and represents and warrants to the
 licensee that it is not a competitor of Gaussian, Inc. and that
 it will not use this program in any manner prohibited above.
 ---------------------------------------------------------------
  

 Cite this work as:
 Gaussian 16, Revision C.01,
 M. J. Frisch, G. W. Trucks, H. B. Schlegel, G. E. Scuseria, 
 M. A. Robb, J. R. Cheeseman, G. Scalmani, V. Barone, 
 G. A. Petersson, H. Nakatsuji, X. Li, M. Caricato, A. V. Marenich, 
 J. Bloino, B. G. Janesko, R. Gomperts, B. Mennucci, H. P. Hratchian, 
 J. V. Ortiz, A. F. Izmaylov, J. L. Sonnenberg, D. Williams-Young, 
 F. Ding, F. Lipparini, F. Egidi, J. Goings, B. Peng, A. Petrone, 
 T. Henderson, D. Ranasinghe, V. G. Zakrzewski, J. Gao, N. Rega, 
 G. Zheng, W. Liang, M. Hada, M. Ehara, K. Toyota, R. Fukuda, 
 J. Hasegawa, M. Ishida, T. Nakajima, Y. Honda, O. Kitao, H. Nakai, 
 T. Vreven, K. Throssell, J. A. Montgomery, Jr., J. E. Peralta, 
 F. Ogliaro, M. J. Bearpark, J. J. Heyd, E. N. Brothers, K. N. Kudin, 
 V. N. Staroverov, T. A. Keith, R. Kobayashi, J. Normand, 
 K. Raghavachari, A. P. Rendell, J. C. Burant, S. S. Iyengar, 
 J. Tomasi, M. Cossi, J. M. Millam, M. Klene, C. Adamo, R. Cammi, 
 J. W. Ochterski, R. L. Martin, K. Morokuma, O. Farkas, 
 J. B. Foresman, and D. J. Fox, Gaussian, Inc., Wallingford CT, 2019.
 
 ******************************************
 Gaussian 16:  ES64L-G16RevC.01  3-Jul-2019
                27-Jul-2022 
 ******************************************
 %NProcShared=32
 Will use up to   32 processors via shared memory.
 %mem = 128GB
 ---------------------------------------------------------------
 #n M062X/6-311++G(d,p) TD(NStates=1) EmpiricalDispersion=GD3 SP
 ---------------------------------------------------------------
 1/38=1,172=1/1;
 2/12=2,17=6,18=5,40=1/2;
 3/5=4,6=6,7=1111,11=9,25=1,30=1,74=-55,124=31/1,2,3,8;
 4//1;
 5/5=2,38=5/2;
 8/6=1,10=2,108=1/1;
 9/41=1,42=1,70=2/14;
 6/7=2,8=2,9=2,10=2/1;
 99/5=1,9=1/99;
 ------
 SP_125
 ------
 Symbolic Z-matrix:
 Charge =  1 Multiplicity = 1
 C                     0.01065   2.49116   1.36043 
 C                     0.01013   3.70433   0.67199 
 C                     0.0035    3.68806  -0.71383 
 C                    -0.0076    2.46731  -1.40754 
 C                    -0.008    -2.46811  -1.40754 
 C                     0.0011   -3.69206  -0.71383 
 C                     0.00632  -3.70573   0.67199 
 C                     0.00305  -2.49356   1.36043 
 C                     0.00428   0.0088    1.45337 
 C                    -0.0122   -0.0004   -1.42919 
 C                    -0.00153   1.25833   0.67707 
 C                    -0.0058    1.23867  -0.7308 
 C                    -0.00212  -1.25813   0.67707 
 C                    -0.0042   -1.23747  -0.7308 
 H                     0.0065    2.48655   2.44365 
 H                     0.01063   4.63813   1.21169 
 H                    -0.00085   4.60654  -1.27235 
 H                    -0.00425   2.47167  -2.49006 
 H                    -0.01125  -0.0002   -2.51027 
 H                    -0.00305  -2.47228  -2.49006 
 H                    -0.00205  -4.61154  -1.27235 
 H                     0.00603  -4.64113   1.21169 
 H                    -0.0023   -2.48915   2.44365 
 H                    -0.84359   0.002     2.14359 
 H                     0.87559   0.002     2.14799 
 
                          Input orientation:                          
 ---------------------------------------------------------------------
 Center     Atomic      Atomic             Coordinates (Angstroms)
 Number     Number       Type             X           Y           Z
 ---------------------------------------------------------------------
      1          6           0        0.010650    2.491155    1.360431
      2          6           0        0.010125    3.704333    0.671989
      3          6           0        0.003500    3.688061   -0.713830
      4          6           0       -0.007600    2.467306   -1.407538
      5          6           0       -0.008000   -2.468106   -1.407538
      6          6           0        0.001100   -3.692061   -0.713830
      7          6           0        0.006325   -3.705733    0.671989
      8          6           0        0.003050   -2.493555    1.360431
      9          6           0        0.004275    0.008800    1.453369
     10          6           0       -0.012200   -0.000400   -1.429189
     11          6           0       -0.001525    1.258330    0.677065
     12          6           0       -0.005800    1.238671   -0.730804
     13          6           0       -0.002125   -1.258130    0.677065
     14          6           0       -0.004200   -1.237471   -0.730804
     15          1           0        0.006500    2.486546    2.443647
     16          1           0        0.010625    4.638128    1.211689
     17          1           0       -0.000850    4.606537   -1.272349
     18          1           0       -0.004250    2.471675   -2.490059
     19          1           0       -0.011250   -0.000200   -2.510266
     20          1           0       -0.003050   -2.472275   -2.490059
     21          1           0       -0.002050   -4.611537   -1.272349
     22          1           0        0.006025   -4.641128    1.211689
     23          1           0       -0.002300   -2.489146    2.443647
     24          1           0       -0.843585    0.002000    2.143587
     25          1           0        0.875585    0.002000    2.147987
 ---------------------------------------------------------------------
                    Distance matrix (angstroms):
                    1          2          3          4          5
     1  C    0.000000
     2  C    1.394903   0.000000
     3  C    2.394826   1.385930   0.000000
     4  C    2.768132   2.419707   1.404136   0.000000
     5  C    5.679460   6.513353   6.195140   4.935412   0.000000
     6  C    6.521872   7.525106   7.380122   6.198315   1.406904
     7  C    6.235013   7.410067   7.522546   6.513911   2.419991
     8  C    4.984716   6.236010   6.520348   5.680837   2.768108
     9  C    2.484102   3.777241   4.270095   3.772159   3.784178
    10  C    3.740367   4.259166   3.757224   2.467805   2.467805
    11  C    1.409608   2.446036   2.799680   2.409819   4.269887
    12  C    2.437673   2.836824   2.449466   1.402682   3.768046
    13  C    3.811075   4.962481   5.138037   4.269013   2.410321
    14  C    4.275060   5.137067   4.925567   3.766079   1.404438
    15  H    1.083234   2.149835   3.378359   3.851259   6.275381
    16  H    2.152119   1.078540   2.147161   3.401933   7.573590
    17  H    3.377352   2.143488   1.074970   2.143509   7.075938
    18  H    3.850568   3.393847   2.152822   1.082535   5.057005
    19  H    4.603219   4.883725   4.102520   2.702704   2.703069
    20  H    6.281887   6.938963   6.411300   5.056811   1.082540
    21  H    7.574954   8.540158   8.318371   7.080136   2.147698
    22  H    7.133835   8.362895   8.548861   7.575643   3.403318
    23  H    5.096756   6.441903   6.937404   6.276788   3.851247
    24  H    2.745714   4.074517   4.740193   4.403078   4.405691
    25  H    2.750318   4.078586   4.747376   4.415825   4.418586
                    6          7          8          9         10
     6  C    0.000000
     7  C    1.385896   0.000000
     8  C    2.395617   1.394037   0.000000
     9  C    4.288722   3.795829   2.504081   0.000000
    10  C    3.760356   4.259670   3.741395   2.882620   0.000000
    11  C    5.142078   4.964072   3.813614   1.471056   2.453736
    12  C    4.930766   5.139563   4.278183   2.506650   1.422350
    13  C    2.803323   2.447623   1.411840   1.485867   2.453221
    14  C    2.454654   2.839059   2.439480   2.514732   1.420616
    15  H    6.938651   6.440737   5.096545   2.668310   4.602620
    16  H    8.549840   8.361298   7.133238   4.635637   5.337668
    17  H    8.317372   8.536647   7.572506   5.344974   4.609620
    18  H    6.414566   6.939671   6.283298   4.649349   2.690105
    19  H    4.105749   4.884468   4.604272   3.963676   1.081077
    20  H    2.154735   3.394121   3.850554   4.659014   2.689925
    21  H    1.075820   2.144994   3.378965   5.364428   4.613815
    22  H    2.146713   1.079926   2.152720   4.656205   5.339562
    23  H    3.378857   2.149170   1.083238   2.687085   4.603565
    24  H    4.745989   4.078631   2.749167   1.093304   3.668233
    25  H    4.754031   4.084295   2.758506   1.114326   3.685696
                   11         12         13         14         15
    11  C    0.000000
    12  C    1.408013   0.000000
    13  C    2.516460   2.866378   0.000000
    14  C    2.865506   2.476143   1.408022   0.000000
    15  H    2.151602   3.410936   4.140469   4.893420   0.000000
    16  H    3.421842   3.915336   5.920460   6.188389   2.479323
    17  H    3.874365   3.411131   6.180173   5.869047   4.278205
    18  H    3.391591   2.148320   4.893069   4.105209   4.933740
    19  H    3.426816   2.168252   3.426595   2.167343   5.543056
    20  H    4.893679   4.106836   3.391876   2.149353   6.995102
    21  H    6.185107   5.875221   3.878860   3.417250   8.011959
    22  H    5.923638   6.192371   3.424991   3.918962   7.233357
    23  H    4.142993   4.896302   2.153187   3.412306   4.975700
    24  H    2.106684   3.239346   2.108713   3.240830   2.643038
    25  H    2.123982   3.254786   2.126479   3.255418   2.648715
                   16         17         18         19         20
    16  H    0.000000
    17  H    2.484265   0.000000
    18  H    4.289135   2.457736   0.000000
    19  H    5.947059   4.770175   2.471968   0.000000
    20  H    8.016293   7.182785   4.943950   2.472171   0.000000
    21  H    9.577417   9.218074   7.187121   4.774615   2.461557
    22  H    9.279257   9.575479   8.018417   5.949072   4.290331
    23  H    7.232975   8.009828   6.996514   5.544023   4.933735
    24  H    4.805392   5.794875   5.317373   4.727699   5.319700
    25  H    4.808169   5.802465   5.327746   4.741920   5.329682
                   21         22         23         24         25
    21  H    0.000000
    22  H    2.484227   0.000000
    23  H    4.279389   2.479681   0.000000
    24  H    5.801855   4.811331   2.646432   0.000000
    25  H    5.809790   4.815748   2.657801   1.719176   0.000000
 Stoichiometry    C14H11(1+)
 Framework group  C1[X(C14H11)]
 Deg. of freedom    69
 Full point group                 C1      NOp   1
 Largest Abelian subgroup         C1      NOp   1
 Largest concise Abelian subgroup C1      NOp   1
                         Standard orientation:                         
 ---------------------------------------------------------------------
 Center     Atomic      Atomic             Coordinates (Angstroms)
 Number     Number       Type             X           Y           Z
 ---------------------------------------------------------------------
      1          6           0       -2.491392   -1.360038    0.003275
      2          6           0       -3.704453   -0.671393    0.005217
      3          6           0       -3.687944    0.714439    0.004726
      4          6           0       -2.467066    1.407981   -0.002727
      5          6           0        2.468345    1.407138   -0.000783
      6          6           0        3.692179    0.713187    0.005832
      7          6           0        3.705614   -0.672644    0.004937
      8          6           0        2.493321   -1.360857   -0.001957
      9          6           0       -0.009050   -1.453371   -0.002332
     10          6           0        0.000645    1.429230   -0.006059
     11          6           0       -1.258446   -0.676836   -0.005293
     12          6           0       -1.238547    0.731035   -0.003335
     13          6           0        1.258014   -0.677263   -0.004698
     14          6           0        1.237594    0.730604   -0.000559
     15          1           0       -2.486964   -2.443226   -0.005661
     16          1           0       -4.638339   -1.210930    0.002888
     17          1           0       -4.606323    1.273129    0.002409
     18          1           0       -2.471254    2.490477    0.005407
     19          1           0        0.000628    2.510292   -0.000330
     20          1           0        2.472695    2.489626    0.008955
     21          1           0        4.611750    1.271557    0.005588
     22          1           0        4.640918   -1.212497    0.002695
     23          1           0        2.488732   -2.444038   -0.012098
     24          1           0       -0.001963   -2.139836   -0.853231
     25          1           0       -0.002782   -2.151836    0.865902
 ---------------------------------------------------------------------
 Rotational constants (GHZ):           2.1361538           0.4437964           0.3682550
 Standard basis: 6-311++G(d,p) (5D, 7F)
 There are   399 symmetry adapted cartesian basis functions of A   symmetry.
 There are   385 symmetry adapted basis functions of A   symmetry.
   385 basis functions,   603 primitive gaussians,   399 cartesian basis functions
    47 alpha electrons       47 beta electrons
       nuclear repulsion energy       780.7334463591 Hartrees.
 NAtoms=   25 NActive=   25 NUniq=   25 SFac= 1.00D+00 NAtFMM=   60 NAOKFM=F Big=F
 Integral buffers will be    131072 words long.
 Regular integral format.
 Two-electron integral symmetry is turned on.
 Nuclear repulsion after empirical dispersion term =      780.7324667091 Hartrees.
 One-electron integrals computed using PRISM.
 NBasis=   385 RedAO= T EigKep=  1.15D-06  NBF=   385
 NBsUse=   379 1.00D-06 EigRej=  8.51D-07 NBFU=   379
 ExpMin= 3.60D-02 ExpMax= 4.56D+03 ExpMxC= 6.82D+02 IAcc=3 IRadAn=         5 AccDes= 0.00D+00
 Harris functional with IExCor= 1009 and IRadAn=       5 diagonalized for initial guess.
 HarFok:  IExCor= 1009 AccDes= 0.00D+00 IRadAn=         5 IDoV= 1 UseB2=F ITyADJ=14
 ICtDFT=  3500011 ScaDFX=  1.000000  1.000000  1.000000  1.000000
 FoFCou: FMM=F IPFlag=           0 FMFlag=      100000 FMFlg1=           0
         NFxFlg=           0 DoJE=T BraDBF=F KetDBF=T FulRan=T
         wScrn=  0.000000 ICntrl=       500 IOpCl=  0 I1Cent=   200000004 NGrid=           0
         NMat0=    1 NMatS0=      1 NMatT0=    0 NMatD0=    1 NMtDS0=    0 NMtDT0=    0
 Petite list used in FoFCou.
 Requested convergence on RMS density matrix=1.00D-08 within 128 cycles.
 Requested convergence on MAX density matrix=1.00D-06.
 Requested convergence on             energy=1.00D-06.
 No special actions if energy rises.
 SCF Done:  E(RM062X) =  -539.759630732     A.U. after   15 cycles
            NFock= 15  Conv=0.46D-08     -V/T= 2.0042
 DoSCS=F DFT=T ScalE2(SS,OS)=  1.000000  1.000000
 ExpMin= 3.60D-02 ExpMax= 4.56D+03 ExpMxC= 6.82D+02 IAcc=3 IRadAn=         5 AccDes= 0.00D+00
 HarFok:  IExCor=  205 AccDes= 0.00D+00 IRadAn=         5 IDoV=-2 UseB2=F ITyADJ=14
 ICtDFT= 12500011 ScaDFX=  1.000000  1.000000  1.000000  1.000000
 Range of M.O.s used for correlation:    15   379
 NBasis=   385 NAE=    47 NBE=    47 NFC=    14 NFV=     0
 NROrb=    365 NOA=    33 NOB=    33 NVA=   332 NVB=   332

 **** Warning!!: The largest alpha MO coefficient is  0.15005589D+03

 Orbital symmetries:
       Occupied  (A) (A) (A) (A) (A) (A) (A) (A) (A) (A) (A) (A)
                 (A) (A) (A) (A) (A) (A) (A) (A) (A) (A) (A) (A)
                 (A) (A) (A) (A) (A) (A) (A) (A) (A) (A) (A) (A)
                 (A) (A) (A) (A) (A) (A) (A) (A) (A) (A) (A)
       Virtual   (A) (A) (A) (A) (A) (A) (A) (A) (A) (A) (A) (A)
                 (A) (A) (A) (A) (A) (A) (A) (A) (A) (A) (A) (A)
                 (A) (A) (A) (A) (A) (A) (A) (A) (A) (A) (A) (A)
                 (A) (A) (A) (A) (A) (A) (A) (A) (A) (A) (A) (A)
                 (A) (A) (A) (A) (A) (A) (A) (A) (A) (A) (A) (A)
                 (A) (A) (A) (A) (A) (A) (A) (A) (A) (A) (A) (A)
                 (A) (A) (A) (A) (A) (A) (A) (A) (A) (A) (A) (A)
                 (A) (A) (A) (A) (A) (A) (A) (A) (A) (A) (A) (A)
                 (A) (A) (A) (A) (A) (A) (A) (A) (A) (A) (A) (A)
                 (A) (A) (A) (A) (A) (A) (A) (A) (A) (A) (A) (A)
                 (A) (A) (A) (A) (A) (A) (A) (A) (A) (A) (A) (A)
                 (A) (A) (A) (A) (A) (A) (A) (A) (A) (A) (A) (A)
                 (A) (A) (A) (A) (A) (A) (A) (A) (A) (A) (A) (A)
                 (A) (A) (A) (A) (A) (A) (A) (A) (A) (A) (A) (A)
                 (A) (A) (A) (A) (A) (A) (A) (A) (A) (A) (A) (A)
                 (A) (A) (A) (A) (A) (A) (A) (A) (A) (A) (A) (A)
                 (A) (A) (A) (A) (A) (A) (A) (A) (A) (A) (A) (A)
                 (A) (A) (A) (A) (A) (A) (A) (A) (A) (A) (A) (A)
                 (A) (A) (A) (A) (A) (A) (A) (A) (A) (A) (A) (A)
                 (A) (A) (A) (A) (A) (A) (A) (A) (A) (A) (A) (A)
                 (A) (A) (A) (A) (A) (A) (A) (A) (A) (A) (A) (A)
                 (A) (A) (A) (A) (A) (A) (A) (A) (A) (A) (A) (A)
                 (A) (A) (A) (A) (A) (A) (A) (A) (A) (A) (A) (A)
                 (A) (A) (A) (A) (A) (A) (A) (A) (A) (A) (A) (A)
                 (A) (A) (A) (A) (A) (A) (A) (A) (A) (A) (A) (A)
                 (A) (A) (A) (A) (A) (A) (A) (A) (A) (A) (A) (A)
                 (A) (A) (A) (A) (A) (A) (A) (A) (A) (A) (A) (A)
                 (A) (A) (A) (A) (A) (A) (A) (A)
     4 initial guesses have been made.
 Convergence on wavefunction:    0.001000000000000
 Iteration     1 Dimension     4 NMult     0 NNew      4
 CISAX will form     4 AO SS matrices at one time.
 Iteration     2 Dimension     6 NMult     4 NNew      2
 Iteration     3 Dimension     8 NMult     6 NNew      2
 Iteration     4 Dimension    10 NMult     8 NNew      2
 Iteration     5 Dimension    12 NMult    10 NNew      2
 Iteration     6 Dimension    14 NMult    12 NNew      2
 ***********************************************************************
 Excited states from <AA,BB:AA,BB> singles matrix:
 ***********************************************************************
 
 Ground to excited state transition densities written to RWF  633
 Ground to excited state transition electric dipole moments (Au):
       state          X           Y           Z        Dip. S.      Osc.
         1        -0.0117     -0.6409      0.0022      0.4109      0.0283
 Ground to excited state transition velocity dipole moments (Au):
       state          X           Y           Z        Dip. S.      Osc.
         1         0.0012      0.0740     -0.0003      0.0055      0.0353
 Ground to excited state transition magnetic dipole moments (Au):
       state          X           Y           Z
         1        -0.0025     -0.0009      0.0003
 Ground to excited state transition velocity quadrupole moments (Au):
       state          XX          YY          ZZ          XY          XZ          YZ
         1         0.3031      0.0338     -0.0097      0.0017      0.0001      0.0006
 <0|del|b> * <b|rxdel|0> + <0|del|b> * <b|delr+rdel|0>
 Rotatory Strengths (R) in cgs (10**-40 erg-esu-cm/Gauss)
       state          XX          YY          ZZ    R(velocity)    E-M Angle
         1        -0.2551     -0.0071     -0.1996     -0.1540       90.00
 1/2[<0|r|b>*<b|rxdel|0> + (<0|rxdel|b>*<b|r|0>)*]
 Rotatory Strengths (R) in cgs (10**-40 erg-esu-cm/Gauss)
       state          XX          YY          ZZ     R(length)
         1        -0.0209     -0.3937     -0.0005     -0.1384
  1/2[<0|del|b>*<b|r|0> + (<0|r|b>*<b|del|0>)*] (Au)
       state          X           Y           Z        Dip. S.   Osc.(frdel)
         1        -0.0000     -0.0474     -0.0000      0.0475      0.0316

 Excitation energies and oscillator strengths:
 
 Excited State   1:      Singlet-A      2.8144 eV  440.54 nm  f=0.0283  <S**2>=0.000
      47 -> 48         0.70426
 This state for optimization and/or second-order correction.
 Total Energy, E(TD-HF/TD-DFT) =  -539.656204325    
 Copying the excited state density for this state as the 1-particle RhoCI density.
 SavETr:  write IOETrn=   770 NScale= 10 NData=  16 NLR=1 NState=    1 LETran=      28.

 **********************************************************************

            Population analysis using the SCF Density.

 **********************************************************************

 Orbital symmetries:
       Occupied  (A) (A) (A) (A) (A) (A) (A) (A) (A) (A) (A) (A)
                 (A) (A) (A) (A) (A) (A) (A) (A) (A) (A) (A) (A)
                 (A) (A) (A) (A) (A) (A) (A) (A) (A) (A) (A) (A)
                 (A) (A) (A) (A) (A) (A) (A) (A) (A) (A) (A)
       Virtual   (A) (A) (A) (A) (A) (A) (A) (A) (A) (A) (A) (A)
                 (A) (A) (A) (A) (A) (A) (A) (A) (A) (A) (A) (A)
                 (A) (A) (A) (A) (A) (A) (A) (A) (A) (A) (A) (A)
                 (A) (A) (A) (A) (A) (A) (A) (A) (A) (A) (A) (A)
                 (A) (A) (A) (A) (A) (A) (A) (A) (A) (A) (A) (A)
                 (A) (A) (A) (A) (A) (A) (A) (A) (A) (A) (A) (A)
                 (A) (A) (A) (A) (A) (A) (A) (A) (A) (A) (A) (A)
                 (A) (A) (A) (A) (A) (A) (A) (A) (A) (A) (A) (A)
                 (A) (A) (A) (A) (A) (A) (A) (A) (A) (A) (A) (A)
                 (A) (A) (A) (A) (A) (A) (A) (A) (A) (A) (A) (A)
                 (A) (A) (A) (A) (A) (A) (A) (A) (A) (A) (A) (A)
                 (A) (A) (A) (A) (A) (A) (A) (A) (A) (A) (A) (A)
                 (A) (A) (A) (A) (A) (A) (A) (A) (A) (A) (A) (A)
                 (A) (A) (A) (A) (A) (A) (A) (A) (A) (A) (A) (A)
                 (A) (A) (A) (A) (A) (A) (A) (A) (A) (A) (A) (A)
                 (A) (A) (A) (A) (A) (A) (A) (A) (A) (A) (A) (A)
                 (A) (A) (A) (A) (A) (A) (A) (A) (A) (A) (A) (A)
                 (A) (A) (A) (A) (A) (A) (A) (A) (A) (A) (A) (A)
                 (A) (A) (A) (A) (A) (A) (A) (A) (A) (A) (A) (A)
                 (A) (A) (A) (A) (A) (A) (A) (A) (A) (A) (A) (A)
                 (A) (A) (A) (A) (A) (A) (A) (A) (A) (A) (A) (A)
                 (A) (A) (A) (A) (A) (A) (A) (A) (A) (A) (A) (A)
                 (A) (A) (A) (A) (A) (A) (A) (A) (A) (A) (A) (A)
                 (A) (A) (A) (A) (A) (A) (A) (A) (A) (A) (A) (A)
                 (A) (A) (A) (A) (A) (A) (A) (A) (A) (A) (A) (A)
                 (A) (A) (A) (A) (A) (A) (A) (A) (A) (A) (A) (A)
                 (A) (A) (A) (A) (A) (A) (A) (A) (A) (A) (A) (A)
                 (A) (A) (A) (A) (A) (A) (A) (A)
 The electronic state is 1-A.
 Alpha  occ. eigenvalues --  -10.77661 -10.73311 -10.73201 -10.72480 -10.72475
 Alpha  occ. eigenvalues --  -10.71450 -10.71391 -10.71046 -10.71026 -10.70980
 Alpha  occ. eigenvalues --  -10.70050 -10.70007 -10.69640 -10.69585  -1.16410
 Alpha  occ. eigenvalues --   -1.12360  -1.06890  -1.05767  -1.01214  -1.00194
 Alpha  occ. eigenvalues --   -0.95743  -0.91066  -0.86415  -0.85882  -0.83812
 Alpha  occ. eigenvalues --   -0.78394  -0.76020  -0.74397  -0.69569  -0.69271
 Alpha  occ. eigenvalues --   -0.68539  -0.68223  -0.68129  -0.64660  -0.64218
 Alpha  occ. eigenvalues --   -0.63125  -0.61930  -0.59965  -0.59600  -0.59120
 Alpha  occ. eigenvalues --   -0.56909  -0.55247  -0.54862  -0.52397  -0.46555
 Alpha  occ. eigenvalues --   -0.46056  -0.44454
 Alpha virt. eigenvalues --   -0.26079  -0.14727  -0.14112  -0.12837  -0.11178
 Alpha virt. eigenvalues --   -0.10083  -0.09222  -0.07991  -0.07953  -0.07472
 Alpha virt. eigenvalues --   -0.07207  -0.07150  -0.05645  -0.05582  -0.05342
 Alpha virt. eigenvalues --   -0.03810  -0.03639  -0.03281  -0.03134  -0.02163
 Alpha virt. eigenvalues --   -0.01363  -0.00920   0.00191   0.00614   0.00676
 Alpha virt. eigenvalues --    0.01050   0.01513   0.01923   0.02212   0.02289
 Alpha virt. eigenvalues --    0.02440   0.02678   0.02700   0.03319   0.03383
 Alpha virt. eigenvalues --    0.04245   0.04503   0.04691   0.05002   0.05360
 Alpha virt. eigenvalues --    0.06035   0.06291   0.06595   0.07041   0.07241
 Alpha virt. eigenvalues --    0.07879   0.08116   0.08363   0.08511   0.08931
 Alpha virt. eigenvalues --    0.09553   0.09565   0.10033   0.10810   0.11046
 Alpha virt. eigenvalues --    0.11117   0.12183   0.12263   0.12900   0.12998
 Alpha virt. eigenvalues --    0.13408   0.13533   0.14022   0.14331   0.16173
 Alpha virt. eigenvalues --    0.16272   0.16466   0.17365   0.17610   0.17760
 Alpha virt. eigenvalues --    0.18111   0.19024   0.19206   0.19616   0.19717
 Alpha virt. eigenvalues --    0.21513   0.21556   0.22731   0.23120   0.23560
 Alpha virt. eigenvalues --    0.23720   0.24565   0.25233   0.26900   0.27553
 Alpha virt. eigenvalues --    0.28842   0.29290   0.29851   0.31306   0.35809
 Alpha virt. eigenvalues --    0.36353   0.38123   0.39225   0.41162   0.41438
 Alpha virt. eigenvalues --    0.41957   0.42263   0.43003   0.43624   0.44297
 Alpha virt. eigenvalues --    0.44852   0.44949   0.45970   0.46091   0.47944
 Alpha virt. eigenvalues --    0.48559   0.48880   0.49050   0.50440   0.51141
 Alpha virt. eigenvalues --    0.51520   0.51582   0.52117   0.52774   0.53987
 Alpha virt. eigenvalues --    0.54106   0.54588   0.55696   0.55759   0.57467
 Alpha virt. eigenvalues --    0.58221   0.58800   0.61421   0.62148   0.62342
 Alpha virt. eigenvalues --    0.63130   0.63535   0.64883   0.65143   0.67223
 Alpha virt. eigenvalues --    0.70406   0.70623   0.70998   0.72346   0.72828
 Alpha virt. eigenvalues --    0.75757   0.75930   0.76232   0.76848   0.77057
 Alpha virt. eigenvalues --    0.77750   0.77796   0.78198   0.80044   0.80403
 Alpha virt. eigenvalues --    0.81204   0.81626   0.82103   0.82961   0.85112
 Alpha virt. eigenvalues --    0.87072   0.88151   0.88206   0.89309   0.90412
 Alpha virt. eigenvalues --    0.90950   0.91325   0.93119   0.94640   0.96448
 Alpha virt. eigenvalues --    0.96639   1.00450   1.01275   1.01623   1.02639
 Alpha virt. eigenvalues --    1.03143   1.03845   1.04661   1.05529   1.08742
 Alpha virt. eigenvalues --    1.19666   1.23309   1.24057   1.25279   1.27972
 Alpha virt. eigenvalues --    1.29528   1.31901   1.34108   1.35643   1.35959
 Alpha virt. eigenvalues --    1.39255   1.40188   1.40815   1.42916   1.43333
 Alpha virt. eigenvalues --    1.43471   1.45098   1.45256   1.46394   1.46715
 Alpha virt. eigenvalues --    1.47597   1.47844   1.51680   1.53606   1.55700
 Alpha virt. eigenvalues --    1.55868   1.56202   1.56514   1.57703   1.61355
 Alpha virt. eigenvalues --    1.63322   1.63709   1.63881   1.66055   1.68186
 Alpha virt. eigenvalues --    1.68424   1.68654   1.69720   1.74229   1.75968
 Alpha virt. eigenvalues --    1.77116   1.77995   1.79914   1.80004   1.80489
 Alpha virt. eigenvalues --    1.83136   1.83186   1.83569   1.83709   1.84166
 Alpha virt. eigenvalues --    1.84247   1.85821   1.85955   1.88166   1.91432
 Alpha virt. eigenvalues --    1.91953   1.94135   1.95217   1.97573   1.97959
 Alpha virt. eigenvalues --    1.99562   2.02425   2.04268   2.07404   2.11705
 Alpha virt. eigenvalues --    2.12035   2.13972   2.15173   2.18850   2.21182
 Alpha virt. eigenvalues --    2.22555   2.28521   2.29973   2.34577   2.35034
 Alpha virt. eigenvalues --    2.36145   2.38903   2.39913   2.42240   2.43839
 Alpha virt. eigenvalues --    2.46319   2.46998   2.49128   2.52777   2.53788
 Alpha virt. eigenvalues --    2.54214   2.56843   2.57806   2.58273   2.59630
 Alpha virt. eigenvalues --    2.59739   2.61641   2.61981   2.63446   2.63768
 Alpha virt. eigenvalues --    2.64689   2.64979   2.65163   2.65208   2.67897
 Alpha virt. eigenvalues --    2.68662   2.70907   2.71395   2.73335   2.74816
 Alpha virt. eigenvalues --    2.76268   2.78571   2.79644   2.82655   2.82993
 Alpha virt. eigenvalues --    2.84648   2.86272   2.92081   2.96915   2.99416
 Alpha virt. eigenvalues --    2.99903   3.05322   3.10735   3.11131   3.12592
 Alpha virt. eigenvalues --    3.20912   3.23837   3.26423   3.28032   3.30565
 Alpha virt. eigenvalues --    3.32351   3.33385   3.43367   3.45674   3.46108
 Alpha virt. eigenvalues --    3.48145   3.49824   3.56389   3.65708   3.66962
 Alpha virt. eigenvalues --    3.67488   3.94514   3.94744   3.95585   3.96356
 Alpha virt. eigenvalues --    4.04250   4.06914   4.07318   4.12520   4.35588
 Alpha virt. eigenvalues --    4.61453   4.69493   4.71273  23.45438  23.60887
 Alpha virt. eigenvalues --   23.81993  23.85679  23.87799  23.89160  23.90497
 Alpha virt. eigenvalues --   23.92252  23.97401  23.98714  23.99127  23.99761
 Alpha virt. eigenvalues --   24.10000  24.10272
          Condensed to atoms (all electrons):
               1          2          3          4          5          6
     1  C    8.542781   0.342595  -0.541383   1.916111  -0.014792  -0.093282
     2  C    0.342595   7.115931   0.357279  -1.052914  -0.019141  -0.014068
     3  C   -0.541383   0.357279   6.580181   0.742678  -0.123556   0.016669
     4  C    1.916111  -1.052914   0.742678  10.912743  -0.314614  -0.120736
     5  C   -0.014792  -0.019141  -0.123556  -0.314614  10.934298   0.718878
     6  C   -0.093282  -0.014068   0.016669  -0.120736   0.718878   6.573840
     7  C   -0.022694   0.001977  -0.014226  -0.020989  -1.031931   0.351406
     8  C    0.400241  -0.018416  -0.093593  -0.029541   1.953188  -0.555344
     9  C   -1.197068  -0.793798   0.292156  -0.249377  -0.220666   0.295923
    10  C   -1.258310   0.245401  -0.353777  -2.543016  -2.542349  -0.339909
    11  C    0.306632  -0.918566   1.027864  -0.348343  -1.519235  -0.161708
    12  C   -1.961686   1.328071  -1.398710  -1.445672  -0.307254  -0.203376
    13  C    0.173332  -0.250041  -0.166164  -1.516582  -0.364683   1.028780
    14  C   -1.078821  -0.198729  -0.202664  -0.294161  -1.511752  -1.373171
    15  H    0.365155  -0.106276  -0.000897   0.027309   0.005679   0.001089
    16  H   -0.020723   0.379723  -0.017083   0.013276  -0.001502  -0.000320
    17  H   -0.024530  -0.016997   0.377046  -0.067022   0.000212   0.000391
    18  H    0.049057   0.003439  -0.085774   0.455959   0.007294  -0.004980
    19  H   -0.046687  -0.007848   0.051655  -0.071646  -0.073537   0.051549
    20  H    0.007319   0.001987  -0.005038   0.007101   0.454992  -0.086979
    21  H   -0.001320  -0.000395   0.000395   0.000233  -0.067047   0.376833
    22  H    0.000748   0.000364  -0.000323  -0.001521   0.013797  -0.017711
    23  H    0.005736  -0.002705   0.001100   0.005655   0.027226  -0.001060
    24  H    0.026099   0.013951  -0.001995  -0.011514  -0.013408  -0.001426
    25  H    0.039472   0.015018  -0.000830  -0.013237  -0.011683  -0.001566
               7          8          9         10         11         12
     1  C   -0.022694   0.400241  -1.197068  -1.258310   0.306632  -1.961686
     2  C    0.001977  -0.018416  -0.793798   0.245401  -0.918566   1.328071
     3  C   -0.014226  -0.093593   0.292156  -0.353777   1.027864  -1.398710
     4  C   -0.020989  -0.029541  -0.249377  -2.543016  -0.348343  -1.445672
     5  C   -1.031931   1.953188  -0.220666  -2.542349  -1.519235  -0.307254
     6  C    0.351406  -0.555344   0.295923  -0.339909  -0.161708  -0.203376
     7  C    7.072723   0.345695  -0.781275   0.236953  -0.232312  -0.193499
     8  C    0.345695   8.535269  -1.159517  -1.258837   0.192416  -1.051759
     9  C   -0.781275  -1.159517   9.523018   0.256781   1.644848  -1.900245
    10  C    0.236953  -1.258837   0.256781   9.132906  -0.429494   2.353667
    11  C   -0.232312   0.192416   1.644848  -0.429494  14.438998  -3.743694
    12  C   -0.193499  -1.051759  -1.900245   2.353667  -3.743694  15.882929
    13  C   -0.905793   0.248197   1.617801  -0.430163   1.125208  -4.834696
    14  C    1.313178  -2.000573  -1.924205   2.371911  -4.794872   3.005465
    15  H   -0.002596   0.005638   0.090961  -0.009691  -0.028785  -0.023898
    16  H    0.000353   0.000631   0.003089  -0.009258   0.025790  -0.030869
    17  H   -0.000391  -0.001288  -0.005531   0.020372  -0.027315   0.090489
    18  H    0.001987   0.007096  -0.025078   0.014549  -0.010257  -0.050624
    19  H   -0.007941  -0.046652   0.075149   0.422244   0.081733  -0.066949
    20  H    0.004375   0.049225  -0.024834   0.015249  -0.012099  -0.012324
    21  H   -0.017627  -0.023923  -0.005499   0.020289  -0.006080   0.005149
    22  H    0.378839  -0.018800   0.003838  -0.009542   0.002972  -0.009011
    23  H   -0.105077   0.366799   0.091699  -0.009660   0.001360   0.006410
    24  H    0.015710   0.030064   0.360783   0.005533   0.011389  -0.055383
    25  H    0.012863   0.033973   0.353306   0.005578   0.016339  -0.064816
              13         14         15         16         17         18
     1  C    0.173332  -1.078821   0.365155  -0.020723  -0.024530   0.049057
     2  C   -0.250041  -0.198729  -0.106276   0.379723  -0.016997   0.003439
     3  C   -0.166164  -0.202664  -0.000897  -0.017083   0.377046  -0.085774
     4  C   -1.516582  -0.294161   0.027309   0.013276  -0.067022   0.455959
     5  C   -0.364683  -1.511752   0.005679  -0.001502   0.000212   0.007294
     6  C    1.028780  -1.373171   0.001089  -0.000320   0.000391  -0.004980
     7  C   -0.905793   1.313178  -0.002596   0.000353  -0.000391   0.001987
     8  C    0.248197  -2.000573   0.005638   0.000631  -0.001288   0.007096
     9  C    1.617801  -1.924205   0.090961   0.003089  -0.005531  -0.025078
    10  C   -0.430163   2.371911  -0.009691  -0.009258   0.020372   0.014549
    11  C    1.125208  -4.794872  -0.028785   0.025790  -0.027315  -0.010257
    12  C   -4.834696   3.005465  -0.023898  -0.030869   0.090489  -0.050624
    13  C   14.573457  -3.716287   0.001578   0.002913  -0.006270  -0.012381
    14  C   -3.716287  15.944879   0.006560  -0.008856   0.005183  -0.012928
    15  H    0.001578   0.006560   0.439548  -0.009000   0.001508   0.000164
    16  H    0.002913  -0.008856  -0.009000   0.419668  -0.006751   0.001916
    17  H   -0.006270   0.005183   0.001508  -0.006751   0.423455  -0.010426
    18  H   -0.012381  -0.012928   0.000164   0.001916  -0.010426   0.453564
    19  H    0.080590  -0.066242   0.000304  -0.000553   0.001451  -0.006297
    20  H   -0.010623  -0.051245  -0.000117   0.000015  -0.000146   0.001281
    21  H   -0.026464   0.089478   0.000015  -0.000007   0.000011  -0.000144
    22  H    0.026642  -0.033385  -0.000127   0.000007  -0.000007   0.000015
    23  H   -0.030028  -0.025097   0.000574  -0.000127   0.000014  -0.000114
    24  H    0.009941  -0.052920  -0.001194   0.000716  -0.000173   0.000198
    25  H    0.016540  -0.067303  -0.000626   0.000539  -0.000113   0.000160
              19         20         21         22         23         24
     1  C   -0.046687   0.007319  -0.001320   0.000748   0.005736   0.026099
     2  C   -0.007848   0.001987  -0.000395   0.000364  -0.002705   0.013951
     3  C    0.051655  -0.005038   0.000395  -0.000323   0.001100  -0.001995
     4  C   -0.071646   0.007101   0.000233  -0.001521   0.005655  -0.011514
     5  C   -0.073537   0.454992  -0.067047   0.013797   0.027226  -0.013408
     6  C    0.051549  -0.086979   0.376833  -0.017711  -0.001060  -0.001426
     7  C   -0.007941   0.004375  -0.017627   0.378839  -0.105077   0.015710
     8  C   -0.046652   0.049225  -0.023923  -0.018800   0.366799   0.030064
     9  C    0.075149  -0.024834  -0.005499   0.003838   0.091699   0.360783
    10  C    0.422244   0.015249   0.020289  -0.009542  -0.009660   0.005533
    11  C    0.081733  -0.012099  -0.006080   0.002972   0.001360   0.011389
    12  C   -0.066949  -0.012324   0.005149  -0.009011   0.006410  -0.055383
    13  C    0.080590  -0.010623  -0.026464   0.026642  -0.030028   0.009941
    14  C   -0.066242  -0.051245   0.089478  -0.033385  -0.025097  -0.052920
    15  H    0.000304  -0.000117   0.000015  -0.000127   0.000574  -0.001194
    16  H   -0.000553   0.000015  -0.000007   0.000007  -0.000127   0.000716
    17  H    0.001451  -0.000146   0.000011  -0.000007   0.000014  -0.000173
    18  H   -0.006297   0.001281  -0.000144   0.000015  -0.000114   0.000198
    19  H    0.443896  -0.006375   0.001440  -0.000549   0.000317   0.000599
    20  H   -0.006375   0.453683  -0.010291   0.001953   0.000148   0.000159
    21  H    0.001440  -0.010291   0.422991  -0.006705   0.001497  -0.000155
    22  H   -0.000549   0.001953  -0.006705   0.419622  -0.009035   0.000647
    23  H    0.000317   0.000148   0.001497  -0.009035   0.439206  -0.001004
    24  H    0.000599   0.000159  -0.000155   0.000647  -0.001004   0.493081
    25  H    0.000615   0.000205  -0.000131   0.000602  -0.000841  -0.079367
              25
     1  C    0.039472
     2  C    0.015018
     3  C   -0.000830
     4  C   -0.013237
     5  C   -0.011683
     6  C   -0.001566
     7  C    0.012863
     8  C    0.033973
     9  C    0.353306
    10  C    0.005578
    11  C    0.016339
    12  C   -0.064816
    13  C    0.016540
    14  C   -0.067303
    15  H   -0.000626
    16  H    0.000539
    17  H   -0.000113
    18  H    0.000160
    19  H    0.000615
    20  H    0.000205
    21  H   -0.000131
    22  H    0.000602
    23  H   -0.000841
    24  H   -0.079367
    25  H    0.493420
 Mulliken charges:
               1
     1  C    0.086018
     2  C   -0.405843
     3  C   -0.441012
     4  C    0.019820
     5  C    0.021584
     6  C   -0.439724
     7  C   -0.399709
     8  C    0.089811
     9  C   -0.322259
    10  C    0.092574
    11  C   -0.642787
    12  C    0.682285
    13  C   -0.634807
    14  C    0.676558
    15  H    0.237126
    16  H    0.256411
    17  H    0.246826
    18  H    0.222323
    19  H    0.189734
    20  H    0.222377
    21  H    0.247459
    22  H    0.256669
    23  H    0.237008
    24  H    0.249670
    25  H    0.251884
 Sum of Mulliken charges =   1.00000
 Mulliken charges with hydrogens summed into heavy atoms:
               1
     1  C    0.323144
     2  C   -0.149432
     3  C   -0.194185
     4  C    0.242144
     5  C    0.243962
     6  C   -0.192265
     7  C   -0.143040
     8  C    0.326819
     9  C    0.179295
    10  C    0.282308
    11  C   -0.642787
    12  C    0.682285
    13  C   -0.634807
    14  C    0.676558
 Electronic spatial extent (au):  <R**2>=           2859.8438
 Charge=              1.0000 electrons
 Dipole moment (field-independent basis, Debye):
    X=              0.0107    Y=              0.1894    Z=             -0.0002  Tot=              0.1897
 Quadrupole moment (field-independent basis, Debye-Ang):
   XX=            -31.0290   YY=            -56.2617   ZZ=            -84.1742
   XY=              0.0060   XZ=              0.0098   YZ=              0.0467
 Traceless Quadrupole moment (field-independent basis, Debye-Ang):
   XX=             26.1259   YY=              0.8933   ZZ=            -27.0192
   XY=              0.0060   XZ=              0.0098   YZ=              0.0467
 Octapole moment (field-independent basis, Debye-Ang**2):
  XXX=              0.4401  YYY=              5.2089  ZZZ=             -0.0189  XYY=             -0.0044
  XXY=             -4.8527  XXZ=              0.0863  XZZ=             -0.0527  YZZ=             -3.0870
  YYZ=              0.0694  XYZ=              0.0494
 Hexadecapole moment (field-independent basis, Debye-Ang**3):
 XXXX=          -2124.0249 YYYY=           -609.2703 ZZZZ=            -99.4416 XXXY=              0.2487
 XXXZ=              0.2788 YYYX=             -0.1030 YYYZ=              0.4924 ZZZX=              0.0131
 ZZZY=              0.0280 XXYY=           -508.3993 XXZZ=           -591.8489 YYZZ=           -145.7458
 XXYZ=              0.5282 YYXZ=              0.0004 ZZXY=              0.0051
 N-N= 7.807324667091D+02 E-N=-2.797780495234D+03  KE= 5.374769625418D+02
 Unable to Open any file for archive entry.
 1\1\GINC-GADI-CPU-CLX-2542\SP\RM062X TD-FC\6-311++G(d,p)\C14H11(1+)\TS
 1578\27-Jul-2022\0\\#n M062X/6-311++G(d,p) TD(NStates=1) EmpiricalDisp
 ersion=GD3 SP\\SP_125\\1,1\C,0,0.01065,2.491155,1.360431\C,0,0.010125,
 3.704333,0.671989\C,0,0.0035,3.688061,-0.71383\C,0,-0.0076,2.467306,-1
 .407538\C,0,-0.008,-2.468106,-1.407538\C,0,0.0011,-3.692061,-0.71383\C
 ,0,0.006325,-3.705733,0.671989\C,0,0.00305,-2.493555,1.360431\C,0,0.00
 4275,0.0088,1.453369\C,0,-0.0122,-0.0004,-1.429189\C,0,-0.001525,1.258
 33,0.677065\C,0,-0.0058,1.238671,-0.730804\C,0,-0.002125,-1.25813,0.67
 7065\C,0,-0.0042,-1.237471,-0.730804\H,0,0.0065,2.486546,2.443647\H,0,
 0.010625,4.638128,1.211689\H,0,-0.00085,4.606537,-1.272349\H,0,-0.0042
 5,2.471675,-2.490059\H,0,-0.01125,-0.0002,-2.510266\H,0,-0.00305,-2.47
 2275,-2.490059\H,0,-0.00205,-4.611537,-1.272349\H,0,0.006025,-4.641128
 ,1.211689\H,0,-0.0023,-2.489146,2.443647\H,0,-0.843585,0.002,2.143587\
 H,0,0.875585,0.002,2.147987\\Version=ES64L-G16RevC.01\State=1-A\HF=-53
 9.7596307\RMSD=4.583e-09\PG=C01 [X(C14H11)]\\@
 The archive entry for this job was punched.


 FRICTION IS A DRAG,
 AND ENTROPY AIN'T WHAT IT USED TO BE.
 Job cpu time:       0 days  1 hours 13 minutes 38.6 seconds.
 Elapsed time:       0 days  0 hours  2 minutes 21.9 seconds.
 File lengths (MBytes):  RWF=    460 Int=      0 D2E=      0 Chk=     15 Scr=      1
 Normal termination of Gaussian 16 at Wed Jul 27 13:34:43 2022.
