 Entering Gaussian System, Link 0=g16
 Initial command:
 /apps/gaussian/g16c01/g16/l1.exe "/jobfs/52826432.gadi-pbs/Gau-2812324.inp" -scrdir="/jobfs/52826432.gadi-pbs/"
 Entering Link 1 = /apps/gaussian/g16c01/g16/l1.exe PID=   2812325.
  
 Copyright (c) 1988-2019, Gaussian, Inc.  All Rights Reserved.
  
 This is part of the Gaussian(R) 16 program.  It is based on
 the Gaussian(R) 09 system (copyright 2009, Gaussian, Inc.),
 the Gaussian(R) 03 system (copyright 2003, Gaussian, Inc.),
 the Gaussian(R) 98 system (copyright 1998, Gaussian, Inc.),
 the Gaussian(R) 94 system (copyright 1995, Gaussian, Inc.),
 the Gaussian 92(TM) system (copyright 1992, Gaussian, Inc.),
 the Gaussian 90(TM) system (copyright 1990, Gaussian, Inc.),
 the Gaussian 88(TM) system (copyright 1988, Gaussian, Inc.),
 the Gaussian 86(TM) system (copyright 1986, Carnegie Mellon
 University), and the Gaussian 82(TM) system (copyright 1983,
 Carnegie Mellon University). Gaussian is a federally registered
 trademark of Gaussian, Inc.
  
 This software contains proprietary and confidential information,
 including trade secrets, belonging to Gaussian, Inc.
  
 This software is provided under written license and may be
 used, copied, transmitted, or stored only in accord with that
 written license.
  
 The following legend is applicable only to US Government
 contracts under FAR:
  
                    RESTRICTED RIGHTS LEGEND
  
 Use, reproduction and disclosure by the US Government is
 subject to restrictions as set forth in subparagraphs (a)
 and (c) of the Commercial Computer Software - Restricted
 Rights clause in FAR 52.227-19.
  
 Gaussian, Inc.
 340 Quinnipiac St., Bldg. 40, Wallingford CT 06492
  
  
 ---------------------------------------------------------------
 Warning -- This program may not be used in any manner that
 competes with the business of Gaussian, Inc. or will provide
 assistance to any competitor of Gaussian, Inc.  The licensee
 of this program is prohibited from giving any competitor of
 Gaussian, Inc. access to this program.  By using this program,
 the user acknowledges that Gaussian, Inc. is engaged in the
 business of creating and licensing software in the field of
 computational chemistry and represents and warrants to the
 licensee that it is not a competitor of Gaussian, Inc. and that
 it will not use this program in any manner prohibited above.
 ---------------------------------------------------------------
  

 Cite this work as:
 Gaussian 16, Revision C.01,
 M. J. Frisch, G. W. Trucks, H. B. Schlegel, G. E. Scuseria, 
 M. A. Robb, J. R. Cheeseman, G. Scalmani, V. Barone, 
 G. A. Petersson, H. Nakatsuji, X. Li, M. Caricato, A. V. Marenich, 
 J. Bloino, B. G. Janesko, R. Gomperts, B. Mennucci, H. P. Hratchian, 
 J. V. Ortiz, A. F. Izmaylov, J. L. Sonnenberg, D. Williams-Young, 
 F. Ding, F. Lipparini, F. Egidi, J. Goings, B. Peng, A. Petrone, 
 T. Henderson, D. Ranasinghe, V. G. Zakrzewski, J. Gao, N. Rega, 
 G. Zheng, W. Liang, M. Hada, M. Ehara, K. Toyota, R. Fukuda, 
 J. Hasegawa, M. Ishida, T. Nakajima, Y. Honda, O. Kitao, H. Nakai, 
 T. Vreven, K. Throssell, J. A. Montgomery, Jr., J. E. Peralta, 
 F. Ogliaro, M. J. Bearpark, J. J. Heyd, E. N. Brothers, K. N. Kudin, 
 V. N. Staroverov, T. A. Keith, R. Kobayashi, J. Normand, 
 K. Raghavachari, A. P. Rendell, J. C. Burant, S. S. Iyengar, 
 J. Tomasi, M. Cossi, J. M. Millam, M. Klene, C. Adamo, R. Cammi, 
 J. W. Ochterski, R. L. Martin, K. Morokuma, O. Farkas, 
 J. B. Foresman, and D. J. Fox, Gaussian, Inc., Wallingford CT, 2019.
 
 ******************************************
 Gaussian 16:  ES64L-G16RevC.01  3-Jul-2019
                27-Jul-2022 
 ******************************************
 %NProcShared=32
 Will use up to   32 processors via shared memory.
 %mem = 128GB
 ---------------------------------------------------------------
 #n M062X/6-311++G(d,p) TD(NStates=1) EmpiricalDispersion=GD3 SP
 ---------------------------------------------------------------
 1/38=1,172=1/1;
 2/12=2,17=6,18=5,40=1/2;
 3/5=4,6=6,7=1111,11=9,25=1,30=1,74=-55,124=31/1,2,3,8;
 4//1;
 5/5=2,38=5/2;
 8/6=1,10=2,108=1/1;
 9/41=1,42=1,70=2/14;
 6/7=2,8=2,9=2,10=2/1;
 99/5=1,9=1/99;
 ------
 SP_150
 ------
 Symbolic Z-matrix:
 Charge =  1 Multiplicity = 1
 C                     0.02045   2.49086   1.36043 
 C                     0.02223   3.70971   0.67199 
 C                     0.0068    3.69761  -0.71383 
 C                    -0.01932   2.47418  -1.40754 
 C                    -0.01967  -2.47488  -1.40754 
 C                     0.0047   -3.70111  -0.71383 
 C                     0.0189   -3.71093   0.67199 
 C                     0.0138   -2.49296   1.36043 
 C                     0.01085   0.0077    1.45337 
 C                    -0.0305   -0.00035  -1.42919 
 C                    -0.0043    1.25258   0.67707 
 C                    -0.0132    1.2395   -0.7308 
 C                    -0.00483  -1.2524    0.67707 
 C                    -0.0118   -1.23845  -0.7308 
 H                     0.0091    2.48637   2.44365 
 H                     0.02283   4.64263   1.21169 
 H                    -0.0031    4.60651  -1.27235 
 H                    -0.00965   2.47835  -2.49006 
 H                    -0.02813  -0.00018  -2.51027 
 H                    -0.0086   -2.47888  -2.49006 
 H                    -0.00415  -4.61089  -1.27235 
 H                     0.0188   -4.64525   1.21169 
 H                     0.0014   -2.48865   2.44365 
 H                    -0.81959   0.00175   2.14386 
 H                     0.89959   0.00175   2.14771 
 
                          Input orientation:                          
 ---------------------------------------------------------------------
 Center     Atomic      Atomic             Coordinates (Angstroms)
 Number     Number       Type             X           Y           Z
 ---------------------------------------------------------------------
      1          6           0        0.020450    2.490855    1.360431
      2          6           0        0.022225    3.709708    0.671989
      3          6           0        0.006800    3.697611   -0.713830
      4          6           0       -0.019325    2.474181   -1.407538
      5          6           0       -0.019675   -2.474881   -1.407538
      6          6           0        0.004700   -3.701111   -0.713830
      7          6           0        0.018900   -3.710933    0.671989
      8          6           0        0.013800   -2.492955    1.360431
      9          6           0        0.010850    0.007700    1.453369
     10          6           0       -0.030500   -0.000350   -1.429189
     11          6           0       -0.004300    1.252580    0.677065
     12          6           0       -0.013200    1.239496   -0.730804
     13          6           0       -0.004825   -1.252405    0.677065
     14          6           0       -0.011800   -1.238446   -0.730804
     15          1           0        0.009100    2.486371    2.443647
     16          1           0        0.022825    4.642628    1.211689
     17          1           0       -0.003100    4.606512   -1.272349
     18          1           0       -0.009650    2.478350   -2.490059
     19          1           0       -0.028125   -0.000175   -2.510266
     20          1           0       -0.008600   -2.478875   -2.490059
     21          1           0       -0.004150   -4.610887   -1.272349
     22          1           0        0.018800   -4.645253    1.211689
     23          1           0        0.001400   -2.488646    2.443647
     24          1           0       -0.819585    0.001750    2.143862
     25          1           0        0.899585    0.001750    2.147712
 ---------------------------------------------------------------------
                    Distance matrix (angstroms):
                    1          2          3          4          5
     1  C    0.000000
     2  C    1.399842   0.000000
     3  C    2.399793   1.385958   0.000000
     4  C    2.768305   2.419233   1.406661   0.000000
     5  C    5.685226   6.524977   6.211408   4.949062   0.000000
     6  C    6.530180   7.539300   7.398722   6.214180   1.409065
     7  C    6.239882   7.420642   7.537053   6.525452   2.419451
     8  C    4.983814   6.240757   6.528837   5.686404   2.768230
     9  C    2.484912   3.783589   4.279277   3.777463   3.787998
    10  C    3.740411   4.264066   3.766702   2.474651   2.474649
    11  C    1.414541   2.457276   2.812986   2.416217   4.270805
    12  C    2.437272   2.840956   2.458255   1.407996   3.775527
    13  C    3.805210   4.962189   5.141730   4.270038   2.416658
    14  C    4.275744   5.143269   4.936121   3.773808   1.409540
    15  H    1.083285   2.153021   3.381829   3.851309   6.280643
    16  H    2.156909   1.077783   2.144980   3.400631   7.584266
    17  H    3.377586   2.141343   1.066838   2.136674   7.082703
    18  H    3.850628   3.393495   2.154497   1.082572   5.070153
    19  H    4.603247   4.887997   4.111207   2.708971   2.709290
    20  H    6.286918   6.949680   6.426835   5.069983   1.082585
    21  H    7.574092   8.544791   8.327257   7.086374   2.140336
    22  H    7.137658   8.372375   8.562193   7.586049   3.401815
    23  H    5.095994   6.446611   6.945464   6.281855   3.851267
    24  H    2.741362   4.077255   4.744334   4.400656   4.402953
    25  H    2.754693   4.086132   4.758663   4.426863   4.429282
                    6          7          8          9         10
     6  C    0.000000
     7  C    1.385927   0.000000
     8  C    2.400475   1.399089   0.000000
     9  C    4.295587   3.799849   2.502383   0.000000
    10  C    3.769431   4.264483   3.741259   2.882866   0.000000
    11  C    5.145262   4.963570   3.807407   1.467175   2.450883
    12  C    4.940669   5.145445   4.278456   2.507690   1.423116
    13  C    2.816175   2.458648   1.416439   1.480121   2.450430
    14  C    2.462779   2.842879   2.438793   2.514757   1.421609
    15  H    6.946554   6.445576   5.095789   2.669169   4.602631
    16  H    8.563056   8.370978   7.137139   4.641240   5.341753
    17  H    8.326380   8.541711   7.571938   5.345915   4.609612
    18  H    6.429692   6.950294   6.288139   4.653510   2.696263
    19  H    4.114023   4.888628   4.604129   3.963834   1.081080
    20  H    2.156160   3.393710   3.850581   4.661980   2.696110
    21  H    1.067574   2.142638   3.378977   5.362939   4.613279
    22  H    2.144581   1.078995   2.157437   4.659232   5.343388
    23  H    3.382269   2.152455   1.083296   2.685607   4.603422
    24  H    4.749424   4.080868   2.744421   1.080018   3.659146
    25  H    4.764496   4.091134   2.761880   1.127829   3.695847
                   11         12         13         14         15
    11  C    0.000000
    12  C    1.407958   0.000000
    13  C    2.504985   2.862121   0.000000
    14  C    2.861357   2.477942   1.407955   0.000000
    15  H    2.154816   3.410621   4.135148   4.894061   0.000000
    16  H    3.432052   3.918658   5.919291   6.193667   2.483416
    17  H    3.879314   3.410303   6.174717   5.869998   4.278291
    18  H    3.396059   2.151685   4.893795   4.112123   4.933748
    19  H    3.424769   2.168754   3.424573   2.167964   5.543063
    20  H    4.894328   4.113549   3.396309   2.152592   6.999674
    21  H    6.179034   5.875401   3.883248   3.415653   8.011234
    22  H    5.922060   6.197142   3.434792   3.921804   7.237256
    23  H    4.137344   4.896570   2.156187   3.411790   4.975023
    24  H    2.093026   3.232024   2.094811   3.233312   2.636272
    25  H    2.131757   3.263594   2.133932   3.264133   2.655915
                   16         17         18         19         20
    16  H    0.000000
    17  H    2.484436   0.000000
    18  H    4.288134   2.451925   0.000000
    19  H    5.950728   4.770181   2.478676   0.000000
    20  H    8.026190   7.189267   4.957225   2.478859   0.000000
    21  H    9.581164   9.217399   7.193061   4.774063   2.455262
    22  H    9.287882   9.579461   8.028043   5.952470   4.289159
    23  H    7.236936   8.009364   7.000902   5.543881   4.933726
    24  H    4.807947   5.791457   5.316274   4.720945   5.318310
    25  H    4.814831   5.806504   5.335651   4.749464   5.337342
                   21         22         23         24         25
    21  H    0.000000
    22  H    2.484382   0.000000
    23  H    4.279318   2.483743   0.000000
    24  H    5.797573   4.813156   2.639310   0.000000
    25  H    5.812914   4.821468   2.663904   1.719174   0.000000
 Stoichiometry    C14H11(1+)
 Framework group  C1[X(C14H11)]
 Deg. of freedom    69
 Full point group                 C1      NOp   1
 Largest Abelian subgroup         C1      NOp   1
 Largest concise Abelian subgroup C1      NOp   1
                         Standard orientation:                         
 ---------------------------------------------------------------------
 Center     Atomic      Atomic             Coordinates (Angstroms)
 Number     Number       Type             X           Y           Z
 ---------------------------------------------------------------------
      1          6           0       -2.491066   -1.360188    0.003973
      2          6           0       -3.709818   -0.671621    0.012829
      3          6           0       -3.697509    0.714282    0.012680
      4          6           0       -2.473966    1.408048   -0.005294
      5          6           0        2.475096    1.407296   -0.003593
      6          6           0        3.701213    0.713175    0.013644
      7          6           0        3.710824   -0.672718    0.012578
      8          6           0        2.492746   -1.360876   -0.000612
      9          6           0       -0.007922   -1.453394   -0.005621
     10          6           0        0.000573    1.429443   -0.015204
     11          6           0       -1.252680   -0.676780   -0.012732
     12          6           0       -1.239384    0.731099   -0.006114
     13          6           0        1.252305   -0.677157   -0.012220
     14          6           0        1.238557    0.730705   -0.003688
     15          1           0       -2.486738   -2.443214   -0.019309
     16          1           0       -4.642818   -1.211153    0.007096
     17          1           0       -4.606323    1.273015    0.008558
     18          1           0       -2.477978    2.490398    0.016307
     19          1           0        0.000557    2.510428   -0.000918
     20          1           0        2.479246    2.489629    0.019410
     21          1           0        4.611075    1.271618    0.011326
     22          1           0        4.645064   -1.212527    0.006918
     23          1           0        2.488281   -2.443889   -0.024948
     24          1           0       -0.001728   -2.134696   -0.843612
     25          1           0       -0.002444   -2.157488    0.875412
 ---------------------------------------------------------------------
 Rotational constants (GHZ):           2.1357821           0.4425505           0.3673938
 Standard basis: 6-311++G(d,p) (5D, 7F)
 There are   399 symmetry adapted cartesian basis functions of A   symmetry.
 There are   385 symmetry adapted basis functions of A   symmetry.
   385 basis functions,   603 primitive gaussians,   399 cartesian basis functions
    47 alpha electrons       47 beta electrons
       nuclear repulsion energy       780.0227585833 Hartrees.
 NAtoms=   25 NActive=   25 NUniq=   25 SFac= 1.00D+00 NAtFMM=   60 NAOKFM=F Big=F
 Integral buffers will be    131072 words long.
 Regular integral format.
 Two-electron integral symmetry is turned on.
 Nuclear repulsion after empirical dispersion term =      780.0217786715 Hartrees.
 One-electron integrals computed using PRISM.
 NBasis=   385 RedAO= T EigKep=  1.24D-06  NBF=   385
 NBsUse=   379 1.00D-06 EigRej=  8.77D-07 NBFU=   379
 ExpMin= 3.60D-02 ExpMax= 4.56D+03 ExpMxC= 6.82D+02 IAcc=3 IRadAn=         5 AccDes= 0.00D+00
 Harris functional with IExCor= 1009 and IRadAn=       5 diagonalized for initial guess.
 HarFok:  IExCor= 1009 AccDes= 0.00D+00 IRadAn=         5 IDoV= 1 UseB2=F ITyADJ=14
 ICtDFT=  3500011 ScaDFX=  1.000000  1.000000  1.000000  1.000000
 FoFCou: FMM=F IPFlag=           0 FMFlag=      100000 FMFlg1=           0
         NFxFlg=           0 DoJE=T BraDBF=F KetDBF=T FulRan=T
         wScrn=  0.000000 ICntrl=       500 IOpCl=  0 I1Cent=   200000004 NGrid=           0
         NMat0=    1 NMatS0=      1 NMatT0=    0 NMatD0=    1 NMtDS0=    0 NMtDT0=    0
 Petite list used in FoFCou.
 Requested convergence on RMS density matrix=1.00D-08 within 128 cycles.
 Requested convergence on MAX density matrix=1.00D-06.
 Requested convergence on             energy=1.00D-06.
 No special actions if energy rises.
 SCF Done:  E(RM062X) =  -539.757856078     A.U. after   15 cycles
            NFock= 15  Conv=0.46D-08     -V/T= 2.0043
 DoSCS=F DFT=T ScalE2(SS,OS)=  1.000000  1.000000
 ExpMin= 3.60D-02 ExpMax= 4.56D+03 ExpMxC= 6.82D+02 IAcc=3 IRadAn=         5 AccDes= 0.00D+00
 HarFok:  IExCor=  205 AccDes= 0.00D+00 IRadAn=         5 IDoV=-2 UseB2=F ITyADJ=14
 ICtDFT= 12500011 ScaDFX=  1.000000  1.000000  1.000000  1.000000
 Range of M.O.s used for correlation:    15   379
 NBasis=   385 NAE=    47 NBE=    47 NFC=    14 NFV=     0
 NROrb=    365 NOA=    33 NOB=    33 NVA=   332 NVB=   332

 **** Warning!!: The largest alpha MO coefficient is  0.15016031D+03

 Orbital symmetries:
       Occupied  (A) (A) (A) (A) (A) (A) (A) (A) (A) (A) (A) (A)
                 (A) (A) (A) (A) (A) (A) (A) (A) (A) (A) (A) (A)
                 (A) (A) (A) (A) (A) (A) (A) (A) (A) (A) (A) (A)
                 (A) (A) (A) (A) (A) (A) (A) (A) (A) (A) (A)
       Virtual   (A) (A) (A) (A) (A) (A) (A) (A) (A) (A) (A) (A)
                 (A) (A) (A) (A) (A) (A) (A) (A) (A) (A) (A) (A)
                 (A) (A) (A) (A) (A) (A) (A) (A) (A) (A) (A) (A)
                 (A) (A) (A) (A) (A) (A) (A) (A) (A) (A) (A) (A)
                 (A) (A) (A) (A) (A) (A) (A) (A) (A) (A) (A) (A)
                 (A) (A) (A) (A) (A) (A) (A) (A) (A) (A) (A) (A)
                 (A) (A) (A) (A) (A) (A) (A) (A) (A) (A) (A) (A)
                 (A) (A) (A) (A) (A) (A) (A) (A) (A) (A) (A) (A)
                 (A) (A) (A) (A) (A) (A) (A) (A) (A) (A) (A) (A)
                 (A) (A) (A) (A) (A) (A) (A) (A) (A) (A) (A) (A)
                 (A) (A) (A) (A) (A) (A) (A) (A) (A) (A) (A) (A)
                 (A) (A) (A) (A) (A) (A) (A) (A) (A) (A) (A) (A)
                 (A) (A) (A) (A) (A) (A) (A) (A) (A) (A) (A) (A)
                 (A) (A) (A) (A) (A) (A) (A) (A) (A) (A) (A) (A)
                 (A) (A) (A) (A) (A) (A) (A) (A) (A) (A) (A) (A)
                 (A) (A) (A) (A) (A) (A) (A) (A) (A) (A) (A) (A)
                 (A) (A) (A) (A) (A) (A) (A) (A) (A) (A) (A) (A)
                 (A) (A) (A) (A) (A) (A) (A) (A) (A) (A) (A) (A)
                 (A) (A) (A) (A) (A) (A) (A) (A) (A) (A) (A) (A)
                 (A) (A) (A) (A) (A) (A) (A) (A) (A) (A) (A) (A)
                 (A) (A) (A) (A) (A) (A) (A) (A) (A) (A) (A) (A)
                 (A) (A) (A) (A) (A) (A) (A) (A) (A) (A) (A) (A)
                 (A) (A) (A) (A) (A) (A) (A) (A) (A) (A) (A) (A)
                 (A) (A) (A) (A) (A) (A) (A) (A) (A) (A) (A) (A)
                 (A) (A) (A) (A) (A) (A) (A) (A) (A) (A) (A) (A)
                 (A) (A) (A) (A) (A) (A) (A) (A) (A) (A) (A) (A)
                 (A) (A) (A) (A) (A) (A) (A) (A) (A) (A) (A) (A)
                 (A) (A) (A) (A) (A) (A) (A) (A)
     4 initial guesses have been made.
 Convergence on wavefunction:    0.001000000000000
 Iteration     1 Dimension     4 NMult     0 NNew      4
 CISAX will form     4 AO SS matrices at one time.
 Iteration     2 Dimension     6 NMult     4 NNew      2
 Iteration     3 Dimension     8 NMult     6 NNew      2
 Iteration     4 Dimension    10 NMult     8 NNew      2
 Iteration     5 Dimension    12 NMult    10 NNew      2
 Iteration     6 Dimension    14 NMult    12 NNew      2
 ***********************************************************************
 Excited states from <AA,BB:AA,BB> singles matrix:
 ***********************************************************************
 
 Ground to excited state transition densities written to RWF  633
 Ground to excited state transition electric dipole moments (Au):
       state          X           Y           Z        Dip. S.      Osc.
         1        -0.0104     -0.6357      0.0051      0.4042      0.0277
 Ground to excited state transition velocity dipole moments (Au):
       state          X           Y           Z        Dip. S.      Osc.
         1         0.0011      0.0731     -0.0006      0.0053      0.0346
 Ground to excited state transition magnetic dipole moments (Au):
       state          X           Y           Z
         1        -0.0064     -0.0007      0.0001
 Ground to excited state transition velocity quadrupole moments (Au):
       state          XX          YY          ZZ          XY          XZ          YZ
         1         0.3106      0.0317     -0.0095      0.0014      0.0001      0.0011
 <0|del|b> * <b|rxdel|0> + <0|del|b> * <b|delr+rdel|0>
 Rotatory Strengths (R) in cgs (10**-40 erg-esu-cm/Gauss)
       state          XX          YY          ZZ    R(velocity)    E-M Angle
         1        -0.2218     -0.0172     -0.1849     -0.1413       90.00
 1/2[<0|r|b>*<b|rxdel|0> + (<0|rxdel|b>*<b|r|0>)*]
 Rotatory Strengths (R) in cgs (10**-40 erg-esu-cm/Gauss)
       state          XX          YY          ZZ     R(length)
         1        -0.0472     -0.3355     -0.0003     -0.1277
  1/2[<0|del|b>*<b|r|0> + (<0|r|b>*<b|del|0>)*] (Au)
       state          X           Y           Z        Dip. S.   Osc.(frdel)
         1        -0.0000     -0.0465     -0.0000      0.0465      0.0310

 Excitation energies and oscillator strengths:
 
 Excited State   1:      Singlet-A      2.8001 eV  442.79 nm  f=0.0277  <S**2>=0.000
      47 -> 48         0.70427
 This state for optimization and/or second-order correction.
 Total Energy, E(TD-HF/TD-DFT) =  -539.654955869    
 Copying the excited state density for this state as the 1-particle RhoCI density.
 SavETr:  write IOETrn=   770 NScale= 10 NData=  16 NLR=1 NState=    1 LETran=      28.

 **********************************************************************

            Population analysis using the SCF Density.

 **********************************************************************

 Orbital symmetries:
       Occupied  (A) (A) (A) (A) (A) (A) (A) (A) (A) (A) (A) (A)
                 (A) (A) (A) (A) (A) (A) (A) (A) (A) (A) (A) (A)
                 (A) (A) (A) (A) (A) (A) (A) (A) (A) (A) (A) (A)
                 (A) (A) (A) (A) (A) (A) (A) (A) (A) (A) (A)
       Virtual   (A) (A) (A) (A) (A) (A) (A) (A) (A) (A) (A) (A)
                 (A) (A) (A) (A) (A) (A) (A) (A) (A) (A) (A) (A)
                 (A) (A) (A) (A) (A) (A) (A) (A) (A) (A) (A) (A)
                 (A) (A) (A) (A) (A) (A) (A) (A) (A) (A) (A) (A)
                 (A) (A) (A) (A) (A) (A) (A) (A) (A) (A) (A) (A)
                 (A) (A) (A) (A) (A) (A) (A) (A) (A) (A) (A) (A)
                 (A) (A) (A) (A) (A) (A) (A) (A) (A) (A) (A) (A)
                 (A) (A) (A) (A) (A) (A) (A) (A) (A) (A) (A) (A)
                 (A) (A) (A) (A) (A) (A) (A) (A) (A) (A) (A) (A)
                 (A) (A) (A) (A) (A) (A) (A) (A) (A) (A) (A) (A)
                 (A) (A) (A) (A) (A) (A) (A) (A) (A) (A) (A) (A)
                 (A) (A) (A) (A) (A) (A) (A) (A) (A) (A) (A) (A)
                 (A) (A) (A) (A) (A) (A) (A) (A) (A) (A) (A) (A)
                 (A) (A) (A) (A) (A) (A) (A) (A) (A) (A) (A) (A)
                 (A) (A) (A) (A) (A) (A) (A) (A) (A) (A) (A) (A)
                 (A) (A) (A) (A) (A) (A) (A) (A) (A) (A) (A) (A)
                 (A) (A) (A) (A) (A) (A) (A) (A) (A) (A) (A) (A)
                 (A) (A) (A) (A) (A) (A) (A) (A) (A) (A) (A) (A)
                 (A) (A) (A) (A) (A) (A) (A) (A) (A) (A) (A) (A)
                 (A) (A) (A) (A) (A) (A) (A) (A) (A) (A) (A) (A)
                 (A) (A) (A) (A) (A) (A) (A) (A) (A) (A) (A) (A)
                 (A) (A) (A) (A) (A) (A) (A) (A) (A) (A) (A) (A)
                 (A) (A) (A) (A) (A) (A) (A) (A) (A) (A) (A) (A)
                 (A) (A) (A) (A) (A) (A) (A) (A) (A) (A) (A) (A)
                 (A) (A) (A) (A) (A) (A) (A) (A) (A) (A) (A) (A)
                 (A) (A) (A) (A) (A) (A) (A) (A) (A) (A) (A) (A)
                 (A) (A) (A) (A) (A) (A) (A) (A) (A) (A) (A) (A)
                 (A) (A) (A) (A) (A) (A) (A) (A)
 The electronic state is 1-A.
 Alpha  occ. eigenvalues --  -10.77657 -10.73330 -10.73234 -10.72544 -10.72540
 Alpha  occ. eigenvalues --  -10.71526 -10.71474 -10.71092 -10.71075 -10.70980
 Alpha  occ. eigenvalues --  -10.70133 -10.70096 -10.69614 -10.69566  -1.16363
 Alpha  occ. eigenvalues --   -1.12200  -1.06811  -1.05814  -1.01077  -1.00195
 Alpha  occ. eigenvalues --   -0.95686  -0.91079  -0.86409  -0.85857  -0.83804
 Alpha  occ. eigenvalues --   -0.78390  -0.76004  -0.74365  -0.69586  -0.69328
 Alpha  occ. eigenvalues --   -0.68631  -0.68255  -0.68123  -0.64545  -0.64119
 Alpha  occ. eigenvalues --   -0.63190  -0.62030  -0.59897  -0.59481  -0.59156
 Alpha  occ. eigenvalues --   -0.56933  -0.55280  -0.54905  -0.52336  -0.46465
 Alpha  occ. eigenvalues --   -0.46037  -0.44381
 Alpha virt. eigenvalues --   -0.26068  -0.14822  -0.14135  -0.12936  -0.11177
 Alpha virt. eigenvalues --   -0.10080  -0.09211  -0.08013  -0.07920  -0.07467
 Alpha virt. eigenvalues --   -0.07222  -0.07145  -0.05647  -0.05582  -0.05359
 Alpha virt. eigenvalues --   -0.03786  -0.03650  -0.03284  -0.03133  -0.02155
 Alpha virt. eigenvalues --   -0.01358  -0.00909   0.00191   0.00650   0.00714
 Alpha virt. eigenvalues --    0.01040   0.01512   0.01886   0.02200   0.02297
 Alpha virt. eigenvalues --    0.02421   0.02601   0.02736   0.03266   0.03397
 Alpha virt. eigenvalues --    0.04252   0.04499   0.04685   0.04961   0.05355
 Alpha virt. eigenvalues --    0.06009   0.06285   0.06600   0.07033   0.07212
 Alpha virt. eigenvalues --    0.07856   0.08040   0.08349   0.08482   0.08936
 Alpha virt. eigenvalues --    0.09561   0.09581   0.10024   0.10764   0.11016
 Alpha virt. eigenvalues --    0.11125   0.12226   0.12282   0.12875   0.13040
 Alpha virt. eigenvalues --    0.13407   0.13532   0.14031   0.14243   0.15988
 Alpha virt. eigenvalues --    0.16369   0.16610   0.17397   0.17492   0.17671
 Alpha virt. eigenvalues --    0.18087   0.18918   0.19165   0.19583   0.19716
 Alpha virt. eigenvalues --    0.21444   0.21487   0.22683   0.23131   0.23464
 Alpha virt. eigenvalues --    0.23574   0.24545   0.24884   0.26831   0.27469
 Alpha virt. eigenvalues --    0.28829   0.29276   0.29814   0.31199   0.35794
 Alpha virt. eigenvalues --    0.36220   0.37954   0.39141   0.41160   0.41485
 Alpha virt. eigenvalues --    0.41934   0.42366   0.43034   0.43550   0.44240
 Alpha virt. eigenvalues --    0.44717   0.44789   0.45379   0.46056   0.47910
 Alpha virt. eigenvalues --    0.48609   0.48912   0.49064   0.50463   0.51174
 Alpha virt. eigenvalues --    0.51381   0.51402   0.52129   0.52537   0.54004
 Alpha virt. eigenvalues --    0.54119   0.54492   0.55761   0.55762   0.57407
 Alpha virt. eigenvalues --    0.58181   0.58765   0.61376   0.62058   0.62310
 Alpha virt. eigenvalues --    0.62952   0.63617   0.64449   0.65134   0.67036
 Alpha virt. eigenvalues --    0.70439   0.70594   0.70953   0.72162   0.72738
 Alpha virt. eigenvalues --    0.75518   0.75695   0.76157   0.76585   0.76939
 Alpha virt. eigenvalues --    0.77473   0.77686   0.78115   0.80401   0.80494
 Alpha virt. eigenvalues --    0.81162   0.81533   0.82046   0.82842   0.84844
 Alpha virt. eigenvalues --    0.86804   0.87298   0.88022   0.89565   0.90461
 Alpha virt. eigenvalues --    0.90739   0.91443   0.93073   0.94710   0.96370
 Alpha virt. eigenvalues --    0.96703   1.00463   1.01270   1.01546   1.02638
 Alpha virt. eigenvalues --    1.02991   1.03909   1.04455   1.05911   1.08800
 Alpha virt. eigenvalues --    1.19805   1.23338   1.24082   1.25381   1.27965
 Alpha virt. eigenvalues --    1.29243   1.32092   1.33709   1.35403   1.35915
 Alpha virt. eigenvalues --    1.39056   1.40202   1.40522   1.42814   1.43123
 Alpha virt. eigenvalues --    1.43358   1.44969   1.45087   1.46501   1.46780
 Alpha virt. eigenvalues --    1.47562   1.47587   1.51587   1.53595   1.55536
 Alpha virt. eigenvalues --    1.55973   1.56120   1.56355   1.57603   1.61236
 Alpha virt. eigenvalues --    1.63454   1.63986   1.64076   1.65969   1.67990
 Alpha virt. eigenvalues --    1.68491   1.68603   1.69683   1.73973   1.75913
 Alpha virt. eigenvalues --    1.77019   1.77865   1.79555   1.79931   1.80175
 Alpha virt. eigenvalues --    1.83066   1.83154   1.83365   1.83551   1.84022
 Alpha virt. eigenvalues --    1.84323   1.85786   1.85796   1.88095   1.91499
 Alpha virt. eigenvalues --    1.91731   1.94126   1.95255   1.97417   1.97675
 Alpha virt. eigenvalues --    1.99302   2.02374   2.04050   2.07543   2.11595
 Alpha virt. eigenvalues --    2.11907   2.13618   2.15099   2.18515   2.20939
 Alpha virt. eigenvalues --    2.22177   2.28381   2.29634   2.34371   2.35341
 Alpha virt. eigenvalues --    2.35985   2.39135   2.40296   2.41729   2.42409
 Alpha virt. eigenvalues --    2.46005   2.48557   2.48671   2.52619   2.53737
 Alpha virt. eigenvalues --    2.54114   2.56860   2.57773   2.58305   2.59631
 Alpha virt. eigenvalues --    2.59665   2.61600   2.61732   2.63256   2.63788
 Alpha virt. eigenvalues --    2.64342   2.64538   2.64938   2.65247   2.67779
 Alpha virt. eigenvalues --    2.68831   2.70857   2.71337   2.73367   2.74808
 Alpha virt. eigenvalues --    2.76245   2.78285   2.79543   2.82356   2.82880
 Alpha virt. eigenvalues --    2.84304   2.86281   2.92039   2.96545   2.99338
 Alpha virt. eigenvalues --    2.99669   3.05660   3.10162   3.10644   3.11780
 Alpha virt. eigenvalues --    3.20841   3.23654   3.25976   3.27721   3.30256
 Alpha virt. eigenvalues --    3.31564   3.32903   3.43317   3.44944   3.45687
 Alpha virt. eigenvalues --    3.47509   3.49377   3.56213   3.65148   3.67162
 Alpha virt. eigenvalues --    3.67871   3.94404   3.95515   3.95794   3.96924
 Alpha virt. eigenvalues --    4.04524   4.06886   4.07150   4.12446   4.35641
 Alpha virt. eigenvalues --    4.61509   4.68928   4.70642  23.45583  23.61430
 Alpha virt. eigenvalues --   23.81557  23.85919  23.87329  23.89071  23.90460
 Alpha virt. eigenvalues --   23.92263  23.96754  23.97535  23.97869  23.99189
 Alpha virt. eigenvalues --   24.09359  24.09608
          Condensed to atoms (all electrons):
               1          2          3          4          5          6
     1  C    8.385110   0.474147  -0.567776   1.711333   0.009145  -0.087506
     2  C    0.474147   6.970697   0.363598  -0.899728  -0.034710  -0.014083
     3  C   -0.567776   0.363598   6.572813   0.645064  -0.115589   0.016349
     4  C    1.711333  -0.899728   0.645064  10.510570  -0.140562  -0.114233
     5  C    0.009145  -0.034710  -0.115589  -0.140562  10.486107   0.622274
     6  C   -0.087506  -0.014083   0.016349  -0.114233   0.622274   6.567812
     7  C   -0.029760   0.005315  -0.014274  -0.035906  -0.872369   0.358027
     8  C    0.387485  -0.027446  -0.087694   0.000091   1.731074  -0.580089
     9  C   -1.314086  -0.690610   0.283351  -0.353852  -0.352304   0.286177
    10  C   -1.149120   0.196765  -0.341748  -2.398482  -2.393901  -0.333612
    11  C    0.237239  -0.947051   1.074018  -0.551926  -1.572498  -0.143291
    12  C   -1.588237   1.138857  -1.343372  -0.972666  -0.190303  -0.209778
    13  C    0.104227  -0.211163  -0.148893  -1.584692  -0.575524   1.080896
    14  C   -1.038498  -0.206712  -0.210269  -0.197613  -0.983636  -1.323486
    15  H    0.359898  -0.103035  -0.000383   0.025569   0.005492   0.001118
    16  H   -0.022030   0.380297  -0.018049   0.013249  -0.001459  -0.000314
    17  H   -0.020911  -0.020787   0.380783  -0.062275  -0.000007   0.000378
    18  H    0.045795   0.006343  -0.090790   0.447172   0.010257  -0.004755
    19  H   -0.045768  -0.008361   0.052095  -0.076111  -0.076407   0.052194
    20  H    0.007381   0.001748  -0.004779   0.010051   0.445025  -0.091689
    21  H   -0.001290  -0.000375   0.000381   0.000021  -0.062009   0.380621
    22  H    0.000703   0.000354  -0.000317  -0.001497   0.013661  -0.018425
    23  H    0.005695  -0.002680   0.001122   0.005549   0.025183  -0.000468
    24  H    0.018328   0.014441  -0.001985  -0.012392  -0.013817  -0.001517
    25  H    0.046184   0.014043  -0.000589  -0.013182  -0.011774  -0.001200
               7          8          9         10         11         12
     1  C   -0.029760   0.387485  -1.314086  -1.149120   0.237239  -1.588237
     2  C    0.005315  -0.027446  -0.690610   0.196765  -0.947051   1.138857
     3  C   -0.014274  -0.087694   0.283351  -0.341748   1.074018  -1.343372
     4  C   -0.035906   0.000091  -0.353852  -2.398482  -0.551926  -0.972666
     5  C   -0.872369   1.731074  -0.352304  -2.393901  -1.572498  -0.190303
     6  C    0.358027  -0.580089   0.286177  -0.333612  -0.143291  -0.209778
     7  C    6.928351   0.481484  -0.670769   0.188228  -0.197655  -0.204171
     8  C    0.481484   8.366207  -1.292260  -1.147377   0.115934  -1.012538
     9  C   -0.670769  -1.292260   9.154125   0.326074   1.638452  -1.628268
    10  C    0.188228  -1.147377   0.326074   9.057266  -0.375747   2.094952
    11  C   -0.197655   0.115934   1.638452  -0.375747  14.299337  -3.607184
    12  C   -0.204171  -1.012538  -1.628268   2.094952  -3.607184  15.163598
    13  C   -0.935646   0.191614   1.628164  -0.392286   1.303229  -4.741817
    14  C    1.109715  -1.597512  -1.631971   2.095158  -4.704256   2.667949
    15  H   -0.002562   0.005594   0.087625  -0.009625  -0.022410  -0.022266
    16  H    0.000342   0.000598   0.003423  -0.009668   0.026049  -0.029959
    17  H   -0.000369  -0.001258  -0.004264   0.019166  -0.024399   0.081144
    18  H    0.001738   0.007224  -0.026437   0.022150  -0.019835  -0.040487
    19  H   -0.008539  -0.045668   0.073281   0.423231   0.085117  -0.068465
    20  H    0.007323   0.045629  -0.026370   0.023249  -0.011986  -0.008133
    21  H   -0.021272  -0.020182  -0.004246   0.019095  -0.005734   0.004505
    22  H    0.379773  -0.020744   0.004059  -0.010039   0.002756  -0.008764
    23  H   -0.101427   0.361013   0.087540  -0.009497   0.000201   0.006279
    24  H    0.015900   0.022113   0.368840   0.006429   0.006068  -0.045570
    25  H    0.012131   0.041102   0.347104   0.005301   0.020689  -0.073194
              13         14         15         16         17         18
     1  C    0.104227  -1.038498   0.359898  -0.022030  -0.020911   0.045795
     2  C   -0.211163  -0.206712  -0.103035   0.380297  -0.020787   0.006343
     3  C   -0.148893  -0.210269  -0.000383  -0.018049   0.380783  -0.090790
     4  C   -1.584692  -0.197613   0.025569   0.013249  -0.062275   0.447172
     5  C   -0.575524  -0.983636   0.005492  -0.001459  -0.000007   0.010257
     6  C    1.080896  -1.323486   0.001118  -0.000314   0.000378  -0.004755
     7  C   -0.935646   1.109715  -0.002562   0.000342  -0.000369   0.001738
     8  C    0.191614  -1.597512   0.005594   0.000598  -0.001258   0.007224
     9  C    1.628164  -1.631971   0.087625   0.003423  -0.004264  -0.026437
    10  C   -0.392286   2.095158  -0.009625  -0.009668   0.019166   0.022150
    11  C    1.303229  -4.704256  -0.022410   0.026049  -0.024399  -0.019835
    12  C   -4.741817   2.667949  -0.022266  -0.029959   0.081144  -0.040487
    13  C   14.436675  -3.587285   0.000527   0.002636  -0.005836  -0.012633
    14  C   -3.587285  15.185259   0.006451  -0.008573   0.004543  -0.008997
    15  H    0.000527   0.006451   0.440372  -0.008997   0.001556   0.000134
    16  H    0.002636  -0.008573  -0.008997   0.420062  -0.006958   0.001950
    17  H   -0.005836   0.004543   0.001556  -0.006958   0.424878  -0.010571
    18  H   -0.012633  -0.008997   0.000134   0.001950  -0.010571   0.454119
    19  H    0.085467  -0.067259   0.000330  -0.000574   0.001482  -0.006405
    20  H   -0.020260  -0.040752  -0.000128   0.000016  -0.000148   0.001311
    21  H   -0.023930   0.080042   0.000018  -0.000007   0.000011  -0.000147
    22  H    0.026972  -0.032149  -0.000127   0.000007  -0.000007   0.000015
    23  H   -0.023463  -0.022529   0.000579  -0.000127   0.000017  -0.000125
    24  H    0.005555  -0.043235  -0.001546   0.000774  -0.000197   0.000170
    25  H    0.020043  -0.076003  -0.000323   0.000462  -0.000093   0.000192
              19         20         21         22         23         24
     1  C   -0.045768   0.007381  -0.001290   0.000703   0.005695   0.018328
     2  C   -0.008361   0.001748  -0.000375   0.000354  -0.002680   0.014441
     3  C    0.052095  -0.004779   0.000381  -0.000317   0.001122  -0.001985
     4  C   -0.076111   0.010051   0.000021  -0.001497   0.005549  -0.012392
     5  C   -0.076407   0.445025  -0.062009   0.013661   0.025183  -0.013817
     6  C    0.052194  -0.091689   0.380621  -0.018425  -0.000468  -0.001517
     7  C   -0.008539   0.007323  -0.021272   0.379773  -0.101427   0.015900
     8  C   -0.045668   0.045629  -0.020182  -0.020744   0.361013   0.022113
     9  C    0.073281  -0.026370  -0.004246   0.004059   0.087540   0.368840
    10  C    0.423231   0.023249   0.019095  -0.010039  -0.009497   0.006429
    11  C    0.085117  -0.011986  -0.005734   0.002756   0.000201   0.006068
    12  C   -0.068465  -0.008133   0.004505  -0.008764   0.006279  -0.045570
    13  C    0.085467  -0.020260  -0.023930   0.026972  -0.023463   0.005555
    14  C   -0.067259  -0.040752   0.080042  -0.032149  -0.022529  -0.043235
    15  H    0.000330  -0.000128   0.000018  -0.000127   0.000579  -0.001546
    16  H   -0.000574   0.000016  -0.000007   0.000007  -0.000127   0.000774
    17  H    0.001482  -0.000148   0.000011  -0.000007   0.000017  -0.000197
    18  H   -0.006405   0.001311  -0.000147   0.000015  -0.000125   0.000170
    19  H    0.446068  -0.006399   0.001463  -0.000568   0.000340   0.000634
    20  H   -0.006399   0.454264  -0.010429   0.001974   0.000112   0.000141
    21  H    0.001463  -0.010429   0.424387  -0.006921   0.001558  -0.000186
    22  H   -0.000568   0.001974  -0.006921   0.420074  -0.009014   0.000717
    23  H    0.000340   0.000112   0.001558  -0.009014   0.439827  -0.001312
    24  H    0.000634   0.000141  -0.000186   0.000717  -0.001312   0.491861
    25  H    0.000579   0.000233  -0.000108   0.000519  -0.000546  -0.078685
              25
     1  C    0.046184
     2  C    0.014043
     3  C   -0.000589
     4  C   -0.013182
     5  C   -0.011774
     6  C   -0.001200
     7  C    0.012131
     8  C    0.041102
     9  C    0.347104
    10  C    0.005301
    11  C    0.020689
    12  C   -0.073194
    13  C    0.020043
    14  C   -0.076003
    15  H   -0.000323
    16  H    0.000462
    17  H   -0.000093
    18  H    0.000192
    19  H    0.000579
    20  H    0.000233
    21  H   -0.000108
    22  H    0.000519
    23  H   -0.000546
    24  H   -0.078685
    25  H    0.492216
 Mulliken charges:
               1
     1  C    0.072315
     2  C   -0.399863
     3  C   -0.443064
     4  C    0.046450
     5  C    0.048650
     6  C   -0.441399
     7  C   -0.393609
     8  C    0.075606
     9  C   -0.292778
    10  C    0.094036
    11  C   -0.625115
    12  C    0.637887
    13  C   -0.622579
    14  C    0.631618
    15  H    0.236140
    16  H    0.256847
    17  H    0.244122
    18  H    0.222613
    19  H    0.188241
    20  H    0.222616
    21  H    0.244733
    22  H    0.256988
    23  H    0.236173
    24  H    0.248472
    25  H    0.254900
 Sum of Mulliken charges =   1.00000
 Mulliken charges with hydrogens summed into heavy atoms:
               1
     1  C    0.308454
     2  C   -0.143017
     3  C   -0.198942
     4  C    0.269064
     5  C    0.271266
     6  C   -0.196666
     7  C   -0.136621
     8  C    0.311779
     9  C    0.210593
    10  C    0.282277
    11  C   -0.625115
    12  C    0.637887
    13  C   -0.622579
    14  C    0.631618
 Electronic spatial extent (au):  <R**2>=           2865.8009
 Charge=              1.0000 electrons
 Dipole moment (field-independent basis, Debye):
    X=              0.0095    Y=              0.1915    Z=              0.0009  Tot=              0.1917
 Quadrupole moment (field-independent basis, Debye-Ang):
   XX=            -30.8987   YY=            -56.2596   ZZ=            -84.2227
   XY=              0.0053   XZ=              0.0086   YZ=              0.1191
 Traceless Quadrupole moment (field-independent basis, Debye-Ang):
   XX=             26.2283   YY=              0.8674   ZZ=            -27.0957
   XY=              0.0053   XZ=              0.0086   YZ=              0.1191
 Octapole moment (field-independent basis, Debye-Ang**2):
  XXX=              0.3881  YYY=              5.2006  ZZZ=             -0.0354  XYY=             -0.0047
  XXY=             -4.3788  XXZ=              0.2260  XZZ=             -0.0451  YZZ=             -3.0871
  YYZ=              0.1554  XYZ=              0.0435
 Hexadecapole moment (field-independent basis, Debye-Ang**3):
 XXXX=          -2126.4191 YYYY=           -609.3720 ZZZZ=            -99.6470 XXXY=              0.2172
 XXXZ=              0.2475 YYYX=             -0.0889 YYYZ=              1.2921 ZZZX=              0.0121
 ZZZY=              0.0580 XXYY=           -509.4607 XXZZ=           -593.5042 YYZZ=           -145.8111
 XXYZ=              1.3172 YYXZ=             -0.0001 ZZXY=              0.0047
 N-N= 7.800217786715D+02 E-N=-2.796318612890D+03  KE= 5.374339156089D+02
 Unable to Open any file for archive entry.
 1\1\GINC-GADI-CPU-CLX-2542\SP\RM062X TD-FC\6-311++G(d,p)\C14H11(1+)\TS
 1578\27-Jul-2022\0\\#n M062X/6-311++G(d,p) TD(NStates=1) EmpiricalDisp
 ersion=GD3 SP\\SP_150\\1,1\C,0,0.02045,2.490855,1.360431\C,0,0.022225,
 3.709708,0.671989\C,0,0.0068,3.697611,-0.71383\C,0,-0.019325,2.474181,
 -1.407538\C,0,-0.019675,-2.474881,-1.407538\C,0,0.0047,-3.701111,-0.71
 383\C,0,0.0189,-3.710933,0.671989\C,0,0.0138,-2.492955,1.360431\C,0,0.
 01085,0.0077,1.453369\C,0,-0.0305,-0.00035,-1.429189\C,0,-0.0043,1.252
 58,0.677065\C,0,-0.0132,1.239496,-0.730804\C,0,-0.004825,-1.252405,0.6
 77065\C,0,-0.0118,-1.238446,-0.730804\H,0,0.0091,2.486371,2.443647\H,0
 ,0.022825,4.642628,1.211689\H,0,-0.0031,4.606512,-1.272349\H,0,-0.0096
 5,2.47835,-2.490059\H,0,-0.028125,-0.000175,-2.510266\H,0,-0.0086,-2.4
 78875,-2.490059\H,0,-0.00415,-4.610887,-1.272349\H,0,0.0188,-4.645253,
 1.211689\H,0,0.0014,-2.488646,2.443647\H,0,-0.819585,0.00175,2.143862\
 H,0,0.899585,0.00175,2.147712\\Version=ES64L-G16RevC.01\State=1-A\HF=-
 539.7578561\RMSD=4.638e-09\PG=C01 [X(C14H11)]\\@
 The archive entry for this job was punched.


 EVERYTHING'S GOT A MORAL, IF ONLY YOU CAN FIND IT.

                                    -- LEWIS CARROL, ALICE IN WONDERLAND
 Job cpu time:       0 days  1 hours  9 minutes 34.0 seconds.
 Elapsed time:       0 days  0 hours  2 minutes 10.7 seconds.
 File lengths (MBytes):  RWF=    460 Int=      0 D2E=      0 Chk=     15 Scr=      1
 Normal termination of Gaussian 16 at Wed Jul 27 13:41:19 2022.
