 Entering Gaussian System, Link 0=g16
 Initial command:
 /apps/gaussian/g16c01/g16/l1.exe "/jobfs/52826432.gadi-pbs/Gau-2830095.inp" -scrdir="/jobfs/52826432.gadi-pbs/"
 Entering Link 1 = /apps/gaussian/g16c01/g16/l1.exe PID=   2830096.
  
 Copyright (c) 1988-2019, Gaussian, Inc.  All Rights Reserved.
  
 This is part of the Gaussian(R) 16 program.  It is based on
 the Gaussian(R) 09 system (copyright 2009, Gaussian, Inc.),
 the Gaussian(R) 03 system (copyright 2003, Gaussian, Inc.),
 the Gaussian(R) 98 system (copyright 1998, Gaussian, Inc.),
 the Gaussian(R) 94 system (copyright 1995, Gaussian, Inc.),
 the Gaussian 92(TM) system (copyright 1992, Gaussian, Inc.),
 the Gaussian 90(TM) system (copyright 1990, Gaussian, Inc.),
 the Gaussian 88(TM) system (copyright 1988, Gaussian, Inc.),
 the Gaussian 86(TM) system (copyright 1986, Carnegie Mellon
 University), and the Gaussian 82(TM) system (copyright 1983,
 Carnegie Mellon University). Gaussian is a federally registered
 trademark of Gaussian, Inc.
  
 This software contains proprietary and confidential information,
 including trade secrets, belonging to Gaussian, Inc.
  
 This software is provided under written license and may be
 used, copied, transmitted, or stored only in accord with that
 written license.
  
 The following legend is applicable only to US Government
 contracts under FAR:
  
                    RESTRICTED RIGHTS LEGEND
  
 Use, reproduction and disclosure by the US Government is
 subject to restrictions as set forth in subparagraphs (a)
 and (c) of the Commercial Computer Software - Restricted
 Rights clause in FAR 52.227-19.
  
 Gaussian, Inc.
 340 Quinnipiac St., Bldg. 40, Wallingford CT 06492
  
  
 ---------------------------------------------------------------
 Warning -- This program may not be used in any manner that
 competes with the business of Gaussian, Inc. or will provide
 assistance to any competitor of Gaussian, Inc.  The licensee
 of this program is prohibited from giving any competitor of
 Gaussian, Inc. access to this program.  By using this program,
 the user acknowledges that Gaussian, Inc. is engaged in the
 business of creating and licensing software in the field of
 computational chemistry and represents and warrants to the
 licensee that it is not a competitor of Gaussian, Inc. and that
 it will not use this program in any manner prohibited above.
 ---------------------------------------------------------------
  

 Cite this work as:
 Gaussian 16, Revision C.01,
 M. J. Frisch, G. W. Trucks, H. B. Schlegel, G. E. Scuseria, 
 M. A. Robb, J. R. Cheeseman, G. Scalmani, V. Barone, 
 G. A. Petersson, H. Nakatsuji, X. Li, M. Caricato, A. V. Marenich, 
 J. Bloino, B. G. Janesko, R. Gomperts, B. Mennucci, H. P. Hratchian, 
 J. V. Ortiz, A. F. Izmaylov, J. L. Sonnenberg, D. Williams-Young, 
 F. Ding, F. Lipparini, F. Egidi, J. Goings, B. Peng, A. Petrone, 
 T. Henderson, D. Ranasinghe, V. G. Zakrzewski, J. Gao, N. Rega, 
 G. Zheng, W. Liang, M. Hada, M. Ehara, K. Toyota, R. Fukuda, 
 J. Hasegawa, M. Ishida, T. Nakajima, Y. Honda, O. Kitao, H. Nakai, 
 T. Vreven, K. Throssell, J. A. Montgomery, Jr., J. E. Peralta, 
 F. Ogliaro, M. J. Bearpark, J. J. Heyd, E. N. Brothers, K. N. Kudin, 
 V. N. Staroverov, T. A. Keith, R. Kobayashi, J. Normand, 
 K. Raghavachari, A. P. Rendell, J. C. Burant, S. S. Iyengar, 
 J. Tomasi, M. Cossi, J. M. Millam, M. Klene, C. Adamo, R. Cammi, 
 J. W. Ochterski, R. L. Martin, K. Morokuma, O. Farkas, 
 J. B. Foresman, and D. J. Fox, Gaussian, Inc., Wallingford CT, 2019.
 
 ******************************************
 Gaussian 16:  ES64L-G16RevC.01  3-Jul-2019
                27-Jul-2022 
 ******************************************
 %NProcShared=32
 Will use up to   32 processors via shared memory.
 %mem = 128GB
 ---------------------------------------------------------------
 #n M062X/6-311++G(d,p) TD(NStates=1) EmpiricalDispersion=GD3 SP
 ---------------------------------------------------------------
 1/38=1,172=1/1;
 2/12=2,17=6,18=5,40=1/2;
 3/5=4,6=6,7=1111,11=9,25=1,30=1,74=-55,124=31/1,2,3,8;
 4//1;
 5/5=2,38=5/2;
 8/6=1,10=2,108=1/1;
 9/41=1,42=1,70=2/14;
 6/7=2,8=2,9=2,10=2/1;
 99/5=1,9=1/99;
 ------
 SP_100
 ------
 Symbolic Z-matrix:
 Charge =  1 Multiplicity = 1
 C                     0.0038    2.49146   1.36043 
 C                     0.0019    3.70081   0.67199 
 C                     0.0012    3.68186  -0.71383 
 C                     0.0002    2.46276  -1.40754 
 C                    -0.0002   -2.46356  -1.40754 
 C                    -0.0012   -3.68586  -0.71383 
 C                    -0.0019   -3.70221   0.67199 
 C                    -0.0038   -2.49386   1.36043 
 C                    -0.0001    0.0088    1.45337 
 C                     0.       -0.0004   -1.42919 
 C                     0.0003    1.26216   0.67707 
 C                    -0.0008    1.23807  -0.7308 
 C                    -0.0003   -1.26196   0.67707 
 C                     0.0008   -1.23687  -0.7308 
 H                     0.0044    2.48677   2.44365 
 H                     0.0023    4.63525   1.21169 
 H                     0.0006    4.60676  -1.27235 
 H                    -0.0006    2.46725  -2.49006 
 H                     0.       -0.0002   -2.51027 
 H                     0.0006   -2.46785  -2.49006 
 H                    -0.0006   -4.61176  -1.27235 
 H                    -0.0023   -4.63825   1.21169 
 H                    -0.0044   -2.48937   2.44365 
 H                    -0.85959   0.002     2.14359 
 H                     0.85959   0.002     2.14799 
 
                          Input orientation:                          
 ---------------------------------------------------------------------
 Center     Atomic      Atomic             Coordinates (Angstroms)
 Number     Number       Type             X           Y           Z
 ---------------------------------------------------------------------
      1          6           0        0.003800    2.491455    1.360431
      2          6           0        0.001900    3.700808    0.671989
      3          6           0        0.001200    3.681861   -0.713830
      4          6           0        0.000200    2.462756   -1.407538
      5          6           0       -0.000200   -2.463556   -1.407538
      6          6           0       -0.001200   -3.685861   -0.713830
      7          6           0       -0.001900   -3.702208    0.671989
      8          6           0       -0.003800   -2.493855    1.360431
      9          6           0       -0.000100    0.008800    1.453369
     10          6           0        0.000000   -0.000400   -1.429189
     11          6           0        0.000300    1.262155    0.677065
     12          6           0       -0.000800    1.238071   -0.730804
     13          6           0       -0.000300   -1.261955    0.677065
     14          6           0        0.000800   -1.236871   -0.730804
     15          1           0        0.004400    2.486771    2.443647
     16          1           0        0.002300    4.635253    1.211689
     17          1           0        0.000600    4.606762   -1.272349
     18          1           0       -0.000600    2.467250   -2.490059
     19          1           0        0.000000   -0.000200   -2.510266
     20          1           0        0.000600   -2.467850   -2.490059
     21          1           0       -0.000600   -4.611762   -1.272349
     22          1           0       -0.002300   -4.638253    1.211689
     23          1           0       -0.004400   -2.489371    2.443647
     24          1           0       -0.859585    0.002000    2.143587
     25          1           0        0.859585    0.002000    2.147987
 ---------------------------------------------------------------------
                    Distance matrix (angstroms):
                    1          2          3          4          5
     1  C    0.000000
     2  C    1.391578   0.000000
     3  C    2.391575   1.385949   0.000000
     4  C    2.768120   2.420167   1.402658   0.000000
     5  C    5.675720   6.505676   6.184447   4.926312   0.000000
     6  C    6.516273   7.515543   7.367722   6.187627   1.405440
     7  C    6.231809   7.403017   7.512987   6.506245   2.420474
     8  C    4.985316   6.232803   6.514756   5.677117   2.768137
     9  C    2.484397   3.773789   4.264754   3.769176   3.781181
    10  C    3.740499   4.256042   3.751105   2.463251   2.463251
    11  C    1.406478   2.438659   2.790980   2.405621   4.269250
    12  C    2.438085   2.834239   2.443850   1.399222   3.762979
    13  C    3.815114   4.962766   5.135748   4.268377   2.406120
    14  C    4.274773   5.133079   4.918761   3.761012   1.400973
    15  H    1.083226   2.147711   3.376079   3.851262   6.271952
    16  H    2.148952   1.079103   2.148623   3.402954   7.566601
    17  H    3.377287   2.145042   1.080456   2.148264   7.071610
    18  H    3.850569   3.394145   2.151807   1.082531   5.048237
    19  H    4.603331   4.881005   4.096920   2.698548   2.698913
    20  H    6.278614   6.931875   6.401089   5.048042   1.082530
    21  H    7.575437   8.536936   8.312408   7.075810   2.152456
    22  H    7.131262   8.356508   8.540019   7.568665   3.404359
    23  H    5.097259   6.438721   6.932085   6.273373   3.851274
    24  H    2.748846   4.072952   4.737843   4.405115   4.407720
    25  H    2.747726   4.073742   4.740063   4.408585   4.411344
                    6          7          8          9         10
     6  C    0.000000
     7  C    1.385916   0.000000
     8  C    2.392372   1.390710   0.000000
     9  C    4.283372   3.792379   2.504383   0.000000
    10  C    3.754246   4.256564   3.741565   2.882573   0.000000
    11  C    5.139791   4.964366   3.817672   1.474295   2.455677
    12  C    4.923961   5.135580   4.277914   2.506336   1.421813
    13  C    2.794622   2.440259   1.408751   1.489116   2.455163
    14  C    2.449050   2.836498   2.439937   2.514420   1.420071
    15  H    6.933331   6.437567   5.097064   2.668522   4.602705
    16  H    8.540994   8.354912   7.130662   4.632762   5.335121
    17  H    8.311410   8.533431   7.572999   5.345165   4.609831
    18  H    6.404355   6.932587   6.280036   4.646999   2.686027
    19  H    4.100156   4.881763   4.604414   3.963645   1.081077
    20  H    2.153728   3.394436   3.850580   4.656653   2.685843
    21  H    1.081312   2.146565   3.378916   5.364619   4.614028
    22  H    2.148179   1.080489   2.149551   4.653334   5.337033
    23  H    3.376575   2.147033   1.083225   2.687290   4.603678
    24  H    4.743625   4.077055   2.752271   1.102344   3.674727
    25  H    4.746711   4.079446   2.755897   1.105260   3.679005
                   11         12         13         14         15
    11  C    0.000000
    12  C    1.408075   0.000000
    13  C    2.524110   2.869185   0.000000
    14  C    2.868314   2.474943   1.408093   0.000000
    15  H    2.149538   3.411219   4.144126   4.893124   0.000000
    16  H    3.415204   3.913328   5.921393   6.185072   2.476631
    17  H    3.871254   3.411943   6.184016   5.868673   4.278201
    18  H    3.388647   2.146127   4.892611   4.100670   4.933747
    19  H    3.428209   2.167902   3.427988   2.166989   5.543131
    20  H    4.893221   4.102296   3.388932   2.147158   6.992120
    21  H    6.188951   5.874846   3.875748   3.418064   8.012354
    22  H    5.924580   6.189060   3.418364   3.916974   7.230749
    23  H    4.146659   4.896016   2.151134   3.412612   4.976150
    24  H    2.116147   3.244612   2.118169   3.246103   2.647752
    25  H    2.118956   3.248934   2.121461   3.249577   2.644398
                   16         17         18         19         20
    16  H    0.000000
    17  H    2.484202   0.000000
    18  H    4.289893   2.461774   0.000000
    19  H    5.944777   4.770381   2.467533   0.000000
    20  H    8.009807   7.178646   4.935100   2.467733   0.000000
    21  H    9.574849   9.218524   7.182982   4.774824   2.465599
    22  H    9.273507   9.572918   8.011936   5.946805   4.291107
    23  H    7.230355   8.010228   6.993537   5.544118   4.933755
    24  H    4.803989   5.797618   5.318457   4.732572   5.320785
    25  H    4.804022   5.800033   5.322485   4.736899   5.324423
                   21         22         23         24         25
    21  H    0.000000
    22  H    2.484180   0.000000
    23  H    4.279391   2.476978   0.000000
    24  H    5.804591   4.809919   2.651095   0.000000
    25  H    5.807359   4.811595   2.653453   1.719176   0.000000
 Stoichiometry    C14H11(1+)
 Framework group  C1[X(C14H11)]
 Deg. of freedom    69
 Full point group                 C1      NOp   1
 Largest Abelian subgroup         C1      NOp   1
 Largest concise Abelian subgroup C1      NOp   1
                         Standard orientation:                         
 ---------------------------------------------------------------------
 Center     Atomic      Atomic             Coordinates (Angstroms)
 Number     Number       Type             X           Y           Z
 ---------------------------------------------------------------------
      1          6           0        2.491688   -1.360010   -0.002592
      2          6           0        3.700924   -0.671364   -0.000131
      3          6           0        3.681743    0.714452    0.000532
      4          6           0        2.462520    1.407954    0.000937
      5          6           0       -2.463791    1.407122   -0.001008
      6          6           0       -3.685979    0.713208   -0.000576
      7          6           0       -3.702093   -0.672614    0.000145
      8          6           0       -2.493625   -1.360852    0.002635
      9          6           0        0.009047   -1.453367    0.000128
     10          6           0       -0.000639    1.429189   -0.000036
     11          6           0        1.262271   -0.676852    0.000309
     12          6           0        1.237949    0.731013    0.001368
     13          6           0       -1.261839   -0.677278   -0.000293
     14          6           0       -1.236992    0.730595   -0.001410
     15          1           0        2.487187   -2.443227   -0.003172
     16          1           0        4.635460   -1.210907   -0.000075
     17          1           0        4.606549    1.273127    0.001560
     18          1           0        2.466831    2.490475    0.001717
     19          1           0       -0.000622    2.510266   -0.000058
     20          1           0       -2.468268    2.489642   -0.001833
     21          1           0       -4.611974    1.271570   -0.001628
     22          1           0       -4.638047   -1.212472    0.000111
     23          1           0       -2.488958   -2.444067    0.003259
     24          1           0        0.001955   -2.143569    0.859624
     25          1           0        0.002774   -2.148004   -0.859546
 ---------------------------------------------------------------------
 Rotational constants (GHZ):           2.1362246           0.4446261           0.3688266
 Standard basis: 6-311++G(d,p) (5D, 7F)
 There are   399 symmetry adapted cartesian basis functions of A   symmetry.
 There are   385 symmetry adapted basis functions of A   symmetry.
   385 basis functions,   603 primitive gaussians,   399 cartesian basis functions
    47 alpha electrons       47 beta electrons
       nuclear repulsion energy       781.1980520914 Hartrees.
 NAtoms=   25 NActive=   25 NUniq=   25 SFac= 1.00D+00 NAtFMM=   60 NAOKFM=F Big=F
 Integral buffers will be    131072 words long.
 Regular integral format.
 Two-electron integral symmetry is turned on.
 Nuclear repulsion after empirical dispersion term =      781.1970726014 Hartrees.
 One-electron integrals computed using PRISM.
 NBasis=   385 RedAO= T EigKep=  1.12D-06  NBF=   385
 NBsUse=   379 1.00D-06 EigRej=  8.39D-07 NBFU=   379
 ExpMin= 3.60D-02 ExpMax= 4.56D+03 ExpMxC= 6.82D+02 IAcc=3 IRadAn=         5 AccDes= 0.00D+00
 Harris functional with IExCor= 1009 and IRadAn=       5 diagonalized for initial guess.
 HarFok:  IExCor= 1009 AccDes= 0.00D+00 IRadAn=         5 IDoV= 1 UseB2=F ITyADJ=14
 ICtDFT=  3500011 ScaDFX=  1.000000  1.000000  1.000000  1.000000
 FoFCou: FMM=F IPFlag=           0 FMFlag=      100000 FMFlg1=           0
         NFxFlg=           0 DoJE=T BraDBF=F KetDBF=T FulRan=T
         wScrn=  0.000000 ICntrl=       500 IOpCl=  0 I1Cent=   200000004 NGrid=           0
         NMat0=    1 NMatS0=      1 NMatT0=    0 NMatD0=    1 NMtDS0=    0 NMtDT0=    0
 Petite list used in FoFCou.
 Requested convergence on RMS density matrix=1.00D-08 within 128 cycles.
 Requested convergence on MAX density matrix=1.00D-06.
 Requested convergence on             energy=1.00D-06.
 No special actions if energy rises.
 SCF Done:  E(RM062X) =  -539.760144270     A.U. after   15 cycles
            NFock= 15  Conv=0.47D-08     -V/T= 2.0042
 DoSCS=F DFT=T ScalE2(SS,OS)=  1.000000  1.000000
 ExpMin= 3.60D-02 ExpMax= 4.56D+03 ExpMxC= 6.82D+02 IAcc=3 IRadAn=         5 AccDes= 0.00D+00
 HarFok:  IExCor=  205 AccDes= 0.00D+00 IRadAn=         5 IDoV=-2 UseB2=F ITyADJ=14
 ICtDFT= 12500011 ScaDFX=  1.000000  1.000000  1.000000  1.000000
 Range of M.O.s used for correlation:    15   379
 NBasis=   385 NAE=    47 NBE=    47 NFC=    14 NFV=     0
 NROrb=    365 NOA=    33 NOB=    33 NVA=   332 NVB=   332

 **** Warning!!: The largest alpha MO coefficient is  0.15070853D+03

 Orbital symmetries:
       Occupied  (A) (A) (A) (A) (A) (A) (A) (A) (A) (A) (A) (A)
                 (A) (A) (A) (A) (A) (A) (A) (A) (A) (A) (A) (A)
                 (A) (A) (A) (A) (A) (A) (A) (A) (A) (A) (A) (A)
                 (A) (A) (A) (A) (A) (A) (A) (A) (A) (A) (A)
       Virtual   (A) (A) (A) (A) (A) (A) (A) (A) (A) (A) (A) (A)
                 (A) (A) (A) (A) (A) (A) (A) (A) (A) (A) (A) (A)
                 (A) (A) (A) (A) (A) (A) (A) (A) (A) (A) (A) (A)
                 (A) (A) (A) (A) (A) (A) (A) (A) (A) (A) (A) (A)
                 (A) (A) (A) (A) (A) (A) (A) (A) (A) (A) (A) (A)
                 (A) (A) (A) (A) (A) (A) (A) (A) (A) (A) (A) (A)
                 (A) (A) (A) (A) (A) (A) (A) (A) (A) (A) (A) (A)
                 (A) (A) (A) (A) (A) (A) (A) (A) (A) (A) (A) (A)
                 (A) (A) (A) (A) (A) (A) (A) (A) (A) (A) (A) (A)
                 (A) (A) (A) (A) (A) (A) (A) (A) (A) (A) (A) (A)
                 (A) (A) (A) (A) (A) (A) (A) (A) (A) (A) (A) (A)
                 (A) (A) (A) (A) (A) (A) (A) (A) (A) (A) (A) (A)
                 (A) (A) (A) (A) (A) (A) (A) (A) (A) (A) (A) (A)
                 (A) (A) (A) (A) (A) (A) (A) (A) (A) (A) (A) (A)
                 (A) (A) (A) (A) (A) (A) (A) (A) (A) (A) (A) (A)
                 (A) (A) (A) (A) (A) (A) (A) (A) (A) (A) (A) (A)
                 (A) (A) (A) (A) (A) (A) (A) (A) (A) (A) (A) (A)
                 (A) (A) (A) (A) (A) (A) (A) (A) (A) (A) (A) (A)
                 (A) (A) (A) (A) (A) (A) (A) (A) (A) (A) (A) (A)
                 (A) (A) (A) (A) (A) (A) (A) (A) (A) (A) (A) (A)
                 (A) (A) (A) (A) (A) (A) (A) (A) (A) (A) (A) (A)
                 (A) (A) (A) (A) (A) (A) (A) (A) (A) (A) (A) (A)
                 (A) (A) (A) (A) (A) (A) (A) (A) (A) (A) (A) (A)
                 (A) (A) (A) (A) (A) (A) (A) (A) (A) (A) (A) (A)
                 (A) (A) (A) (A) (A) (A) (A) (A) (A) (A) (A) (A)
                 (A) (A) (A) (A) (A) (A) (A) (A) (A) (A) (A) (A)
                 (A) (A) (A) (A) (A) (A) (A) (A) (A) (A) (A) (A)
                 (A) (A) (A) (A) (A) (A) (A) (A)
     4 initial guesses have been made.
 Convergence on wavefunction:    0.001000000000000
 Iteration     1 Dimension     4 NMult     0 NNew      4
 CISAX will form     4 AO SS matrices at one time.
 Iteration     2 Dimension     6 NMult     4 NNew      2
 Iteration     3 Dimension     8 NMult     6 NNew      2
 Iteration     4 Dimension    10 NMult     8 NNew      2
 Iteration     5 Dimension    12 NMult    10 NNew      2
 Iteration     6 Dimension    14 NMult    12 NNew      2
 ***********************************************************************
 Excited states from <AA,BB:AA,BB> singles matrix:
 ***********************************************************************
 
 Ground to excited state transition densities written to RWF  633
 Ground to excited state transition electric dipole moments (Au):
       state          X           Y           Z        Dip. S.      Osc.
         1         0.0115     -0.6443     -0.0002      0.4153      0.0287
 Ground to excited state transition velocity dipole moments (Au):
       state          X           Y           Z        Dip. S.      Osc.
         1        -0.0012      0.0746      0.0000      0.0056      0.0357
 Ground to excited state transition magnetic dipole moments (Au):
       state          X           Y           Z
         1        -0.0001     -0.0008     -0.0005
 Ground to excited state transition velocity quadrupole moments (Au):
       state          XX          YY          ZZ          XY          XZ          YZ
         1         0.2975      0.0351     -0.0098     -0.0017      0.0001     -0.0002
 <0|del|b> * <b|rxdel|0> + <0|del|b> * <b|delr+rdel|0>
 Rotatory Strengths (R) in cgs (10**-40 erg-esu-cm/Gauss)
       state          XX          YY          ZZ    R(velocity)    E-M Angle
         1        -0.2333      0.0013     -0.1941     -0.1420       90.00
 1/2[<0|r|b>*<b|rxdel|0> + (<0|rxdel|b>*<b|r|0>)*]
 Rotatory Strengths (R) in cgs (10**-40 erg-esu-cm/Gauss)
       state          XX          YY          ZZ     R(length)
         1         0.0010     -0.3828     -0.0001     -0.1273
  1/2[<0|del|b>*<b|r|0> + (<0|r|b>*<b|del|0>)*] (Au)
       state          X           Y           Z        Dip. S.   Osc.(frdel)
         1        -0.0000     -0.0480     -0.0000      0.0481      0.0320

 Excitation energies and oscillator strengths:
 
 Excited State   1:      Singlet-A      2.8228 eV  439.23 nm  f=0.0287  <S**2>=0.000
      47 -> 48         0.70426
 This state for optimization and/or second-order correction.
 Total Energy, E(TD-HF/TD-DFT) =  -539.656409206    
 Copying the excited state density for this state as the 1-particle RhoCI density.
 SavETr:  write IOETrn=   770 NScale= 10 NData=  16 NLR=1 NState=    1 LETran=      28.

 **********************************************************************

            Population analysis using the SCF Density.

 **********************************************************************

 Orbital symmetries:
       Occupied  (A) (A) (A) (A) (A) (A) (A) (A) (A) (A) (A) (A)
                 (A) (A) (A) (A) (A) (A) (A) (A) (A) (A) (A) (A)
                 (A) (A) (A) (A) (A) (A) (A) (A) (A) (A) (A) (A)
                 (A) (A) (A) (A) (A) (A) (A) (A) (A) (A) (A)
       Virtual   (A) (A) (A) (A) (A) (A) (A) (A) (A) (A) (A) (A)
                 (A) (A) (A) (A) (A) (A) (A) (A) (A) (A) (A) (A)
                 (A) (A) (A) (A) (A) (A) (A) (A) (A) (A) (A) (A)
                 (A) (A) (A) (A) (A) (A) (A) (A) (A) (A) (A) (A)
                 (A) (A) (A) (A) (A) (A) (A) (A) (A) (A) (A) (A)
                 (A) (A) (A) (A) (A) (A) (A) (A) (A) (A) (A) (A)
                 (A) (A) (A) (A) (A) (A) (A) (A) (A) (A) (A) (A)
                 (A) (A) (A) (A) (A) (A) (A) (A) (A) (A) (A) (A)
                 (A) (A) (A) (A) (A) (A) (A) (A) (A) (A) (A) (A)
                 (A) (A) (A) (A) (A) (A) (A) (A) (A) (A) (A) (A)
                 (A) (A) (A) (A) (A) (A) (A) (A) (A) (A) (A) (A)
                 (A) (A) (A) (A) (A) (A) (A) (A) (A) (A) (A) (A)
                 (A) (A) (A) (A) (A) (A) (A) (A) (A) (A) (A) (A)
                 (A) (A) (A) (A) (A) (A) (A) (A) (A) (A) (A) (A)
                 (A) (A) (A) (A) (A) (A) (A) (A) (A) (A) (A) (A)
                 (A) (A) (A) (A) (A) (A) (A) (A) (A) (A) (A) (A)
                 (A) (A) (A) (A) (A) (A) (A) (A) (A) (A) (A) (A)
                 (A) (A) (A) (A) (A) (A) (A) (A) (A) (A) (A) (A)
                 (A) (A) (A) (A) (A) (A) (A) (A) (A) (A) (A) (A)
                 (A) (A) (A) (A) (A) (A) (A) (A) (A) (A) (A) (A)
                 (A) (A) (A) (A) (A) (A) (A) (A) (A) (A) (A) (A)
                 (A) (A) (A) (A) (A) (A) (A) (A) (A) (A) (A) (A)
                 (A) (A) (A) (A) (A) (A) (A) (A) (A) (A) (A) (A)
                 (A) (A) (A) (A) (A) (A) (A) (A) (A) (A) (A) (A)
                 (A) (A) (A) (A) (A) (A) (A) (A) (A) (A) (A) (A)
                 (A) (A) (A) (A) (A) (A) (A) (A) (A) (A) (A) (A)
                 (A) (A) (A) (A) (A) (A) (A) (A) (A) (A) (A) (A)
                 (A) (A) (A) (A) (A) (A) (A) (A)
 The electronic state is 1-A.
 Alpha  occ. eigenvalues --  -10.77665 -10.73295 -10.73185 -10.72438 -10.72433
 Alpha  occ. eigenvalues --  -10.71398 -10.71339 -10.71014 -10.70995 -10.70980
 Alpha  occ. eigenvalues --  -10.69994 -10.69951 -10.69657 -10.69602  -1.16443
 Alpha  occ. eigenvalues --   -1.12466  -1.06945  -1.05734  -1.01313  -1.00184
 Alpha  occ. eigenvalues --   -0.95782  -0.91056  -0.86420  -0.85900  -0.83816
 Alpha  occ. eigenvalues --   -0.78400  -0.76028  -0.74418  -0.69563  -0.69245
 Alpha  occ. eigenvalues --   -0.68504  -0.68194  -0.68102  -0.64739  -0.64285
 Alpha  occ. eigenvalues --   -0.63069  -0.61862  -0.60004  -0.59678  -0.59093
 Alpha  occ. eigenvalues --   -0.56897  -0.55222  -0.54828  -0.52438  -0.46625
 Alpha  occ. eigenvalues --   -0.46056  -0.44501
 Alpha virt. eigenvalues --   -0.26088  -0.14669  -0.14098  -0.12774  -0.11179
 Alpha virt. eigenvalues --   -0.10086  -0.09230  -0.07983  -0.07970  -0.07476
 Alpha virt. eigenvalues --   -0.07203  -0.07146  -0.05643  -0.05581  -0.05332
 Alpha virt. eigenvalues --   -0.03826  -0.03646  -0.03279  -0.03133  -0.02165
 Alpha virt. eigenvalues --   -0.01368  -0.00930   0.00192   0.00591   0.00663
 Alpha virt. eigenvalues --    0.01055   0.01513   0.01941   0.02219   0.02286
 Alpha virt. eigenvalues --    0.02450   0.02670   0.02746   0.03318   0.03371
 Alpha virt. eigenvalues --    0.04240   0.04505   0.04695   0.05031   0.05365
 Alpha virt. eigenvalues --    0.06034   0.06296   0.06596   0.07044   0.07254
 Alpha virt. eigenvalues --    0.07892   0.08164   0.08362   0.08537   0.08929
 Alpha virt. eigenvalues --    0.09547   0.09558   0.10036   0.10831   0.11062
 Alpha virt. eigenvalues --    0.11116   0.12168   0.12249   0.12918   0.12972
 Alpha virt. eigenvalues --    0.13411   0.13524   0.14018   0.14385   0.16221
 Alpha virt. eigenvalues --    0.16286   0.16368   0.17346   0.17627   0.17798
 Alpha virt. eigenvalues --    0.18122   0.19073   0.19235   0.19637   0.19732
 Alpha virt. eigenvalues --    0.21557   0.21594   0.22725   0.23108   0.23557
 Alpha virt. eigenvalues --    0.23804   0.24575   0.25330   0.26920   0.27604
 Alpha virt. eigenvalues --    0.28846   0.29292   0.29861   0.31359   0.35814
 Alpha virt. eigenvalues --    0.36434   0.38183   0.39275   0.41158   0.41405
 Alpha virt. eigenvalues --    0.41967   0.42201   0.42984   0.43679   0.44293
 Alpha virt. eigenvalues --    0.44961   0.45014   0.46116   0.46143   0.47947
 Alpha virt. eigenvalues --    0.48530   0.48867   0.49026   0.50423   0.51156
 Alpha virt. eigenvalues --    0.51586   0.51676   0.52115   0.52910   0.53969
 Alpha virt. eigenvalues --    0.54089   0.54650   0.55685   0.55760   0.57470
 Alpha virt. eigenvalues --    0.58240   0.58812   0.61441   0.62189   0.62349
 Alpha virt. eigenvalues --    0.63213   0.63490   0.64968   0.65152   0.67253
 Alpha virt. eigenvalues --    0.70410   0.70612   0.71019   0.72410   0.72864
 Alpha virt. eigenvalues --    0.75776   0.76016   0.76284   0.76902   0.77091
 Alpha virt. eigenvalues --    0.77829   0.77880   0.78237   0.79888   0.80392
 Alpha virt. eigenvalues --    0.81244   0.81658   0.82132   0.83014   0.85182
 Alpha virt. eigenvalues --    0.87162   0.88174   0.88604   0.89123   0.90402
 Alpha virt. eigenvalues --    0.91086   0.91255   0.93194   0.94634   0.96452
 Alpha virt. eigenvalues --    0.96632   1.00397   1.01281   1.01687   1.02712
 Alpha virt. eigenvalues --    1.03195   1.03859   1.04736   1.05401   1.08771
 Alpha virt. eigenvalues --    1.19553   1.23274   1.24050   1.25275   1.27996
 Alpha virt. eigenvalues --    1.29705   1.31755   1.34305   1.35767   1.36003
 Alpha virt. eigenvalues --    1.39350   1.40167   1.40947   1.43021   1.43452
 Alpha virt. eigenvalues --    1.43531   1.45173   1.45350   1.46362   1.46680
 Alpha virt. eigenvalues --    1.47638   1.48017   1.51727   1.53627   1.55772
 Alpha virt. eigenvalues --    1.55823   1.56349   1.56575   1.57775   1.61443
 Alpha virt. eigenvalues --    1.63232   1.63544   1.63745   1.66110   1.68303
 Alpha virt. eigenvalues --    1.68359   1.68692   1.69734   1.74387   1.75987
 Alpha virt. eigenvalues --    1.77164   1.78049   1.80012   1.80132   1.80701
 Alpha virt. eigenvalues --    1.83158   1.83217   1.83619   1.83818   1.84160
 Alpha virt. eigenvalues --    1.84280   1.85882   1.86054   1.88219   1.91385
 Alpha virt. eigenvalues --    1.92066   1.94128   1.95195   1.97688   1.98153
 Alpha virt. eigenvalues --    1.99742   2.02424   2.04409   2.07259   2.11779
 Alpha virt. eigenvalues --    2.12093   2.14105   2.15219   2.19100   2.21251
 Alpha virt. eigenvalues --    2.22793   2.28623   2.30157   2.34644   2.34947
 Alpha virt. eigenvalues --    2.36220   2.38682   2.39597   2.42373   2.44655
 Alpha virt. eigenvalues --    2.46184   2.46506   2.49359   2.52903   2.53803
 Alpha virt. eigenvalues --    2.54241   2.56788   2.57843   2.58303   2.59644
 Alpha virt. eigenvalues --    2.59815   2.61601   2.62126   2.63530   2.63799
 Alpha virt. eigenvalues --    2.64778   2.65115   2.65235   2.65309   2.67950
 Alpha virt. eigenvalues --    2.68549   2.70956   2.71412   2.73342   2.74821
 Alpha virt. eigenvalues --    2.76304   2.78756   2.79723   2.82873   2.83058
 Alpha virt. eigenvalues --    2.84886   2.86294   2.92112   2.97003   2.99505
 Alpha virt. eigenvalues --    3.00062   3.05080   3.11088   3.11434   3.13059
 Alpha virt. eigenvalues --    3.20908   3.23835   3.26710   3.28213   3.30764
 Alpha virt. eigenvalues --    3.32822   3.33580   3.43406   3.45905   3.46570
 Alpha virt. eigenvalues --    3.48529   3.50137   3.56490   3.65865   3.66764
 Alpha virt. eigenvalues --    3.67507   3.94186   3.94592   3.95164   3.96222
 Alpha virt. eigenvalues --    4.03998   4.06880   4.07500   4.12549   4.35520
 Alpha virt. eigenvalues --    4.61355   4.69817   4.71636  23.45341  23.60523
 Alpha virt. eigenvalues --   23.82245  23.85496  23.88006  23.89295  23.90520
 Alpha virt. eigenvalues --   23.92294  23.97771  23.99522  23.99963  24.00120
 Alpha virt. eigenvalues --   24.10457  24.10728
          Condensed to atoms (all electrons):
               1          2          3          4          5          6
     1  C    8.591130   0.320703  -0.538102   1.954110  -0.020952  -0.095500
     2  C    0.320703   7.153146   0.357511  -1.081790  -0.017399  -0.014475
     3  C   -0.538102   0.357511   6.591774   0.773398  -0.125776   0.016949
     4  C    1.954110  -1.081790   0.773398  10.973997  -0.364134  -0.122251
     5  C   -0.020952  -0.017399  -0.125776  -0.364134  11.035475   0.751436
     6  C   -0.095500  -0.014475   0.016949  -0.122251   0.751436   6.584922
     7  C   -0.020749   0.001653  -0.014604  -0.019466  -1.070180   0.352455
     8  C    0.405665  -0.016111  -0.095801  -0.036805   2.001477  -0.552381
     9  C   -1.191479  -0.804869   0.292410  -0.241988  -0.197386   0.295959
    10  C   -1.280829   0.252223  -0.362165  -2.575023  -2.575718  -0.345061
    11  C    0.326327  -0.921351   1.012498  -0.260049  -1.509031  -0.173073
    12  C   -2.051042   1.350915  -1.410420  -1.547120  -0.345804  -0.200234
    13  C    0.198857  -0.251664  -0.176169  -1.494879  -0.273990   1.008284
    14  C   -1.092423  -0.199310  -0.198603  -0.320542  -1.649146  -1.382308
    15  H    0.366258  -0.106371  -0.001310   0.027208   0.005795   0.001096
    16  H   -0.020310   0.379426  -0.016314   0.013370  -0.001542  -0.000327
    17  H   -0.025048  -0.016101   0.374999  -0.067748   0.000313   0.000397
    18  H    0.049882   0.002576  -0.084183   0.457489   0.006460  -0.005041
    19  H   -0.046763  -0.007703   0.051364  -0.068279  -0.071346   0.051098
    20  H    0.007355   0.002039  -0.005118   0.006272   0.457770  -0.085430
    21  H   -0.001330  -0.000401   0.000402   0.000326  -0.068051   0.374784
    22  H    0.000776   0.000369  -0.000330  -0.001545   0.013877  -0.017045
    23  H    0.005768  -0.002705   0.001112   0.005697   0.027423  -0.001522
    24  H    0.031417   0.013565  -0.001858  -0.011170  -0.013178  -0.001272
    25  H    0.035085   0.015503  -0.001134  -0.012952  -0.011543  -0.001887
               7          8          9         10         11         12
     1  C   -0.020749   0.405665  -1.191479  -1.280829   0.326327  -2.051042
     2  C    0.001653  -0.016111  -0.804869   0.252223  -0.921351   1.350915
     3  C   -0.014604  -0.095801   0.292410  -0.362165   1.012498  -1.410420
     4  C   -0.019466  -0.036805  -0.241988  -2.575023  -0.260049  -1.547120
     5  C   -1.070180   2.001477  -0.197386  -2.575718  -1.509031  -0.345804
     6  C    0.352455  -0.552381   0.295959  -0.345061  -0.173073  -0.200234
     7  C    7.117449   0.317491  -0.800169   0.244714  -0.233817  -0.193179
     8  C    0.317491   8.592039  -1.146263  -1.282756   0.218122  -1.066615
     9  C   -0.800169  -1.146263   9.597081   0.259017   1.634942  -1.923142
    10  C    0.244714  -1.282756   0.259017   9.163482  -0.463561   2.416414
    11  C   -0.233817   0.218122   1.634942  -0.463561  14.433733  -3.786290
    12  C   -0.193179  -1.066615  -1.923142   2.416414  -3.786290  16.022170
    13  C   -0.906501   0.267756   1.599733  -0.450835   1.092902  -4.823551
    14  C    1.348954  -2.106667  -1.956703   2.445614  -4.784037   3.083504
    15  H   -0.002619   0.005709   0.090906  -0.009558  -0.029675  -0.023638
    16  H    0.000361   0.000658   0.003151  -0.009326   0.026494  -0.032181
    17  H   -0.000399  -0.001303  -0.005756   0.020552  -0.027987   0.092416
    18  H    0.002045   0.007129  -0.025068   0.012800  -0.006892  -0.053846
    19  H   -0.007704  -0.046831   0.075685   0.421898   0.078531  -0.065471
    20  H    0.003339   0.050359  -0.024696   0.013086  -0.011869  -0.013762
    21  H   -0.016749  -0.024664  -0.005730   0.020489  -0.006183   0.005308
    22  H    0.378455  -0.018227   0.003877  -0.009525   0.003082  -0.009153
    23  H   -0.105699   0.368134   0.092126  -0.009613   0.001489   0.006526
    24  H    0.015347   0.035246   0.355609   0.005155   0.014931  -0.061834
    25  H    0.013444   0.029624   0.356984   0.005482   0.012520  -0.058460
              13         14         15         16         17         18
     1  C    0.198857  -1.092423   0.366258  -0.020310  -0.025048   0.049882
     2  C   -0.251664  -0.199310  -0.106371   0.379426  -0.016101   0.002576
     3  C   -0.176169  -0.198603  -0.001310  -0.016314   0.374999  -0.084183
     4  C   -1.494879  -0.320542   0.027208   0.013370  -0.067748   0.457489
     5  C   -0.273990  -1.649146   0.005795  -0.001542   0.000313   0.006460
     6  C    1.008284  -1.382308   0.001096  -0.000327   0.000397  -0.005041
     7  C   -0.906501   1.348954  -0.002619   0.000361  -0.000399   0.002045
     8  C    0.267756  -2.106667   0.005709   0.000658  -0.001303   0.007129
     9  C    1.599733  -1.956703   0.090906   0.003151  -0.005756  -0.025068
    10  C   -0.450835   2.445614  -0.009558  -0.009326   0.020552   0.012800
    11  C    1.092902  -4.784037  -0.029675   0.026494  -0.027987  -0.006892
    12  C   -4.823551   3.083504  -0.023638  -0.032181   0.092416  -0.053846
    13  C   14.546149  -3.756889   0.001567   0.003073  -0.006420  -0.011808
    14  C   -3.756889  16.104320   0.006621  -0.009040   0.005329  -0.014067
    15  H    0.001567   0.006621   0.439094  -0.008993   0.001478   0.000180
    16  H    0.003073  -0.009040  -0.008993   0.419500  -0.006660   0.001901
    17  H   -0.006420   0.005329   0.001478  -0.006660   0.422658  -0.010321
    18  H   -0.011808  -0.014067   0.000180   0.001901  -0.010321   0.453549
    19  H    0.076362  -0.065139   0.000301  -0.000540   0.001419  -0.006138
    20  H   -0.007158  -0.054911  -0.000113   0.000015  -0.000144   0.001267
    21  H   -0.026950   0.091667   0.000014  -0.000007   0.000010  -0.000142
    22  H    0.027241  -0.034640  -0.000127   0.000008  -0.000007   0.000015
    23  H   -0.030904  -0.025380   0.000579  -0.000127   0.000014  -0.000112
    24  H    0.012905  -0.059460  -0.000955   0.000667  -0.000153   0.000208
    25  H    0.013576  -0.060493  -0.000836   0.000599  -0.000133   0.000154
              19         20         21         22         23         24
     1  C   -0.046763   0.007355  -0.001330   0.000776   0.005768   0.031417
     2  C   -0.007703   0.002039  -0.000401   0.000369  -0.002705   0.013565
     3  C    0.051364  -0.005118   0.000402  -0.000330   0.001112  -0.001858
     4  C   -0.068279   0.006272   0.000326  -0.001545   0.005697  -0.011170
     5  C   -0.071346   0.457770  -0.068051   0.013877   0.027423  -0.013178
     6  C    0.051098  -0.085430   0.374784  -0.017045  -0.001522  -0.001272
     7  C   -0.007704   0.003339  -0.016749   0.378455  -0.105699   0.015347
     8  C   -0.046831   0.050359  -0.024664  -0.018227   0.368134   0.035246
     9  C    0.075685  -0.024696  -0.005730   0.003877   0.092126   0.355609
    10  C    0.421898   0.013086   0.020489  -0.009525  -0.009613   0.005155
    11  C    0.078531  -0.011869  -0.006183   0.003082   0.001489   0.014931
    12  C   -0.065471  -0.013762   0.005308  -0.009153   0.006526  -0.061834
    13  C    0.076362  -0.007158  -0.026950   0.027241  -0.030904   0.012905
    14  C   -0.065139  -0.054911   0.091667  -0.034640  -0.025380  -0.059460
    15  H    0.000301  -0.000113   0.000014  -0.000127   0.000579  -0.000955
    16  H   -0.000540   0.000015  -0.000007   0.000008  -0.000127   0.000667
    17  H    0.001419  -0.000144   0.000010  -0.000007   0.000014  -0.000153
    18  H   -0.006138   0.001267  -0.000142   0.000015  -0.000112   0.000208
    19  H    0.442734  -0.006274   0.001417  -0.000539   0.000315   0.000588
    20  H   -0.006274   0.453653  -0.010211   0.001943   0.000171   0.000166
    21  H    0.001417  -0.010211   0.422259  -0.006612   0.001458  -0.000133
    22  H   -0.000539   0.001943  -0.006612   0.419422  -0.009039   0.000597
    23  H    0.000315   0.000171   0.001458  -0.009039   0.438959  -0.000808
    24  H    0.000588   0.000166  -0.000133   0.000597  -0.000808   0.493771
    25  H    0.000601   0.000197  -0.000150   0.000661  -0.001033  -0.079650
              25
     1  C    0.035085
     2  C    0.015503
     3  C   -0.001134
     4  C   -0.012952
     5  C   -0.011543
     6  C   -0.001887
     7  C    0.013444
     8  C    0.029624
     9  C    0.356984
    10  C    0.005482
    11  C    0.012520
    12  C   -0.058460
    13  C    0.013576
    14  C   -0.060493
    15  H   -0.000836
    16  H    0.000599
    17  H   -0.000133
    18  H    0.000154
    19  H    0.000601
    20  H    0.000197
    21  H   -0.000150
    22  H    0.000661
    23  H   -0.001033
    24  H   -0.079650
    25  H    0.494012
 Mulliken charges:
               1
     1  C    0.091194
     2  C   -0.409379
     3  C   -0.440526
     4  C    0.013872
     5  C    0.015151
     6  C   -0.439573
     7  C   -0.403872
     8  C    0.095016
     9  C   -0.334230
    10  C    0.093045
    11  C   -0.641754
    12  C    0.688490
    13  C   -0.630687
    14  C    0.683749
    15  H    0.237389
    16  H    0.256144
    17  H    0.248594
    18  H    0.221963
    19  H    0.190412
    20  H    0.222055
    21  H    0.249180
    22  H    0.256469
    23  H    0.237170
    24  H    0.250298
    25  H    0.249830
 Sum of Mulliken charges =   1.00000
 Mulliken charges with hydrogens summed into heavy atoms:
               1
     1  C    0.328583
     2  C   -0.153235
     3  C   -0.191932
     4  C    0.235835
     5  C    0.237206
     6  C   -0.190394
     7  C   -0.147403
     8  C    0.332186
     9  C    0.165897
    10  C    0.283458
    11  C   -0.641754
    12  C    0.688490
    13  C   -0.630687
    14  C    0.683749
 Electronic spatial extent (au):  <R**2>=           2855.9201
 Charge=              1.0000 electrons
 Dipole moment (field-independent basis, Debye):
    X=             -0.0105    Y=              0.1875    Z=              0.0005  Tot=              0.1878
 Quadrupole moment (field-independent basis, Debye-Ang):
   XX=            -31.1161   YY=            -56.2626   ZZ=            -84.1418
   XY=             -0.0059   XZ=              0.0098   YZ=              0.0014
 Traceless Quadrupole moment (field-independent basis, Debye-Ang):
   XX=             26.0574   YY=              0.9109   ZZ=            -26.9683
   XY=             -0.0059   XZ=              0.0098   YZ=              0.0014
 Octapole moment (field-independent basis, Debye-Ang**2):
  XXX=             -0.4380  YYY=              5.2098  ZZZ=              0.0062  XYY=              0.0038
  XXY=             -5.1740  XXZ=             -0.0000  XZZ=              0.0535  YZZ=             -3.0883
  YYZ=             -0.0127  XYZ=              0.0492
 Hexadecapole moment (field-independent basis, Debye-Ang**3):
 XXXX=          -2122.4393 YYYY=           -609.2454 ZZZZ=            -99.3306 XXXY=             -0.2489
 XXXZ=              0.2765 YYYX=              0.1039 YYYZ=              0.0383 ZZZX=              0.0126
 ZZZY=             -0.0080 XXYY=           -507.7134 XXZZ=           -590.7525 YYZZ=           -145.7036
 XXYZ=             -0.0080 YYXZ=              0.0008 ZZXY=             -0.0050
 N-N= 7.811970726014D+02 E-N=-2.798735877465D+03  KE= 5.375058868131D+02
 Unable to Open any file for archive entry.
 1\1\GINC-GADI-CPU-CLX-2542\SP\RM062X TD-FC\6-311++G(d,p)\C14H11(1+)\TS
 1578\27-Jul-2022\0\\#n M062X/6-311++G(d,p) TD(NStates=1) EmpiricalDisp
 ersion=GD3 SP\\SP_100\\1,1\C,0,0.0038,2.491455,1.360431\C,0,0.0019,3.7
 00808,0.671989\C,0,0.0012,3.681861,-0.71383\C,0,0.0002,2.462756,-1.407
 538\C,0,-0.0002,-2.463556,-1.407538\C,0,-0.0012,-3.685861,-0.71383\C,0
 ,-0.0019,-3.702208,0.671989\C,0,-0.0038,-2.493855,1.360431\C,0,-0.0001
 ,0.0088,1.453369\C,0,0.,-0.0004,-1.429189\C,0,0.0003,1.262155,0.677065
 \C,0,-0.0008,1.238071,-0.730804\C,0,-0.0003,-1.261955,0.677065\C,0,0.0
 008,-1.236871,-0.730804\H,0,0.0044,2.486771,2.443647\H,0,0.0023,4.6352
 53,1.211689\H,0,0.0006,4.606762,-1.272349\H,0,-0.0006,2.46725,-2.49005
 9\H,0,0.,-0.0002,-2.510266\H,0,0.0006,-2.46785,-2.490059\H,0,-0.0006,-
 4.611762,-1.272349\H,0,-0.0023,-4.638253,1.211689\H,0,-0.0044,-2.48937
 1,2.443647\H,0,-0.859585,0.002,2.143587\H,0,0.859585,0.002,2.147987\\V
 ersion=ES64L-G16RevC.01\State=1-A\HF=-539.7601443\RMSD=4.701e-09\PG=C0
 1 [X(C14H11)]\\@
 The archive entry for this job was punched.


 Change starts when someone sees the next step.
                            -- William Drayton
 Job cpu time:       0 days  1 hours 10 minutes 57.7 seconds.
 Elapsed time:       0 days  0 hours  2 minutes 14.5 seconds.
 File lengths (MBytes):  RWF=    460 Int=      0 D2E=      0 Chk=     15 Scr=      1
 Normal termination of Gaussian 16 at Wed Jul 27 14:16:59 2022.
