 Entering Gaussian System, Link 0=g16
 Initial command:
 /apps/gaussian/g16c01/g16/l1.exe "/jobfs/52716446.gadi-pbs/Gau-1318747.inp" -scrdir="/jobfs/52716446.gadi-pbs/"
 Entering Link 1 = /apps/gaussian/g16c01/g16/l1.exe PID=   1318748.
  
 Copyright (c) 1988-2019, Gaussian, Inc.  All Rights Reserved.
  
 This is part of the Gaussian(R) 16 program.  It is based on
 the Gaussian(R) 09 system (copyright 2009, Gaussian, Inc.),
 the Gaussian(R) 03 system (copyright 2003, Gaussian, Inc.),
 the Gaussian(R) 98 system (copyright 1998, Gaussian, Inc.),
 the Gaussian(R) 94 system (copyright 1995, Gaussian, Inc.),
 the Gaussian 92(TM) system (copyright 1992, Gaussian, Inc.),
 the Gaussian 90(TM) system (copyright 1990, Gaussian, Inc.),
 the Gaussian 88(TM) system (copyright 1988, Gaussian, Inc.),
 the Gaussian 86(TM) system (copyright 1986, Carnegie Mellon
 University), and the Gaussian 82(TM) system (copyright 1983,
 Carnegie Mellon University). Gaussian is a federally registered
 trademark of Gaussian, Inc.
  
 This software contains proprietary and confidential information,
 including trade secrets, belonging to Gaussian, Inc.
  
 This software is provided under written license and may be
 used, copied, transmitted, or stored only in accord with that
 written license.
  
 The following legend is applicable only to US Government
 contracts under FAR:
  
                    RESTRICTED RIGHTS LEGEND
  
 Use, reproduction and disclosure by the US Government is
 subject to restrictions as set forth in subparagraphs (a)
 and (c) of the Commercial Computer Software - Restricted
 Rights clause in FAR 52.227-19.
  
 Gaussian, Inc.
 340 Quinnipiac St., Bldg. 40, Wallingford CT 06492
  
  
 ---------------------------------------------------------------
 Warning -- This program may not be used in any manner that
 competes with the business of Gaussian, Inc. or will provide
 assistance to any competitor of Gaussian, Inc.  The licensee
 of this program is prohibited from giving any competitor of
 Gaussian, Inc. access to this program.  By using this program,
 the user acknowledges that Gaussian, Inc. is engaged in the
 business of creating and licensing software in the field of
 computational chemistry and represents and warrants to the
 licensee that it is not a competitor of Gaussian, Inc. and that
 it will not use this program in any manner prohibited above.
 ---------------------------------------------------------------
  

 Cite this work as:
 Gaussian 16, Revision C.01,
 M. J. Frisch, G. W. Trucks, H. B. Schlegel, G. E. Scuseria, 
 M. A. Robb, J. R. Cheeseman, G. Scalmani, V. Barone, 
 G. A. Petersson, H. Nakatsuji, X. Li, M. Caricato, A. V. Marenich, 
 J. Bloino, B. G. Janesko, R. Gomperts, B. Mennucci, H. P. Hratchian, 
 J. V. Ortiz, A. F. Izmaylov, J. L. Sonnenberg, D. Williams-Young, 
 F. Ding, F. Lipparini, F. Egidi, J. Goings, B. Peng, A. Petrone, 
 T. Henderson, D. Ranasinghe, V. G. Zakrzewski, J. Gao, N. Rega, 
 G. Zheng, W. Liang, M. Hada, M. Ehara, K. Toyota, R. Fukuda, 
 J. Hasegawa, M. Ishida, T. Nakajima, Y. Honda, O. Kitao, H. Nakai, 
 T. Vreven, K. Throssell, J. A. Montgomery, Jr., J. E. Peralta, 
 F. Ogliaro, M. J. Bearpark, J. J. Heyd, E. N. Brothers, K. N. Kudin, 
 V. N. Staroverov, T. A. Keith, R. Kobayashi, J. Normand, 
 K. Raghavachari, A. P. Rendell, J. C. Burant, S. S. Iyengar, 
 J. Tomasi, M. Cossi, J. M. Millam, M. Klene, C. Adamo, R. Cammi, 
 J. W. Ochterski, R. L. Martin, K. Morokuma, O. Farkas, 
 J. B. Foresman, and D. J. Fox, Gaussian, Inc., Wallingford CT, 2019.
 
 ******************************************
 Gaussian 16:  ES64L-G16RevC.01  3-Jul-2019
                26-Jul-2022 
 ******************************************
 %NProcShared=16
 Will use up to   16 processors via shared memory.
 %mem = 64GB
 ---------------------------------------------------------------
 #n M062X/6-311++G(d,p) TD(NStates=1) EmpiricalDispersion=GD3 SP
 ---------------------------------------------------------------
 1/38=1,172=1/1;
 2/12=2,17=6,18=5,40=1/2;
 3/5=4,6=6,7=1111,11=9,25=1,30=1,74=-55,124=31/1,2,3,8;
 4//1;
 5/5=2,38=5/2;
 8/6=1,10=2,108=1/1;
 9/41=1,42=1,70=2/14;
 6/7=2,8=2,9=2,10=2/1;
 99/5=1,9=1/99;
 ----
 SP_4
 ----
 Symbolic Z-matrix:
 Charge =  1 Multiplicity = 1
 C                     2.4927    1.2531    0.008 
 C                     3.7015    0.5847    0.036 
 C                     3.6839   -0.7211    0.004 
 C                     2.4632   -1.2709   -0.024 
 C                    -2.4632   -1.3669    0.04 
 C                    -3.6839   -0.7611    0.132 
 C                    -3.7015    0.6327    0.1 
 C                    -2.4927    1.3571    0.008 
 C                     0.        1.4301   -0.06 
 C                     0.       -1.3045   -0.06 
 C                     1.2621    0.7097   -0.008 
 C                     1.2375   -0.6781   -0.056 
 C                    -1.2621    0.7337   -0.096 
 C                    -1.2375   -0.6941   -0.048 
 H                     2.4881    2.3163    0.008 
 H                     4.6368    1.1044    0.076 
 H                     4.6093   -1.2277    0.096 
 H                     2.4675   -2.3374   -0.024 
 H                     0.       -2.4016   -0.064 
 H                    -2.4675   -2.5534    0.04 
 H                    -4.6093   -1.3077    0.112 
 H                    -4.6368    1.1924    0.132 
 H                    -2.4881    2.5483    0.008 
 H                     0.        1.9785   -0.9196 
 H                     0.        1.9785    0.7996 
 
                          Input orientation:                          
 ---------------------------------------------------------------------
 Center     Atomic      Atomic             Coordinates (Angstroms)
 Number     Number       Type             X           Y           Z
 ---------------------------------------------------------------------
      1          6           0        2.492700    1.253100    0.008000
      2          6           0        3.701500    0.584700    0.036000
      3          6           0        3.683900   -0.721100    0.004000
      4          6           0        2.463200   -1.270900   -0.024000
      5          6           0       -2.463200   -1.366900    0.040000
      6          6           0       -3.683900   -0.761100    0.132000
      7          6           0       -3.701500    0.632700    0.100000
      8          6           0       -2.492700    1.357100    0.008000
      9          6           0        0.000000    1.430100   -0.060000
     10          6           0        0.000000   -1.304500   -0.060000
     11          6           0        1.262100    0.709700   -0.008000
     12          6           0        1.237500   -0.678100   -0.056000
     13          6           0       -1.262100    0.733700   -0.096000
     14          6           0       -1.237500   -0.694100   -0.048000
     15          1           0        2.488100    2.316300    0.008000
     16          1           0        4.636800    1.104400    0.076000
     17          1           0        4.609300   -1.227700    0.096000
     18          1           0        2.467500   -2.337400   -0.024000
     19          1           0        0.000000   -2.401600   -0.064000
     20          1           0       -2.467500   -2.553400    0.040000
     21          1           0       -4.609300   -1.307700    0.112000
     22          1           0       -4.636800    1.192400    0.132000
     23          1           0       -2.488100    2.548300    0.008000
     24          1           0        0.000000    1.978500   -0.919600
     25          1           0        0.000000    1.978500    0.799600
 ---------------------------------------------------------------------
                    Distance matrix (angstroms):
                    1          2          3          4          5
     1  C    0.000000
     2  C    1.381572   0.000000
     3  C    2.305740   1.306311   0.000000
     4  C    2.524375   2.231645   1.339094   0.000000
     5  C    5.605923   6.466242   6.181035   4.927751   0.000000
     6  C    6.497905   7.507631   7.369020   6.170176   1.365857
     7  C    6.225871   7.403432   7.509069   6.453107   2.352740
     8  C    4.986485   6.242235   6.516849   5.609666   2.724348
     9  C    2.499901   3.798028   4.266483   3.655688   3.728346
    10  C    3.572044   4.156849   3.730358   2.463692   2.466019
    11  C    1.345331   2.442997   2.812907   2.316392   4.265259
    12  C    2.304161   2.770275   2.447513   1.361902   3.765480
    13  C    3.791980   4.967590   5.156487   4.231012   2.423563
    14  C    4.208220   5.102559   4.921749   3.745458   1.400980
    15  H    1.063210   2.114607   3.264315   3.587429   6.171090
    16  H    2.150326   1.070735   2.060498   3.221271   7.517887
    17  H    3.262224   2.027929   1.058996   2.149886   7.074091
    18  H    3.590731   3.172542   2.023077   1.066509   5.025711
    19  H    4.424429   4.757004   4.049670   2.710616   2.673719
    20  H    6.252524   6.921290   6.418593   5.095165   1.186508
    21  H    7.550292   8.523869   8.314621   7.073903   2.148123
    22  H    7.130837   8.360967   8.538847   7.516793   3.359020
    23  H    5.146447   6.493663   6.984452   6.253214   3.915410
    24  H    2.756846   4.069023   4.659613   4.174692   4.263788
    25  H    2.714109   4.028258   4.635940   4.159840   4.223275
                    6          7          8          9         10
     6  C    0.000000
     7  C    1.394278   0.000000
     8  C    2.433332   1.412238   0.000000
     9  C    4.290611   3.789795   2.494696   0.000000
    10  C    3.728708   4.180843   3.647231   2.734600   0.000000
    11  C    5.161954   4.965372   3.810237   1.454158   2.377520
    12  C    4.925689   5.112363   4.249768   2.444571   1.387011
    13  C    2.855088   2.449345   1.383409   1.441931   2.397593
    14  C    2.453928   2.802427   2.405428   2.458409   1.379905
    15  H    6.897779   6.415148   5.072320   2.642086   4.393798
    16  H    8.527442   8.351666   7.134301   4.650214   5.226969
    17  H    8.306394   8.516484   7.558263   5.322958   4.612579
    18  H    6.352069   6.847878   6.184977   4.503766   2.675207
    19  H    4.037422   4.789047   4.510716   3.831702   1.097107
    20  H    2.168048   3.417249   3.910712   4.686878   2.767365
    21  H    1.074959   2.142288   3.404698   5.363840   4.612509
    22  H    2.173518   1.090447   2.153989   4.646857   5.269847
    23  H    3.521000   2.269433   1.191209   2.728669   4.586865
    24  H    4.709818   4.068398   2.731324   1.019635   3.393671
    25  H    4.639204   4.000215   2.688182   1.019635   3.393671
                   11         12         13         14         15
    11  C    0.000000
    12  C    1.388848   0.000000
    13  C    2.525848   2.871024   0.000000
    14  C    2.867099   2.475065   1.428818   0.000000
    15  H    2.021013   3.245694   4.071786   4.790171   0.000000
    16  H    3.398742   3.840569   5.913038   6.144703   2.467841
    17  H    3.868861   3.419678   6.193326   5.872864   4.131243
    18  H    3.276898   2.065720   4.831848   4.053151   4.653856
    19  H    3.358008   2.121773   3.379945   2.108843   5.334267
    20  H    4.955809   4.153672   3.503785   2.231063   6.947875
    21  H    6.209480   5.883000   3.926108   3.430910   7.969773
    22  H    5.920272   6.167780   3.413355   3.891853   7.214065
    23  H    4.176686   4.928879   2.192411   3.475672   4.981605
    24  H    2.008423   3.055280   1.954671   3.071463   2.676788
    25  H    1.963407   3.053028   1.986082   3.064739   2.632752
                   16         17         18         19         20
    16  H    0.000000
    17  H    2.332348   0.000000
    18  H    4.069625   2.415190   0.000000
    19  H    5.814770   4.759127   2.468659   0.000000
    20  H    7.990737   7.200119   4.940139   2.474352   0.000000
    21  H    9.555621   9.218961   7.152613   4.740595   2.478762
    22  H    9.274187   9.557643   7.934413   5.869852   4.329589
    23  H    7.270053   8.039839   6.959099   5.540518   5.101842
    24  H    4.822363   5.705857   5.051500   4.462883   5.248572
    25  H    4.773632   5.658659   5.039233   4.464424   5.215713
                   21         22         23         24         25
    21  H    0.000000
    22  H    2.500331   0.000000
    23  H    4.402163   2.543767   0.000000
    24  H    5.754038   4.819101   2.715834   0.000000
    25  H    5.702416   4.750111   2.672442   1.719200   0.000000
 Stoichiometry    C14H11(1+)
 Framework group  C1[X(C14H11)]
 Deg. of freedom    69
 Full point group                 C1      NOp   1
 Largest Abelian subgroup         C1      NOp   1
 Largest concise Abelian subgroup C1      NOp   1
                         Standard orientation:                         
 ---------------------------------------------------------------------
 Center     Atomic      Atomic             Coordinates (Angstroms)
 Number     Number       Type             X           Y           Z
 ---------------------------------------------------------------------
      1          6           0        2.491390   -1.247821   -0.030327
      2          6           0        3.700548   -0.580462   -0.066526
      3          6           0        3.684437    0.725267   -0.031059
      4          6           0        2.464524    1.276115    0.008340
      5          6           0       -2.462142    1.376804   -0.015058
      6          6           0       -3.684123    0.772363   -0.098598
      7          6           0       -3.702770   -0.621498   -0.070004
      8          6           0       -2.493938   -1.347241    0.010247
      9          6           0       -0.000835   -1.422704    0.057639
     10          6           0        0.001734    1.311886    0.064601
     11          6           0        1.261473   -0.703333   -0.002864
     12          6           0        1.238571    0.684362    0.048870
     13          6           0       -1.261943   -0.725239    0.105749
     14          6           0       -1.236395    0.702656    0.061185
     15          1           0        2.485791   -2.311013   -0.032996
     16          1           0        4.635000   -1.100917   -0.115510
     17          1           0        4.609528    1.231250   -0.129346
     18          1           0        2.469826    2.342607    0.011020
     19          1           0        0.002798    2.408972    0.071395
     20          1           0       -2.465327    2.563304   -0.012002
     21          1           0       -4.608815    1.319760   -0.069626
     22          1           0       -4.638826   -1.180255   -0.095766
     23          1           0       -2.490458   -2.538440    0.007176
     24          1           0        0.005689   -1.973297    0.915811
     25          1           0       -0.008390   -1.968907   -0.803326
 ---------------------------------------------------------------------
 Rotational constants (GHZ):           2.3040137           0.4443469           0.3736630
 Standard basis: 6-311++G(d,p) (5D, 7F)
 There are   399 symmetry adapted cartesian basis functions of A   symmetry.
 There are   385 symmetry adapted basis functions of A   symmetry.
   385 basis functions,   603 primitive gaussians,   399 cartesian basis functions
    47 alpha electrons       47 beta electrons
       nuclear repulsion energy       792.3647635861 Hartrees.
 NAtoms=   25 NActive=   25 NUniq=   25 SFac= 1.00D+00 NAtFMM=   60 NAOKFM=F Big=F
 Integral buffers will be    131072 words long.
 Regular integral format.
 Two-electron integral symmetry is turned on.
 Nuclear repulsion after empirical dispersion term =      792.3638048686 Hartrees.
 One-electron integrals computed using PRISM.
 NBasis=   385 RedAO= T EigKep=  1.12D-06  NBF=   385
 NBsUse=   379 1.00D-06 EigRej=  8.77D-07 NBFU=   379
 ExpMin= 3.60D-02 ExpMax= 4.56D+03 ExpMxC= 6.82D+02 IAcc=3 IRadAn=         5 AccDes= 0.00D+00
 Harris functional with IExCor= 1009 and IRadAn=       5 diagonalized for initial guess.
 HarFok:  IExCor= 1009 AccDes= 0.00D+00 IRadAn=         5 IDoV= 1 UseB2=F ITyADJ=14
 ICtDFT=  3500011 ScaDFX=  1.000000  1.000000  1.000000  1.000000
 FoFCou: FMM=F IPFlag=           0 FMFlag=      100000 FMFlg1=           0
         NFxFlg=           0 DoJE=T BraDBF=F KetDBF=T FulRan=T
         wScrn=  0.000000 ICntrl=       500 IOpCl=  0 I1Cent=   200000004 NGrid=           0
         NMat0=    1 NMatS0=      1 NMatT0=    0 NMatD0=    1 NMtDS0=    0 NMtDT0=    0
 Petite list used in FoFCou.
 Requested convergence on RMS density matrix=1.00D-08 within 128 cycles.
 Requested convergence on MAX density matrix=1.00D-06.
 Requested convergence on             energy=1.00D-06.
 No special actions if energy rises.
 SCF Done:  E(RM062X) =  -539.697671018     A.U. after   15 cycles
            NFock= 15  Conv=0.63D-08     -V/T= 2.0019
 DoSCS=F DFT=T ScalE2(SS,OS)=  1.000000  1.000000
 ExpMin= 3.60D-02 ExpMax= 4.56D+03 ExpMxC= 6.82D+02 IAcc=3 IRadAn=         5 AccDes= 0.00D+00
 HarFok:  IExCor=  205 AccDes= 0.00D+00 IRadAn=         5 IDoV=-2 UseB2=F ITyADJ=14
 ICtDFT= 12500011 ScaDFX=  1.000000  1.000000  1.000000  1.000000
 Range of M.O.s used for correlation:    15   379
 NBasis=   385 NAE=    47 NBE=    47 NFC=    14 NFV=     0
 NROrb=    365 NOA=    33 NOB=    33 NVA=   332 NVB=   332

 **** Warning!!: The largest alpha MO coefficient is  0.15045567D+03

 Orbital symmetries:
       Occupied  (A) (A) (A) (A) (A) (A) (A) (A) (A) (A) (A) (A)
                 (A) (A) (A) (A) (A) (A) (A) (A) (A) (A) (A) (A)
                 (A) (A) (A) (A) (A) (A) (A) (A) (A) (A) (A) (A)
                 (A) (A) (A) (A) (A) (A) (A) (A) (A) (A) (A)
       Virtual   (A) (A) (A) (A) (A) (A) (A) (A) (A) (A) (A) (A)
                 (A) (A) (A) (A) (A) (A) (A) (A) (A) (A) (A) (A)
                 (A) (A) (A) (A) (A) (A) (A) (A) (A) (A) (A) (A)
                 (A) (A) (A) (A) (A) (A) (A) (A) (A) (A) (A) (A)
                 (A) (A) (A) (A) (A) (A) (A) (A) (A) (A) (A) (A)
                 (A) (A) (A) (A) (A) (A) (A) (A) (A) (A) (A) (A)
                 (A) (A) (A) (A) (A) (A) (A) (A) (A) (A) (A) (A)
                 (A) (A) (A) (A) (A) (A) (A) (A) (A) (A) (A) (A)
                 (A) (A) (A) (A) (A) (A) (A) (A) (A) (A) (A) (A)
                 (A) (A) (A) (A) (A) (A) (A) (A) (A) (A) (A) (A)
                 (A) (A) (A) (A) (A) (A) (A) (A) (A) (A) (A) (A)
                 (A) (A) (A) (A) (A) (A) (A) (A) (A) (A) (A) (A)
                 (A) (A) (A) (A) (A) (A) (A) (A) (A) (A) (A) (A)
                 (A) (A) (A) (A) (A) (A) (A) (A) (A) (A) (A) (A)
                 (A) (A) (A) (A) (A) (A) (A) (A) (A) (A) (A) (A)
                 (A) (A) (A) (A) (A) (A) (A) (A) (A) (A) (A) (A)
                 (A) (A) (A) (A) (A) (A) (A) (A) (A) (A) (A) (A)
                 (A) (A) (A) (A) (A) (A) (A) (A) (A) (A) (A) (A)
                 (A) (A) (A) (A) (A) (A) (A) (A) (A) (A) (A) (A)
                 (A) (A) (A) (A) (A) (A) (A) (A) (A) (A) (A) (A)
                 (A) (A) (A) (A) (A) (A) (A) (A) (A) (A) (A) (A)
                 (A) (A) (A) (A) (A) (A) (A) (A) (A) (A) (A) (A)
                 (A) (A) (A) (A) (A) (A) (A) (A) (A) (A) (A) (A)
                 (A) (A) (A) (A) (A) (A) (A) (A) (A) (A) (A) (A)
                 (A) (A) (A) (A) (A) (A) (A) (A) (A) (A) (A) (A)
                 (A) (A) (A) (A) (A) (A) (A) (A) (A) (A) (A) (A)
                 (A) (A) (A) (A) (A) (A) (A) (A) (A) (A) (A) (A)
                 (A) (A) (A) (A) (A) (A) (A) (A)
     4 initial guesses have been made.
 Convergence on wavefunction:    0.001000000000000
 Iteration     1 Dimension     4 NMult     0 NNew      4
 CISAX will form     4 AO SS matrices at one time.
 Iteration     2 Dimension     6 NMult     4 NNew      2
 Iteration     3 Dimension     8 NMult     6 NNew      2
 Iteration     4 Dimension    10 NMult     8 NNew      2
 Iteration     5 Dimension    12 NMult    10 NNew      2
 Iteration     6 Dimension    14 NMult    12 NNew      2
 ***********************************************************************
 Excited states from <AA,BB:AA,BB> singles matrix:
 ***********************************************************************
 
 Ground to excited state transition densities written to RWF  633
 Ground to excited state transition electric dipole moments (Au):
       state          X           Y           Z        Dip. S.      Osc.
         1        -0.3261     -0.5967      0.0222      0.4628      0.0352
 Ground to excited state transition velocity dipole moments (Au):
       state          X           Y           Z        Dip. S.      Osc.
         1         0.0377      0.0760     -0.0025      0.0072      0.0421
 Ground to excited state transition magnetic dipole moments (Au):
       state          X           Y           Z
         1         0.0403     -0.0136     -0.2281
 Ground to excited state transition velocity quadrupole moments (Au):
       state          XX          YY          ZZ          XY          XZ          YZ
         1         0.3170      0.0435     -0.0077     -0.0130      0.0048      0.0088
 <0|del|b> * <b|rxdel|0> + <0|del|b> * <b|delr+rdel|0>
 Rotatory Strengths (R) in cgs (10**-40 erg-esu-cm/Gauss)
       state          XX          YY          ZZ    R(velocity)    E-M Angle
         1        -2.4267      7.4300      1.5975      2.2002       86.90
 1/2[<0|r|b>*<b|rxdel|0> + (<0|rxdel|b>*<b|r|0>)*]
 Rotatory Strengths (R) in cgs (10**-40 erg-esu-cm/Gauss)
       state          XX          YY          ZZ     R(length)
         1         9.2894     -5.7397      3.5778      2.3758
  1/2[<0|del|b>*<b|r|0> + (<0|r|b>*<b|del|0>)*] (Au)
       state          X           Y           Z        Dip. S.   Osc.(frdel)
         1        -0.0123     -0.0454     -0.0001      0.0577      0.0385

 Excitation energies and oscillator strengths:
 
 Excited State   1:      Singlet-A      3.1061 eV  399.16 nm  f=0.0352  <S**2>=0.000
      46 -> 48         0.16234
      47 -> 48         0.68469
 This state for optimization and/or second-order correction.
 Total Energy, E(TD-HF/TD-DFT) =  -539.583523049    
 Copying the excited state density for this state as the 1-particle RhoCI density.
 SavETr:  write IOETrn=   770 NScale= 10 NData=  16 NLR=1 NState=    1 LETran=      28.

 **********************************************************************

            Population analysis using the SCF Density.

 **********************************************************************

 Orbital symmetries:
       Occupied  (A) (A) (A) (A) (A) (A) (A) (A) (A) (A) (A) (A)
                 (A) (A) (A) (A) (A) (A) (A) (A) (A) (A) (A) (A)
                 (A) (A) (A) (A) (A) (A) (A) (A) (A) (A) (A) (A)
                 (A) (A) (A) (A) (A) (A) (A) (A) (A) (A) (A)
       Virtual   (A) (A) (A) (A) (A) (A) (A) (A) (A) (A) (A) (A)
                 (A) (A) (A) (A) (A) (A) (A) (A) (A) (A) (A) (A)
                 (A) (A) (A) (A) (A) (A) (A) (A) (A) (A) (A) (A)
                 (A) (A) (A) (A) (A) (A) (A) (A) (A) (A) (A) (A)
                 (A) (A) (A) (A) (A) (A) (A) (A) (A) (A) (A) (A)
                 (A) (A) (A) (A) (A) (A) (A) (A) (A) (A) (A) (A)
                 (A) (A) (A) (A) (A) (A) (A) (A) (A) (A) (A) (A)
                 (A) (A) (A) (A) (A) (A) (A) (A) (A) (A) (A) (A)
                 (A) (A) (A) (A) (A) (A) (A) (A) (A) (A) (A) (A)
                 (A) (A) (A) (A) (A) (A) (A) (A) (A) (A) (A) (A)
                 (A) (A) (A) (A) (A) (A) (A) (A) (A) (A) (A) (A)
                 (A) (A) (A) (A) (A) (A) (A) (A) (A) (A) (A) (A)
                 (A) (A) (A) (A) (A) (A) (A) (A) (A) (A) (A) (A)
                 (A) (A) (A) (A) (A) (A) (A) (A) (A) (A) (A) (A)
                 (A) (A) (A) (A) (A) (A) (A) (A) (A) (A) (A) (A)
                 (A) (A) (A) (A) (A) (A) (A) (A) (A) (A) (A) (A)
                 (A) (A) (A) (A) (A) (A) (A) (A) (A) (A) (A) (A)
                 (A) (A) (A) (A) (A) (A) (A) (A) (A) (A) (A) (A)
                 (A) (A) (A) (A) (A) (A) (A) (A) (A) (A) (A) (A)
                 (A) (A) (A) (A) (A) (A) (A) (A) (A) (A) (A) (A)
                 (A) (A) (A) (A) (A) (A) (A) (A) (A) (A) (A) (A)
                 (A) (A) (A) (A) (A) (A) (A) (A) (A) (A) (A) (A)
                 (A) (A) (A) (A) (A) (A) (A) (A) (A) (A) (A) (A)
                 (A) (A) (A) (A) (A) (A) (A) (A) (A) (A) (A) (A)
                 (A) (A) (A) (A) (A) (A) (A) (A) (A) (A) (A) (A)
                 (A) (A) (A) (A) (A) (A) (A) (A) (A) (A) (A) (A)
                 (A) (A) (A) (A) (A) (A) (A) (A) (A) (A) (A) (A)
                 (A) (A) (A) (A) (A) (A) (A) (A)
 The electronic state is 1-A.
 Alpha  occ. eigenvalues --  -10.76597 -10.73306 -10.72481 -10.72350 -10.72289
 Alpha  occ. eigenvalues --  -10.71424 -10.71158 -10.71063 -10.70021 -10.69989
 Alpha  occ. eigenvalues --  -10.69688 -10.68975 -10.68262 -10.67801  -1.18174
 Alpha  occ. eigenvalues --   -1.14176  -1.08748  -1.06995  -1.02394  -1.01172
 Alpha  occ. eigenvalues --   -0.96508  -0.92698  -0.86961  -0.86063  -0.83605
 Alpha  occ. eigenvalues --   -0.79378  -0.77502  -0.74110  -0.71977  -0.71571
 Alpha  occ. eigenvalues --   -0.69368  -0.68382  -0.66796  -0.66191  -0.62951
 Alpha  occ. eigenvalues --   -0.62159  -0.62015  -0.61563  -0.60585  -0.59872
 Alpha  occ. eigenvalues --   -0.56914  -0.55287  -0.53273  -0.52538  -0.47823
 Alpha  occ. eigenvalues --   -0.46278  -0.45394
 Alpha virt. eigenvalues --   -0.25856  -0.14443  -0.13585  -0.11847  -0.11181
 Alpha virt. eigenvalues --   -0.09914  -0.09400  -0.08226  -0.07988  -0.07463
 Alpha virt. eigenvalues --   -0.07203  -0.06817  -0.05666  -0.05506  -0.05179
 Alpha virt. eigenvalues --   -0.04174  -0.03886  -0.03124  -0.03026  -0.02021
 Alpha virt. eigenvalues --   -0.01739  -0.00863   0.00327   0.00407   0.00686
 Alpha virt. eigenvalues --    0.01258   0.01349   0.02065   0.02154   0.02295
 Alpha virt. eigenvalues --    0.02634   0.02886   0.03026   0.03139   0.03421
 Alpha virt. eigenvalues --    0.04183   0.04327   0.04875   0.05287   0.05396
 Alpha virt. eigenvalues --    0.05770   0.06427   0.06761   0.06914   0.07476
 Alpha virt. eigenvalues --    0.07699   0.08060   0.08242   0.08861   0.09259
 Alpha virt. eigenvalues --    0.09422   0.09806   0.10005   0.10113   0.11448
 Alpha virt. eigenvalues --    0.11586   0.12008   0.12318   0.12649   0.12896
 Alpha virt. eigenvalues --    0.13441   0.13622   0.14691   0.14998   0.15855
 Alpha virt. eigenvalues --    0.16068   0.16663   0.18061   0.18116   0.18282
 Alpha virt. eigenvalues --    0.19101   0.19367   0.19744   0.20149   0.20460
 Alpha virt. eigenvalues --    0.20969   0.21862   0.22929   0.23082   0.23690
 Alpha virt. eigenvalues --    0.24770   0.25381   0.25748   0.27393   0.28314
 Alpha virt. eigenvalues --    0.29333   0.29412   0.31871   0.32475   0.37509
 Alpha virt. eigenvalues --    0.38158   0.38791   0.39218   0.40486   0.41396
 Alpha virt. eigenvalues --    0.41728   0.42546   0.43349   0.44071   0.44530
 Alpha virt. eigenvalues --    0.44974   0.45728   0.47603   0.47687   0.48216
 Alpha virt. eigenvalues --    0.48470   0.49126   0.49642   0.50606   0.50686
 Alpha virt. eigenvalues --    0.51243   0.51969   0.52610   0.52762   0.53668
 Alpha virt. eigenvalues --    0.54175   0.55905   0.56077   0.56374   0.58318
 Alpha virt. eigenvalues --    0.59927   0.60040   0.61729   0.61820   0.62927
 Alpha virt. eigenvalues --    0.63633   0.64268   0.64482   0.66591   0.67450
 Alpha virt. eigenvalues --    0.68310   0.70131   0.71352   0.72276   0.73106
 Alpha virt. eigenvalues --    0.74756   0.74946   0.76093   0.76497   0.76931
 Alpha virt. eigenvalues --    0.77738   0.78371   0.78573   0.79442   0.81176
 Alpha virt. eigenvalues --    0.81790   0.82413   0.82570   0.83621   0.84334
 Alpha virt. eigenvalues --    0.85641   0.87044   0.88093   0.88472   0.90372
 Alpha virt. eigenvalues --    0.91366   0.93468   0.94667   0.95098   0.96594
 Alpha virt. eigenvalues --    0.97811   0.99101   1.01726   1.02613   1.03670
 Alpha virt. eigenvalues --    1.04721   1.06367   1.07988   1.09156   1.11580
 Alpha virt. eigenvalues --    1.21989   1.23173   1.25463   1.29376   1.30275
 Alpha virt. eigenvalues --    1.31635   1.32700   1.33233   1.34689   1.36164
 Alpha virt. eigenvalues --    1.37687   1.41773   1.43266   1.43483   1.44276
 Alpha virt. eigenvalues --    1.44840   1.46299   1.47490   1.48646   1.49364
 Alpha virt. eigenvalues --    1.51279   1.51613   1.52049   1.54531   1.55934
 Alpha virt. eigenvalues --    1.57148   1.59000   1.59745   1.60427   1.61299
 Alpha virt. eigenvalues --    1.61763   1.62702   1.64468   1.66336   1.67701
 Alpha virt. eigenvalues --    1.68509   1.71081   1.71772   1.73207   1.76835
 Alpha virt. eigenvalues --    1.77515   1.78636   1.81547   1.82412   1.82683
 Alpha virt. eigenvalues --    1.83248   1.84519   1.85177   1.85756   1.86390
 Alpha virt. eigenvalues --    1.86719   1.87142   1.89221   1.91419   1.92576
 Alpha virt. eigenvalues --    1.93220   1.96273   1.97051   1.98965   2.02423
 Alpha virt. eigenvalues --    2.03764   2.05186   2.07603   2.10219   2.12034
 Alpha virt. eigenvalues --    2.14912   2.17369   2.17661   2.22299   2.24896
 Alpha virt. eigenvalues --    2.26375   2.28608   2.29071   2.34721   2.36889
 Alpha virt. eigenvalues --    2.39570   2.40122   2.41427   2.43515   2.44474
 Alpha virt. eigenvalues --    2.45795   2.51567   2.53784   2.56302   2.57124
 Alpha virt. eigenvalues --    2.57866   2.58973   2.59668   2.59882   2.61379
 Alpha virt. eigenvalues --    2.62483   2.62608   2.63133   2.63416   2.64906
 Alpha virt. eigenvalues --    2.66386   2.66771   2.67905   2.68108   2.69852
 Alpha virt. eigenvalues --    2.70855   2.71960   2.75372   2.76948   2.77270
 Alpha virt. eigenvalues --    2.77731   2.78531   2.81357   2.85236   2.88259
 Alpha virt. eigenvalues --    2.89298   2.94660   2.95406   2.98111   3.00486
 Alpha virt. eigenvalues --    3.04616   3.08792   3.10631   3.13368   3.23738
 Alpha virt. eigenvalues --    3.25724   3.27136   3.29985   3.32227   3.37851
 Alpha virt. eigenvalues --    3.39039   3.39473   3.41140   3.43331   3.52147
 Alpha virt. eigenvalues --    3.55718   3.57243   3.59785   3.63680   3.72060
 Alpha virt. eigenvalues --    3.87624   3.89735   3.96837   3.97277   3.99122
 Alpha virt. eigenvalues --    4.00659   4.02428   4.05550   4.12092   4.38934
 Alpha virt. eigenvalues --    4.67926   4.72188   4.73800  23.41894  23.59880
 Alpha virt. eigenvalues --   23.80629  23.84923  23.93461  23.94234  24.00408
 Alpha virt. eigenvalues --   24.00860  24.06064  24.08753  24.11422  24.17386
 Alpha virt. eigenvalues --   24.20127  24.37247
          Condensed to atoms (all electrons):
               1          2          3          4          5          6
     1  C    9.714520   0.511542  -0.521980   2.537082  -0.041981  -0.099661
     2  C    0.511542   7.040588   0.643708  -0.659396  -0.014109  -0.014417
     3  C   -0.521980   0.643708   7.161591  -0.029619  -0.161100   0.022469
     4  C    2.537082  -0.659396  -0.029619  11.876800  -0.140181  -0.100921
     5  C   -0.041981  -0.014109  -0.161100  -0.140181  11.227307  -0.004865
     6  C   -0.099661  -0.014417   0.022469  -0.100921  -0.004865   6.907290
     7  C   -0.031958   0.008804  -0.015855  -0.127756  -0.784429   0.411067
     8  C    0.605910   0.007383  -0.084243   0.122290   2.763942  -1.168225
     9  C   -1.574810  -0.588685   0.387190  -1.800775  -0.297939   0.496133
    10  C   -2.059273   0.047699  -0.672180  -2.952926  -2.460437  -0.352048
    11  C   -0.023938  -1.253232   1.201787  -0.599085  -1.566699  -0.082632
    12  C   -1.885868   0.621857  -1.680641   0.172249  -0.581822  -0.292920
    13  C   -0.103081  -0.110573  -0.158279  -1.514347  -0.349504   1.378161
    14  C   -1.452506  -0.189319  -0.017860  -1.199003  -2.055883  -1.003248
    15  H    0.344179  -0.046548  -0.023001   0.025220   0.005218   0.000711
    16  H   -0.020205   0.393136  -0.012551   0.024309  -0.001239  -0.000184
    17  H   -0.026654  -0.013086   0.398732  -0.077031  -0.001143   0.000169
    18  H    0.046137  -0.020597  -0.090107   0.472294   0.017942  -0.002880
    19  H   -0.061323  -0.009876   0.059481  -0.078552  -0.097037   0.055379
    20  H    0.006780   0.001845  -0.003477   0.012801   0.436783  -0.090827
    21  H   -0.000807  -0.000144   0.000434  -0.001094  -0.095364   0.413172
    22  H   -0.000002   0.000324  -0.000286  -0.002278   0.017080  -0.016128
    23  H    0.012625  -0.000757   0.001632   0.007795   0.014856  -0.016398
    24  H    0.067088   0.019480   0.001929  -0.021390  -0.016284   0.005416
    25  H    0.101236   0.034378  -0.005355  -0.008601  -0.009021  -0.008086
               7          8          9         10         11         12
     1  C   -0.031958   0.605910  -1.574810  -2.059273  -0.023938  -1.885868
     2  C    0.008804   0.007383  -0.588685   0.047699  -1.253232   0.621857
     3  C   -0.015855  -0.084243   0.387190  -0.672180   1.201787  -1.680641
     4  C   -0.127756   0.122290  -1.800775  -2.952926  -0.599085   0.172249
     5  C   -0.784429   2.763942  -0.297939  -2.460437  -1.566699  -0.581822
     6  C    0.411067  -1.168225   0.496133  -0.352048  -0.082632  -0.292920
     7  C    6.870515   0.112871  -0.242714   0.104959  -0.254463  -0.297776
     8  C    0.112871  10.214760  -1.198970  -1.579254  -0.042429  -0.520938
     9  C   -0.242714  -1.198970  10.990387   0.356873   2.167364  -3.318631
    10  C    0.104959  -1.579254   0.356873  11.311052  -1.349660   2.717604
    11  C   -0.254463  -0.042429   2.167364  -1.349660  13.335817  -1.329414
    12  C   -0.297776  -0.520938  -3.318631   2.717604  -1.329414  15.457918
    13  C   -0.273408  -1.349562   2.432749  -1.312191  -0.639042  -4.419131
    14  C    0.635456  -2.353477  -2.427587   3.591711  -2.798206   0.864093
    15  H   -0.002001   0.009604   0.037477  -0.000881  -0.058330   0.061818
    16  H    0.000016  -0.000051  -0.004856  -0.018377   0.006485  -0.021412
    17  H   -0.000107  -0.000601   0.000269   0.020771  -0.019597   0.066050
    18  H    0.000255   0.007651  -0.043483   0.057405  -0.021214  -0.030166
    19  H    0.000358  -0.071098   0.109598   0.404902   0.080557  -0.111278
    20  H   -0.012969   0.064900  -0.028998   0.055707  -0.014283  -0.002822
    21  H   -0.026816  -0.048568   0.002634   0.026911   0.001976   0.003220
    22  H    0.380848  -0.018011   0.009652  -0.014049  -0.001575  -0.008627
    23  H   -0.053097   0.314636   0.052710  -0.001201   0.006746   0.010727
    24  H    0.027724   0.046971   0.400601  -0.011407  -0.043604  -0.096165
    25  H    0.020826   0.087810   0.350631  -0.019028  -0.030337  -0.051357
              13         14         15         16         17         18
     1  C   -0.103081  -1.452506   0.344179  -0.020205  -0.026654   0.046137
     2  C   -0.110573  -0.189319  -0.046548   0.393136  -0.013086  -0.020597
     3  C   -0.158279  -0.017860  -0.023001  -0.012551   0.398732  -0.090107
     4  C   -1.514347  -1.199003   0.025220   0.024309  -0.077031   0.472294
     5  C   -0.349504  -2.055883   0.005218  -0.001239  -0.001143   0.017942
     6  C    1.378161  -1.003248   0.000711  -0.000184   0.000169  -0.002880
     7  C   -0.273408   0.635456  -0.002001   0.000016  -0.000107   0.000255
     8  C   -1.349562  -2.353477   0.009604  -0.000051  -0.000601   0.007651
     9  C    2.432749  -2.427587   0.037477  -0.004856   0.000269  -0.043483
    10  C   -1.312191   3.591711  -0.000881  -0.018377   0.020771   0.057405
    11  C   -0.639042  -2.798206  -0.058330   0.006485  -0.019597  -0.021214
    12  C   -4.419131   0.864093   0.061818  -0.021412   0.066050  -0.030166
    13  C   14.366216  -1.227655  -0.017184   0.001501  -0.001594  -0.019377
    14  C   -1.227655  15.159485   0.001195  -0.007406   0.006812  -0.034044
    15  H   -0.017184   0.001195   0.449802  -0.008422   0.001130   0.000500
    16  H    0.001501  -0.007406  -0.008422   0.425548  -0.008054   0.001083
    17  H   -0.001594   0.006812   0.001130  -0.008054   0.435155  -0.008060
    18  H   -0.019377  -0.034044   0.000500   0.001083  -0.008060   0.457950
    19  H    0.058411   0.024355  -0.000133  -0.000613   0.000998  -0.003044
    20  H   -0.028964  -0.084703  -0.000099   0.000002  -0.000067   0.000815
    21  H    0.003247   0.074931   0.000005  -0.000002   0.000009  -0.000144
    22  H    0.018851  -0.028713  -0.000111   0.000001  -0.000003  -0.000007
    23  H   -0.056590   0.015322   0.000455  -0.000042   0.000018  -0.000119
    24  H    0.016202  -0.067861   0.000393   0.000228  -0.000034  -0.000164
    25  H   -0.042867  -0.085330  -0.000447   0.000472  -0.000332   0.001314
              19         20         21         22         23         24
     1  C   -0.061323   0.006780  -0.000807  -0.000002   0.012625   0.067088
     2  C   -0.009876   0.001845  -0.000144   0.000324  -0.000757   0.019480
     3  C    0.059481  -0.003477   0.000434  -0.000286   0.001632   0.001929
     4  C   -0.078552   0.012801  -0.001094  -0.002278   0.007795  -0.021390
     5  C   -0.097037   0.436783  -0.095364   0.017080   0.014856  -0.016284
     6  C    0.055379  -0.090827   0.413172  -0.016128  -0.016398   0.005416
     7  C    0.000358  -0.012969  -0.026816   0.380848  -0.053097   0.027724
     8  C   -0.071098   0.064900  -0.048568  -0.018011   0.314636   0.046971
     9  C    0.109598  -0.028998   0.002634   0.009652   0.052710   0.400601
    10  C    0.404902   0.055707   0.026911  -0.014049  -0.001201  -0.011407
    11  C    0.080557  -0.014283   0.001976  -0.001575   0.006746  -0.043604
    12  C   -0.111278  -0.002822   0.003220  -0.008627   0.010727  -0.096165
    13  C    0.058411  -0.028964   0.003247   0.018851  -0.056590   0.016202
    14  C    0.024355  -0.084703   0.074931  -0.028713   0.015322  -0.067861
    15  H   -0.000133  -0.000099   0.000005  -0.000111   0.000455   0.000393
    16  H   -0.000613   0.000002  -0.000002   0.000001  -0.000042   0.000228
    17  H    0.000998  -0.000067   0.000009  -0.000003   0.000018  -0.000034
    18  H   -0.003044   0.000815  -0.000144  -0.000007  -0.000119  -0.000164
    19  H    0.459553  -0.004172   0.002235  -0.000439   0.000157   0.001331
    20  H   -0.004172   0.436088  -0.008421   0.001458   0.000376   0.000291
    21  H    0.002235  -0.008421   0.430338  -0.006564   0.000712  -0.000072
    22  H   -0.000439   0.001458  -0.006564   0.411362  -0.006084   0.000473
    23  H    0.000157   0.000376   0.000712  -0.006084   0.426210  -0.001192
    24  H    0.001331   0.000291  -0.000072   0.000473  -0.001192   0.481810
    25  H   -0.001051   0.000372  -0.000147   0.000792   0.001952  -0.040819
              25
     1  C    0.101236
     2  C    0.034378
     3  C   -0.005355
     4  C   -0.008601
     5  C   -0.009021
     6  C   -0.008086
     7  C    0.020826
     8  C    0.087810
     9  C    0.350631
    10  C   -0.019028
    11  C   -0.030337
    12  C   -0.051357
    13  C   -0.042867
    14  C   -0.085330
    15  H   -0.000447
    16  H    0.000472
    17  H   -0.000332
    18  H    0.001314
    19  H   -0.001051
    20  H    0.000372
    21  H   -0.000147
    22  H    0.000792
    23  H    0.001952
    24  H   -0.040819
    25  H    0.480988
 Mulliken charges:
               1
     1  C   -0.043052
     2  C   -0.410004
     3  C   -0.402419
     4  C    0.062114
     5  C    0.195907
     6  C   -0.436529
     7  C   -0.450350
     8  C    0.076697
     9  C   -0.266819
    10  C    0.107316
    11  C   -0.672994
    12  C    0.673430
    13  C   -0.651992
    14  C    0.659440
    15  H    0.219448
    16  H    0.250634
    17  H    0.226250
    18  H    0.210059
    19  H    0.181299
    20  H    0.261584
    21  H    0.228320
    22  H    0.262038
    23  H    0.268554
    24  H    0.229056
    25  H    0.222010
 Sum of Mulliken charges =   1.00000
 Mulliken charges with hydrogens summed into heavy atoms:
               1
     1  C    0.176396
     2  C   -0.159370
     3  C   -0.176168
     4  C    0.272174
     5  C    0.457491
     6  C   -0.208209
     7  C   -0.188311
     8  C    0.345251
     9  C    0.184247
    10  C    0.288615
    11  C   -0.672994
    12  C    0.673430
    13  C   -0.651992
    14  C    0.659440
 Electronic spatial extent (au):  <R**2>=           2819.9607
 Charge=              1.0000 electrons
 Dipole moment (field-independent basis, Debye):
    X=             -0.4787    Y=              0.3200    Z=             -0.0678  Tot=              0.5798
 Quadrupole moment (field-independent basis, Debye-Ang):
   XX=            -28.0249   YY=            -59.7995   ZZ=            -82.8778
   XY=              0.2806   XZ=             -0.4420   YZ=              0.0616
 Traceless Quadrupole moment (field-independent basis, Debye-Ang):
   XX=             28.8758   YY=             -2.8988   ZZ=            -25.9771
   XY=              0.2806   XZ=             -0.4420   YZ=              0.0616
 Octapole moment (field-independent basis, Debye-Ang**2):
  XXX=             -1.2866  YYY=              5.4015  ZZZ=              0.3509  XYY=             -5.3778
  XXY=              0.4794  XXZ=             -6.0014  XZZ=              2.3248  YZZ=             -3.0240
  YYZ=              0.1205  XYZ=             -0.4295
 Hexadecapole moment (field-independent basis, Debye-Ang**3):
 XXXX=          -2044.5365 YYYY=           -593.7998 ZZZZ=            -97.5939 XXXY=              3.1017
 XXXZ=            -11.0210 YYYX=             -0.0694 YYYZ=              0.5112 ZZZX=             -0.6641
 ZZZY=             -0.4237 XXYY=           -510.5631 XXZZ=           -581.5975 YYZZ=           -137.8975
 XXYZ=              0.4999 YYXZ=             -0.8362 ZZXY=              0.3757
 N-N= 7.923638048686D+02 E-N=-2.821758431695D+03  KE= 5.386882007174D+02
 Unable to Open any file for archive entry.
 1\1\GINC-GADI-CPU-CLX-0072\SP\RM062X TD-FC\6-311++G(d,p)\C14H11(1+)\TS
 1578\26-Jul-2022\0\\#n M062X/6-311++G(d,p) TD(NStates=1) EmpiricalDisp
 ersion=GD3 SP\\SP_4\\1,1\C,0,2.4927,1.2531,0.008\C,0,3.7015,0.5847,0.0
 36\C,0,3.6839,-0.7211,0.004\C,0,2.4632,-1.2709,-0.024\C,0,-2.4632,-1.3
 669,0.04\C,0,-3.6839,-0.7611,0.132\C,0,-3.7015,0.6327,0.1\C,0,-2.4927,
 1.3571,0.008\C,0,0.,1.4301,-0.06\C,0,0.,-1.3045,-0.06\C,0,1.2621,0.709
 7,-0.008\C,0,1.2375,-0.6781,-0.056\C,0,-1.2621,0.7337,-0.096\C,0,-1.23
 75,-0.6941,-0.048\H,0,2.4881,2.3163,0.008\H,0,4.6368,1.1044,0.076\H,0,
 4.6093,-1.2277,0.096\H,0,2.4675,-2.3374,-0.024\H,0,0.,-2.4016,-0.064\H
 ,0,-2.4675,-2.5534,0.04\H,0,-4.6093,-1.3077,0.112\H,0,-4.6368,1.1924,0
 .132\H,0,-2.4881,2.5483,0.008\H,0,0.,1.9785,-0.9196\H,0,0.,1.9785,0.79
 96\\Version=ES64L-G16RevC.01\State=1-A\HF=-539.697671\RMSD=6.279e-09\P
 G=C01 [X(C14H11)]\\@
 The archive entry for this job was punched.


 GARLIC THEN HAVE POWER TO SAVE FROM DEATH
 BEAR WITH IT THOUGH IT MAKETH UNSAVORY BREATH,
 AND SCORN NOT GARLIC LIKE SOME THAT THINK
 IT ONLY MAKETH MEN WINK AND DRINK AND STINK.
   --  SIR JOHN HARRINGTON,
       "THE ENGLISHMAN'S DOCTOR", 1609
 Job cpu time:       0 days  1 hours  4 minutes 41.3 seconds.
 Elapsed time:       0 days  0 hours  6 minutes 49.1 seconds.
 File lengths (MBytes):  RWF=    460 Int=      0 D2E=      0 Chk=     15 Scr=      1
 Normal termination of Gaussian 16 at Tue Jul 26 19:58:18 2022.
