 Entering Gaussian System, Link 0=g16
 Initial command:
 /apps/gaussian/g16c01/g16/l1.exe "/jobfs/52716446.gadi-pbs/Gau-1313372.inp" -scrdir="/jobfs/52716446.gadi-pbs/"
 Entering Link 1 = /apps/gaussian/g16c01/g16/l1.exe PID=   1313373.
  
 Copyright (c) 1988-2019, Gaussian, Inc.  All Rights Reserved.
  
 This is part of the Gaussian(R) 16 program.  It is based on
 the Gaussian(R) 09 system (copyright 2009, Gaussian, Inc.),
 the Gaussian(R) 03 system (copyright 2003, Gaussian, Inc.),
 the Gaussian(R) 98 system (copyright 1998, Gaussian, Inc.),
 the Gaussian(R) 94 system (copyright 1995, Gaussian, Inc.),
 the Gaussian 92(TM) system (copyright 1992, Gaussian, Inc.),
 the Gaussian 90(TM) system (copyright 1990, Gaussian, Inc.),
 the Gaussian 88(TM) system (copyright 1988, Gaussian, Inc.),
 the Gaussian 86(TM) system (copyright 1986, Carnegie Mellon
 University), and the Gaussian 82(TM) system (copyright 1983,
 Carnegie Mellon University). Gaussian is a federally registered
 trademark of Gaussian, Inc.
  
 This software contains proprietary and confidential information,
 including trade secrets, belonging to Gaussian, Inc.
  
 This software is provided under written license and may be
 used, copied, transmitted, or stored only in accord with that
 written license.
  
 The following legend is applicable only to US Government
 contracts under FAR:
  
                    RESTRICTED RIGHTS LEGEND
  
 Use, reproduction and disclosure by the US Government is
 subject to restrictions as set forth in subparagraphs (a)
 and (c) of the Commercial Computer Software - Restricted
 Rights clause in FAR 52.227-19.
  
 Gaussian, Inc.
 340 Quinnipiac St., Bldg. 40, Wallingford CT 06492
  
  
 ---------------------------------------------------------------
 Warning -- This program may not be used in any manner that
 competes with the business of Gaussian, Inc. or will provide
 assistance to any competitor of Gaussian, Inc.  The licensee
 of this program is prohibited from giving any competitor of
 Gaussian, Inc. access to this program.  By using this program,
 the user acknowledges that Gaussian, Inc. is engaged in the
 business of creating and licensing software in the field of
 computational chemistry and represents and warrants to the
 licensee that it is not a competitor of Gaussian, Inc. and that
 it will not use this program in any manner prohibited above.
 ---------------------------------------------------------------
  

 Cite this work as:
 Gaussian 16, Revision C.01,
 M. J. Frisch, G. W. Trucks, H. B. Schlegel, G. E. Scuseria, 
 M. A. Robb, J. R. Cheeseman, G. Scalmani, V. Barone, 
 G. A. Petersson, H. Nakatsuji, X. Li, M. Caricato, A. V. Marenich, 
 J. Bloino, B. G. Janesko, R. Gomperts, B. Mennucci, H. P. Hratchian, 
 J. V. Ortiz, A. F. Izmaylov, J. L. Sonnenberg, D. Williams-Young, 
 F. Ding, F. Lipparini, F. Egidi, J. Goings, B. Peng, A. Petrone, 
 T. Henderson, D. Ranasinghe, V. G. Zakrzewski, J. Gao, N. Rega, 
 G. Zheng, W. Liang, M. Hada, M. Ehara, K. Toyota, R. Fukuda, 
 J. Hasegawa, M. Ishida, T. Nakajima, Y. Honda, O. Kitao, H. Nakai, 
 T. Vreven, K. Throssell, J. A. Montgomery, Jr., J. E. Peralta, 
 F. Ogliaro, M. J. Bearpark, J. J. Heyd, E. N. Brothers, K. N. Kudin, 
 V. N. Staroverov, T. A. Keith, R. Kobayashi, J. Normand, 
 K. Raghavachari, A. P. Rendell, J. C. Burant, S. S. Iyengar, 
 J. Tomasi, M. Cossi, J. M. Millam, M. Klene, C. Adamo, R. Cammi, 
 J. W. Ochterski, R. L. Martin, K. Morokuma, O. Farkas, 
 J. B. Foresman, and D. J. Fox, Gaussian, Inc., Wallingford CT, 2019.
 
 ******************************************
 Gaussian 16:  ES64L-G16RevC.01  3-Jul-2019
                26-Jul-2022 
 ******************************************
 %NProcShared=16
 Will use up to   16 processors via shared memory.
 %mem = 64GB
 ---------------------------------------------------------------
 #n M062X/6-311++G(d,p) TD(NStates=1) EmpiricalDispersion=GD3 SP
 ---------------------------------------------------------------
 1/38=1,172=1/1;
 2/12=2,17=6,18=5,40=1/2;
 3/5=4,6=6,7=1111,11=9,25=1,30=1,74=-55,124=31/1,2,3,8;
 4//1;
 5/5=2,38=5/2;
 8/6=1,10=2,108=1/1;
 9/41=1,42=1,70=2/14;
 6/7=2,8=2,9=2,10=2/1;
 99/5=1,9=1/99;
 ----
 SP_4
 ----
 Symbolic Z-matrix:
 Charge =  1 Multiplicity = 1
 C                     2.4927    1.3011    0.008 
 C                     3.7015    0.6387    0.06 
 C                     3.6839   -0.6941    0.052 
 C                     2.4632   -1.3309    0. 
 C                    -2.4632   -1.4269    0.016 
 C                    -3.6839   -0.7341    0.084 
 C                    -3.7015    0.6867    0.076 
 C                    -2.4927    1.4051    0.008 
 C                     0.        1.4541   -0.06 
 C                     0.       -1.3915   -0.06 
 C                     1.2621    0.6827   -0.041 
 C                     1.2375   -0.7051   -0.053 
 C                    -1.2621    0.7067   -0.063 
 C                    -1.2375   -0.7211   -0.051 
 H                     2.4881    2.3313    0.008 
 H                     4.6368    1.1584    0.097 
 H                     4.6093   -1.2247    0.102 
 H                     2.4675   -2.3644    0. 
 H                     0.       -2.4766   -0.064 
 H                    -2.4675   -2.5804    0.016 
 H                    -4.6093   -1.3047    0.106 
 H                    -4.6368    1.2464    0.111 
 H                    -2.4881    2.5633    0.008 
 H                     0.        2.1105   -0.9196 
 H                     0.        2.1105    0.7996 
 
                          Input orientation:                          
 ---------------------------------------------------------------------
 Center     Atomic      Atomic             Coordinates (Angstroms)
 Number     Number       Type             X           Y           Z
 ---------------------------------------------------------------------
      1          6           0        2.492700    1.301100    0.008000
      2          6           0        3.701500    0.638700    0.060000
      3          6           0        3.683900   -0.694100    0.052000
      4          6           0        2.463200   -1.330900    0.000000
      5          6           0       -2.463200   -1.426900    0.016000
      6          6           0       -3.683900   -0.734100    0.084000
      7          6           0       -3.701500    0.686700    0.076000
      8          6           0       -2.492700    1.405100    0.008000
      9          6           0        0.000000    1.454100   -0.060000
     10          6           0        0.000000   -1.391500   -0.060000
     11          6           0        1.262100    0.682700   -0.041000
     12          6           0        1.237500   -0.705100   -0.053000
     13          6           0       -1.262100    0.706700   -0.063000
     14          6           0       -1.237500   -0.721100   -0.051000
     15          1           0        2.488100    2.331300    0.008000
     16          1           0        4.636800    1.158400    0.097000
     17          1           0        4.609300   -1.224700    0.102000
     18          1           0        2.467500   -2.364400    0.000000
     19          1           0        0.000000   -2.476600   -0.064000
     20          1           0       -2.467500   -2.580400    0.016000
     21          1           0       -4.609300   -1.304700    0.106000
     22          1           0       -4.636800    1.246400    0.111000
     23          1           0       -2.488100    2.563300    0.008000
     24          1           0        0.000000    2.110500   -0.919600
     25          1           0        0.000000    2.110500    0.799600
 ---------------------------------------------------------------------
                    Distance matrix (angstroms):
                    1          2          3          4          5
     1  C    0.000000
     2  C    1.379375   0.000000
     3  C    2.324159   1.332940   0.000000
     4  C    2.632177   2.327297   1.377798   0.000000
     5  C    5.657119   6.501705   6.190729   4.927361   0.000000
     6  C    6.503707   7.511943   7.367978   6.176574   1.405242
     7  C    6.224968   7.403173   7.513409   6.486911   2.450366
     8  C    4.986485   6.241649   6.523723   5.660981   2.832165
     9  C    2.498317   3.792147   4.265961   3.718492   3.791212
    10  C    3.669914   4.223413   3.751004   2.464676   2.464626
    11  C    1.378113   2.441886   2.787354   2.344975   4.281533
    12  C    2.367295   2.808890   2.448677   1.377235   3.771066
    13  C    3.802220   4.965589   5.141827   4.246604   2.449721
    14  C    4.243485   5.123973   4.922552   3.750952   1.415974
    15  H    1.030210   2.083252   3.253447   3.662293   6.216068
    16  H    2.150686   1.070627   2.083699   3.306140   7.556476
    17  H    3.296740   2.073192   1.067896   2.151146   7.075912
    18  H    3.665595   3.247301   2.066939   1.033509   5.019060
    19  H    4.526561   4.839584   4.094128   2.717366   2.678736
    20  H    6.298388   6.958527   6.434217   5.086581   1.153508
    21  H    7.565593   8.535123   8.315823   7.073343   2.151460
    22  H    7.130454   8.360571   8.544183   7.554124   3.446751
    23  H    5.138241   6.482124   6.978981   6.299225   3.990286
    24  H    2.780130   4.102062   4.730846   4.330849   4.410884
    25  H    2.737757   4.051457   4.689969   4.306965   4.381162
                    6          7          8          9         10
     6  C    0.000000
     7  C    1.420932   0.000000
     8  C    2.449676   1.407807   0.000000
     9  C    4.287199   3.782658   2.494109   0.000000
    10  C    3.744867   4.247177   3.746885   2.845600   0.000000
    11  C    5.146442   4.964980   3.823975   1.479296   2.428078
    12  C    4.923392   5.132979   4.286147   2.488694   1.415133
    13  C    2.821813   2.443439   1.416750   1.466803   2.448540
    14  C    2.450157   2.840656   2.469764   2.502595   1.407453
    15  H    6.891737   6.404723   5.066183   2.639080   4.478226
    16  H    8.533216   8.351658   7.134322   4.648871   5.294011
    17  H    8.307718   8.527809   7.573842   5.333654   4.615161
    18  H    6.364327   6.882699   6.229990   4.546768   2.653053
    19  H    4.077907   4.871054   4.613711   3.930702   1.085107
    20  H    2.212030   3.492893   3.985588   4.729854   2.740039
    21  H    1.087398   2.188761   3.439857   5.374400   4.613105
    22  H    2.197983   1.090539   2.152431   4.644598   5.337384
    23  H    3.508356   2.235753   1.158209   2.724994   4.672869
    24  H    4.761311   4.088952   2.751651   1.081561   3.605956
    25  H    4.709029   4.031365   2.708832   1.081561   3.605956
                   11         12         13         14         15
    11  C    0.000000
    12  C    1.388070   0.000000
    13  C    2.524410   2.870763   0.000000
    14  C    2.866837   2.475053   1.428062   0.000000
    15  H    2.055081   3.284425   4.087587   4.816713   0.000000
    16  H    3.410855   3.879481   5.918332   6.169427   2.449597
    17  H    3.855175   3.415120   6.183112   5.870442   4.141674
    18  H    3.277116   2.066152   4.831722   4.053401   4.695752
    19  H    3.402147   2.160958   3.424368   2.147872   5.414031
    20  H    4.955904   4.153136   3.502036   2.230333   6.977308
    21  H    6.200379   5.879615   3.908713   3.425533   7.975161
    22  H    5.927722   6.192144   3.422010   3.930972   7.207761
    23  H    4.195600   4.956436   2.226001   3.514935   4.981605
    24  H    2.098439   3.195310   2.072996   3.209958   2.664552
    25  H    2.082815   3.191541   2.075483   3.205134   2.620310
                   16         17         18         19         20
    16  H    0.000000
    17  H    2.383264   0.000000
    18  H    4.138284   2.428297   0.000000
    19  H    5.893985   4.779169   2.470879   0.000000
    20  H    8.028466   7.205999   4.939751   2.470978   0.000000
    21  H    9.568558   9.218948   7.156486   4.758981   2.494558
    22  H    9.274028   9.570621   7.970024   5.949056   4.399919
    23  H    7.262635   8.045550   6.988581   5.621069   5.143747
    24  H    4.841475   5.780387   5.192201   4.666212   5.382234
    25  H    4.785400   5.732002   5.172296   4.667686   5.357903
                   21         22         23         24         25
    21  H    0.000000
    22  H    2.551253   0.000000
    23  H    4.412541   2.522250   0.000000
    24  H    5.827615   4.827910   2.693717   0.000000
    25  H    5.778436   4.766629   2.649962   1.719200   0.000000
 Stoichiometry    C14H11(1+)
 Framework group  C1[X(C14H11)]
 Deg. of freedom    69
 Full point group                 C1      NOp   1
 Largest Abelian subgroup         C1      NOp   1
 Largest concise Abelian subgroup C1      NOp   1
                         Standard orientation:                         
 ---------------------------------------------------------------------
 Center     Atomic      Atomic             Coordinates (Angstroms)
 Number     Number       Type             X           Y           Z
 ---------------------------------------------------------------------
      1          6           0        2.491440   -1.295075   -0.013502
      2          6           0        3.700766   -0.633765   -0.067127
      3          6           0        3.684461    0.699040   -0.057381
      4          6           0        2.464481    1.336940   -0.002063
      5          6           0       -2.461847    1.437674   -0.007849
      6          6           0       -3.683348    0.746130   -0.074238
      7          6           0       -3.702294   -0.674662   -0.068025
      8          6           0       -2.494047   -1.394305   -0.003424
      9          6           0       -0.001262   -1.445777    0.059408
     10          6           0        0.001468    1.399819    0.063060
     11          6           0        1.261536   -0.675561    0.038812
     12          6           0        1.238292    0.712245    0.052644
     13          6           0       -1.262635   -0.697174    0.065952
     14          6           0       -1.236690    0.730616    0.055734
     15          1           0        2.485851   -2.325269   -0.014814
     16          1           0        4.635489   -1.154312   -0.106710
     17          1           0        4.610265    1.228818   -0.108595
     18          1           0        2.469773    2.370435   -0.000746
     19          1           0        0.002518    2.484913    0.068452
     20          1           0       -2.465040    2.591176   -0.006360
     21          1           0       -4.608243    1.317643   -0.093610
     22          1           0       -4.638201   -1.233421   -0.101828
     23          1           0       -2.490559   -2.552508   -0.004920
     24          1           0       -0.000132   -2.103281    0.918163
     25          1           0       -0.003651   -2.101071   -0.801032
 ---------------------------------------------------------------------
 Rotational constants (GHZ):           2.1723890           0.4444190           0.3700189
 Standard basis: 6-311++G(d,p) (5D, 7F)
 There are   399 symmetry adapted cartesian basis functions of A   symmetry.
 There are   385 symmetry adapted basis functions of A   symmetry.
   385 basis functions,   603 primitive gaussians,   399 cartesian basis functions
    47 alpha electrons       47 beta electrons
       nuclear repulsion energy       783.8827677043 Hartrees.
 NAtoms=   25 NActive=   25 NUniq=   25 SFac= 1.00D+00 NAtFMM=   60 NAOKFM=F Big=F
 Integral buffers will be    131072 words long.
 Regular integral format.
 Two-electron integral symmetry is turned on.
 Nuclear repulsion after empirical dispersion term =      783.8817927928 Hartrees.
 One-electron integrals computed using PRISM.
 NBasis=   385 RedAO= T EigKep=  1.11D-06  NBF=   385
 NBsUse=   379 1.00D-06 EigRej=  8.03D-07 NBFU=   379
 ExpMin= 3.60D-02 ExpMax= 4.56D+03 ExpMxC= 6.82D+02 IAcc=3 IRadAn=         5 AccDes= 0.00D+00
 Harris functional with IExCor= 1009 and IRadAn=       5 diagonalized for initial guess.
 HarFok:  IExCor= 1009 AccDes= 0.00D+00 IRadAn=         5 IDoV= 1 UseB2=F ITyADJ=14
 ICtDFT=  3500011 ScaDFX=  1.000000  1.000000  1.000000  1.000000
 FoFCou: FMM=F IPFlag=           0 FMFlag=      100000 FMFlg1=           0
         NFxFlg=           0 DoJE=T BraDBF=F KetDBF=T FulRan=T
         wScrn=  0.000000 ICntrl=       500 IOpCl=  0 I1Cent=   200000004 NGrid=           0
         NMat0=    1 NMatS0=      1 NMatT0=    0 NMatD0=    1 NMtDS0=    0 NMtDT0=    0
 Petite list used in FoFCou.
 Requested convergence on RMS density matrix=1.00D-08 within 128 cycles.
 Requested convergence on MAX density matrix=1.00D-06.
 Requested convergence on             energy=1.00D-06.
 No special actions if energy rises.
 SCF Done:  E(RM062X) =  -539.739531741     A.U. after   15 cycles
            NFock= 15  Conv=0.99D-08     -V/T= 2.0036
 DoSCS=F DFT=T ScalE2(SS,OS)=  1.000000  1.000000
 ExpMin= 3.60D-02 ExpMax= 4.56D+03 ExpMxC= 6.82D+02 IAcc=3 IRadAn=         5 AccDes= 0.00D+00
 HarFok:  IExCor=  205 AccDes= 0.00D+00 IRadAn=         5 IDoV=-2 UseB2=F ITyADJ=14
 ICtDFT= 12500011 ScaDFX=  1.000000  1.000000  1.000000  1.000000
 Range of M.O.s used for correlation:    15   379
 NBasis=   385 NAE=    47 NBE=    47 NFC=    14 NFV=     0
 NROrb=    365 NOA=    33 NOB=    33 NVA=   332 NVB=   332

 **** Warning!!: The largest alpha MO coefficient is  0.14963083D+03

 Orbital symmetries:
       Occupied  (A) (A) (A) (A) (A) (A) (A) (A) (A) (A) (A) (A)
                 (A) (A) (A) (A) (A) (A) (A) (A) (A) (A) (A) (A)
                 (A) (A) (A) (A) (A) (A) (A) (A) (A) (A) (A) (A)
                 (A) (A) (A) (A) (A) (A) (A) (A) (A) (A) (A)
       Virtual   (A) (A) (A) (A) (A) (A) (A) (A) (A) (A) (A) (A)
                 (A) (A) (A) (A) (A) (A) (A) (A) (A) (A) (A) (A)
                 (A) (A) (A) (A) (A) (A) (A) (A) (A) (A) (A) (A)
                 (A) (A) (A) (A) (A) (A) (A) (A) (A) (A) (A) (A)
                 (A) (A) (A) (A) (A) (A) (A) (A) (A) (A) (A) (A)
                 (A) (A) (A) (A) (A) (A) (A) (A) (A) (A) (A) (A)
                 (A) (A) (A) (A) (A) (A) (A) (A) (A) (A) (A) (A)
                 (A) (A) (A) (A) (A) (A) (A) (A) (A) (A) (A) (A)
                 (A) (A) (A) (A) (A) (A) (A) (A) (A) (A) (A) (A)
                 (A) (A) (A) (A) (A) (A) (A) (A) (A) (A) (A) (A)
                 (A) (A) (A) (A) (A) (A) (A) (A) (A) (A) (A) (A)
                 (A) (A) (A) (A) (A) (A) (A) (A) (A) (A) (A) (A)
                 (A) (A) (A) (A) (A) (A) (A) (A) (A) (A) (A) (A)
                 (A) (A) (A) (A) (A) (A) (A) (A) (A) (A) (A) (A)
                 (A) (A) (A) (A) (A) (A) (A) (A) (A) (A) (A) (A)
                 (A) (A) (A) (A) (A) (A) (A) (A) (A) (A) (A) (A)
                 (A) (A) (A) (A) (A) (A) (A) (A) (A) (A) (A) (A)
                 (A) (A) (A) (A) (A) (A) (A) (A) (A) (A) (A) (A)
                 (A) (A) (A) (A) (A) (A) (A) (A) (A) (A) (A) (A)
                 (A) (A) (A) (A) (A) (A) (A) (A) (A) (A) (A) (A)
                 (A) (A) (A) (A) (A) (A) (A) (A) (A) (A) (A) (A)
                 (A) (A) (A) (A) (A) (A) (A) (A) (A) (A) (A) (A)
                 (A) (A) (A) (A) (A) (A) (A) (A) (A) (A) (A) (A)
                 (A) (A) (A) (A) (A) (A) (A) (A) (A) (A) (A) (A)
                 (A) (A) (A) (A) (A) (A) (A) (A) (A) (A) (A) (A)
                 (A) (A) (A) (A) (A) (A) (A) (A) (A) (A) (A) (A)
                 (A) (A) (A) (A) (A) (A) (A) (A) (A) (A) (A) (A)
                 (A) (A) (A) (A) (A) (A) (A) (A)
     4 initial guesses have been made.
 Convergence on wavefunction:    0.001000000000000
 Iteration     1 Dimension     4 NMult     0 NNew      4
 CISAX will form     4 AO SS matrices at one time.
 Iteration     2 Dimension     6 NMult     4 NNew      2
 Iteration     3 Dimension     8 NMult     6 NNew      2
 Iteration     4 Dimension    10 NMult     8 NNew      2
 Iteration     5 Dimension    12 NMult    10 NNew      2
 Iteration     6 Dimension    14 NMult    12 NNew      2
 ***********************************************************************
 Excited states from <AA,BB:AA,BB> singles matrix:
 ***********************************************************************
 
 Ground to excited state transition densities written to RWF  633
 Ground to excited state transition electric dipole moments (Au):
       state          X           Y           Z        Dip. S.      Osc.
         1        -0.2313     -0.6333      0.0197      0.4550      0.0322
 Ground to excited state transition velocity dipole moments (Au):
       state          X           Y           Z        Dip. S.      Osc.
         1         0.0247      0.0752     -0.0022      0.0063      0.0394
 Ground to excited state transition magnetic dipole moments (Au):
       state          X           Y           Z
         1         0.0365     -0.0001     -0.1999
 Ground to excited state transition velocity quadrupole moments (Au):
       state          XX          YY          ZZ          XY          XZ          YZ
         1         0.3007      0.0368     -0.0093     -0.0141      0.0002      0.0084
 <0|del|b> * <b|rxdel|0> + <0|del|b> * <b|delr+rdel|0>
 Rotatory Strengths (R) in cgs (10**-40 erg-esu-cm/Gauss)
       state          XX          YY          ZZ    R(velocity)    E-M Angle
         1         1.4998      5.0712      2.3501      2.9737       85.23
 1/2[<0|r|b>*<b|rxdel|0> + (<0|rxdel|b>*<b|r|0>)*]
 Rotatory Strengths (R) in cgs (10**-40 erg-esu-cm/Gauss)
       state          XX          YY          ZZ     R(length)
         1         5.9636     -0.0347      2.7907      2.9066
  1/2[<0|del|b>*<b|r|0> + (<0|r|b>*<b|del|0>)*] (Au)
       state          X           Y           Z        Dip. S.   Osc.(frdel)
         1        -0.0057     -0.0476     -0.0000      0.0534      0.0356

 Excitation energies and oscillator strengths:
 
 Excited State   1:      Singlet-A      2.8886 eV  429.21 nm  f=0.0322  <S**2>=0.000
      47 -> 48         0.70088
 This state for optimization and/or second-order correction.
 Total Energy, E(TD-HF/TD-DFT) =  -539.633376482    
 Copying the excited state density for this state as the 1-particle RhoCI density.
 SavETr:  write IOETrn=   770 NScale= 10 NData=  16 NLR=1 NState=    1 LETran=      28.

 **********************************************************************

            Population analysis using the SCF Density.

 **********************************************************************

 Orbital symmetries:
       Occupied  (A) (A) (A) (A) (A) (A) (A) (A) (A) (A) (A) (A)
                 (A) (A) (A) (A) (A) (A) (A) (A) (A) (A) (A) (A)
                 (A) (A) (A) (A) (A) (A) (A) (A) (A) (A) (A) (A)
                 (A) (A) (A) (A) (A) (A) (A) (A) (A) (A) (A)
       Virtual   (A) (A) (A) (A) (A) (A) (A) (A) (A) (A) (A) (A)
                 (A) (A) (A) (A) (A) (A) (A) (A) (A) (A) (A) (A)
                 (A) (A) (A) (A) (A) (A) (A) (A) (A) (A) (A) (A)
                 (A) (A) (A) (A) (A) (A) (A) (A) (A) (A) (A) (A)
                 (A) (A) (A) (A) (A) (A) (A) (A) (A) (A) (A) (A)
                 (A) (A) (A) (A) (A) (A) (A) (A) (A) (A) (A) (A)
                 (A) (A) (A) (A) (A) (A) (A) (A) (A) (A) (A) (A)
                 (A) (A) (A) (A) (A) (A) (A) (A) (A) (A) (A) (A)
                 (A) (A) (A) (A) (A) (A) (A) (A) (A) (A) (A) (A)
                 (A) (A) (A) (A) (A) (A) (A) (A) (A) (A) (A) (A)
                 (A) (A) (A) (A) (A) (A) (A) (A) (A) (A) (A) (A)
                 (A) (A) (A) (A) (A) (A) (A) (A) (A) (A) (A) (A)
                 (A) (A) (A) (A) (A) (A) (A) (A) (A) (A) (A) (A)
                 (A) (A) (A) (A) (A) (A) (A) (A) (A) (A) (A) (A)
                 (A) (A) (A) (A) (A) (A) (A) (A) (A) (A) (A) (A)
                 (A) (A) (A) (A) (A) (A) (A) (A) (A) (A) (A) (A)
                 (A) (A) (A) (A) (A) (A) (A) (A) (A) (A) (A) (A)
                 (A) (A) (A) (A) (A) (A) (A) (A) (A) (A) (A) (A)
                 (A) (A) (A) (A) (A) (A) (A) (A) (A) (A) (A) (A)
                 (A) (A) (A) (A) (A) (A) (A) (A) (A) (A) (A) (A)
                 (A) (A) (A) (A) (A) (A) (A) (A) (A) (A) (A) (A)
                 (A) (A) (A) (A) (A) (A) (A) (A) (A) (A) (A) (A)
                 (A) (A) (A) (A) (A) (A) (A) (A) (A) (A) (A) (A)
                 (A) (A) (A) (A) (A) (A) (A) (A) (A) (A) (A) (A)
                 (A) (A) (A) (A) (A) (A) (A) (A) (A) (A) (A) (A)
                 (A) (A) (A) (A) (A) (A) (A) (A) (A) (A) (A) (A)
                 (A) (A) (A) (A) (A) (A) (A) (A) (A) (A) (A) (A)
                 (A) (A) (A) (A) (A) (A) (A) (A)
 The electronic state is 1-A.
 Alpha  occ. eigenvalues --  -10.77378 -10.73965 -10.72897 -10.72552 -10.72268
 Alpha  occ. eigenvalues --  -10.72078 -10.71596 -10.71328 -10.70516 -10.70457
 Alpha  occ. eigenvalues --  -10.70073 -10.69709 -10.68449 -10.68335  -1.16917
 Alpha  occ. eigenvalues --   -1.12864  -1.07271  -1.06101  -1.01378  -1.00638
 Alpha  occ. eigenvalues --   -0.95922  -0.91451  -0.86504  -0.86110  -0.83632
 Alpha  occ. eigenvalues --   -0.78593  -0.76583  -0.74183  -0.70028  -0.69217
 Alpha  occ. eigenvalues --   -0.68968  -0.68246  -0.68137  -0.64518  -0.63709
 Alpha  occ. eigenvalues --   -0.63541  -0.61762  -0.60732  -0.59722  -0.59306
 Alpha  occ. eigenvalues --   -0.56539  -0.55319  -0.54535  -0.52641  -0.46819
 Alpha  occ. eigenvalues --   -0.46204  -0.44678
 Alpha virt. eigenvalues --   -0.26015  -0.14596  -0.14105  -0.12438  -0.11180
 Alpha virt. eigenvalues --   -0.10058  -0.09290  -0.08038  -0.07904  -0.07492
 Alpha virt. eigenvalues --   -0.07226  -0.07063  -0.05667  -0.05561  -0.05299
 Alpha virt. eigenvalues --   -0.04013  -0.03658  -0.03211  -0.03120  -0.02128
 Alpha virt. eigenvalues --   -0.01460  -0.00911   0.00209   0.00511   0.00633
 Alpha virt. eigenvalues --    0.01101   0.01445   0.01974   0.02135   0.02399
 Alpha virt. eigenvalues --    0.02458   0.02670   0.02781   0.03306   0.03384
 Alpha virt. eigenvalues --    0.04168   0.04354   0.04900   0.05181   0.05457
 Alpha virt. eigenvalues --    0.05731   0.06233   0.06869   0.06999   0.07296
 Alpha virt. eigenvalues --    0.07836   0.07939   0.08247   0.08834   0.09043
 Alpha virt. eigenvalues --    0.09399   0.09643   0.09883   0.10549   0.11171
 Alpha virt. eigenvalues --    0.11313   0.12075   0.12223   0.12937   0.13188
 Alpha virt. eigenvalues --    0.13197   0.13336   0.14427   0.14670   0.16069
 Alpha virt. eigenvalues --    0.16223   0.16541   0.17383   0.17658   0.18086
 Alpha virt. eigenvalues --    0.18290   0.18892   0.19221   0.19703   0.20459
 Alpha virt. eigenvalues --    0.21145   0.21697   0.22259   0.23237   0.24095
 Alpha virt. eigenvalues --    0.24435   0.24835   0.25525   0.26901   0.27887
 Alpha virt. eigenvalues --    0.28945   0.29082   0.30388   0.31573   0.36071
 Alpha virt. eigenvalues --    0.36872   0.38357   0.38926   0.40899   0.41486
 Alpha virt. eigenvalues --    0.42191   0.42379   0.42880   0.43845   0.44239
 Alpha virt. eigenvalues --    0.44506   0.45069   0.46471   0.47731   0.48414
 Alpha virt. eigenvalues --    0.48531   0.48617   0.48859   0.50289   0.50707
 Alpha virt. eigenvalues --    0.51231   0.51997   0.52454   0.52859   0.54087
 Alpha virt. eigenvalues --    0.54270   0.54739   0.55586   0.56318   0.58151
 Alpha virt. eigenvalues --    0.58624   0.59223   0.61310   0.61632   0.62332
 Alpha virt. eigenvalues --    0.63387   0.63609   0.65236   0.65942   0.67128
 Alpha virt. eigenvalues --    0.69703   0.70841   0.71396   0.72672   0.72742
 Alpha virt. eigenvalues --    0.74728   0.75743   0.76245   0.76742   0.77147
 Alpha virt. eigenvalues --    0.77775   0.78203   0.78493   0.80061   0.80928
 Alpha virt. eigenvalues --    0.81415   0.81745   0.82415   0.83653   0.85062
 Alpha virt. eigenvalues --    0.86256   0.87589   0.88298   0.89357   0.90717
 Alpha virt. eigenvalues --    0.91331   0.92268   0.92967   0.94022   0.95714
 Alpha virt. eigenvalues --    0.97396   0.99941   1.00680   1.02161   1.02875
 Alpha virt. eigenvalues --    1.03137   1.04999   1.06892   1.07501   1.08824
 Alpha virt. eigenvalues --    1.20132   1.21830   1.25399   1.26667   1.29098
 Alpha virt. eigenvalues --    1.29843   1.32110   1.33689   1.35327   1.36106
 Alpha virt. eigenvalues --    1.38384   1.40054   1.41905   1.42928   1.43369
 Alpha virt. eigenvalues --    1.43926   1.43981   1.45493   1.47515   1.47944
 Alpha virt. eigenvalues --    1.49238   1.49559   1.51861   1.54220   1.55069
 Alpha virt. eigenvalues --    1.55618   1.56390   1.58377   1.59928   1.61452
 Alpha virt. eigenvalues --    1.61979   1.62265   1.64865   1.66073   1.67600
 Alpha virt. eigenvalues --    1.68564   1.69233   1.70632   1.74199   1.76376
 Alpha virt. eigenvalues --    1.76976   1.78087   1.78855   1.80841   1.82268
 Alpha virt. eigenvalues --    1.82586   1.83024   1.84252   1.84669   1.85071
 Alpha virt. eigenvalues --    1.85578   1.85939   1.86563   1.89379   1.91723
 Alpha virt. eigenvalues --    1.91808   1.95351   1.95592   1.96791   2.00655
 Alpha virt. eigenvalues --    2.00981   2.03111   2.04875   2.07140   2.11692
 Alpha virt. eigenvalues --    2.12330   2.15025   2.16624   2.18596   2.22664
 Alpha virt. eigenvalues --    2.25973   2.26147   2.27415   2.33870   2.35942
 Alpha virt. eigenvalues --    2.36733   2.38189   2.41218   2.42801   2.43963
 Alpha virt. eigenvalues --    2.46592   2.47127   2.48754   2.53787   2.54376
 Alpha virt. eigenvalues --    2.55976   2.56737   2.58551   2.59067   2.59491
 Alpha virt. eigenvalues --    2.61037   2.62269   2.62462   2.63472   2.64694
 Alpha virt. eigenvalues --    2.65155   2.65394   2.65809   2.67129   2.68195
 Alpha virt. eigenvalues --    2.69360   2.70632   2.71973   2.73809   2.75479
 Alpha virt. eigenvalues --    2.76421   2.77039   2.80142   2.83730   2.87160
 Alpha virt. eigenvalues --    2.88415   2.91372   2.92848   2.96794   2.98298
 Alpha virt. eigenvalues --    3.02769   3.06601   3.08587   3.10707   3.18860
 Alpha virt. eigenvalues --    3.20922   3.23326   3.25729   3.29519   3.33444
 Alpha virt. eigenvalues --    3.34762   3.36333   3.39332   3.40141   3.49187
 Alpha virt. eigenvalues --    3.51586   3.56927   3.59026   3.63534   3.71889
 Alpha virt. eigenvalues --    3.75032   3.89498   3.90874   3.98279   4.00878
 Alpha virt. eigenvalues --    4.01954   4.03636   4.10027   4.13792   4.36936
 Alpha virt. eigenvalues --    4.63667   4.67462   4.74204  23.44198  23.60514
 Alpha virt. eigenvalues --   23.80240  23.82495  23.87687  23.91168  23.93286
 Alpha virt. eigenvalues --   23.94080  23.96164  23.98740  24.01924  24.10225
 Alpha virt. eigenvalues --   24.11370  24.26179
          Condensed to atoms (all electrons):
               1          2          3          4          5          6
     1  C    9.269061   0.142999  -0.383023   2.181867  -0.165680  -0.108010
     2  C    0.142999   7.401970   0.445001  -1.080312   0.028901  -0.014854
     3  C   -0.383023   0.445001   6.854307   0.654378  -0.172053   0.018942
     4  C    2.181867  -1.080312   0.654378  11.161126  -0.370994  -0.092321
     5  C   -0.165680   0.028901  -0.172053  -0.370994  11.710032   0.483066
     6  C   -0.108010  -0.014854   0.018942  -0.092321   0.483066   6.574683
     7  C    0.002011  -0.001609  -0.013776  -0.061546  -1.019084   0.331351
     8  C    0.438164  -0.011793  -0.099721  -0.015040   2.235050  -0.782269
     9  C   -1.029250  -0.968308   0.331917  -0.559030   0.152354   0.319130
    10  C   -1.640188   0.245733  -0.489171  -2.635765  -2.474610  -0.236000
    11  C    0.660806  -1.238191   0.989112  -0.380234  -1.605107  -0.135275
    12  C   -2.869333   1.573367  -1.740372  -1.152404  -0.270517  -0.237799
    13  C    0.430333  -0.269078  -0.176564  -1.549513  -0.560162   1.131525
    14  C   -1.435135  -0.161764  -0.129210  -0.442838  -2.367462  -1.128665
    15  H    0.370643  -0.099377  -0.008583   0.024242   0.003940   0.000936
    16  H   -0.017184   0.391797  -0.020390   0.016397  -0.001188  -0.000253
    17  H   -0.031759  -0.010287   0.384493  -0.066572  -0.000441   0.000277
    18  H    0.049704  -0.009647  -0.089877   0.475015   0.012181  -0.004398
    19  H   -0.041876  -0.011566   0.058405  -0.049357  -0.101842   0.052807
    20  H    0.005404   0.002688  -0.005264   0.003680   0.450243  -0.082754
    21  H   -0.001286  -0.000318   0.000452   0.000280  -0.075772   0.382610
    22  H    0.000752   0.000365  -0.000313  -0.001919   0.008355  -0.015349
    23  H    0.007343  -0.002419   0.001341   0.007377   0.025722  -0.006992
    24  H    0.023170   0.008934   0.002479  -0.013024  -0.013654   0.004357
    25  H    0.070248   0.025431  -0.007104  -0.018329  -0.011150  -0.005905
               7          8          9         10         11         12
     1  C    0.002011   0.438164  -1.029250  -1.640188   0.660806  -2.869333
     2  C   -0.001609  -0.011793  -0.968308   0.245733  -1.238191   1.573367
     3  C   -0.013776  -0.099721   0.331917  -0.489171   0.989112  -1.740372
     4  C   -0.061546  -0.015040  -0.559030  -2.635765  -0.380234  -1.152404
     5  C   -1.019084   2.235050   0.152354  -2.474610  -1.605107  -0.270517
     6  C    0.331351  -0.782269   0.319130  -0.236000  -0.135275  -0.237799
     7  C    7.006779   0.317805  -0.737365   0.204842  -0.262119  -0.233285
     8  C    0.317805   8.812776  -1.038419  -1.255941   0.137342  -0.830359
     9  C   -0.737365  -1.038419   9.779642   0.215976   1.608868  -2.193558
    10  C    0.204842  -1.255941   0.215976   9.351062  -0.685848   2.519785
    11  C   -0.262119   0.137342   1.608868  -0.685848  13.793145  -2.907299
    12  C   -0.233285  -0.830359  -2.193558   2.519785  -2.907299  16.199074
    13  C   -0.575394  -0.367479   1.668339  -0.542863   0.686559  -5.077362
    14  C    1.177789  -2.044875  -2.171748   2.853758  -4.088413   2.792271
    15  H   -0.002011   0.005295   0.084345  -0.004472  -0.027234  -0.001864
    16  H    0.000174   0.000690  -0.002808  -0.011548   0.008021  -0.020158
    17  H   -0.000307  -0.001375  -0.005206   0.018309  -0.023782   0.081963
    18  H    0.001636   0.008060  -0.027515   0.019022   0.000671  -0.047270
    19  H   -0.005017  -0.054061   0.076786   0.410059   0.085695  -0.098154
    20  H   -0.000790   0.053497  -0.019341   0.020812  -0.013100  -0.007962
    21  H   -0.022412  -0.031721  -0.003208   0.022815  -0.003199   0.003856
    22  H    0.376458  -0.021022   0.005010  -0.008620   0.001574  -0.008574
    23  H   -0.088579   0.348322   0.091892  -0.008761   0.005142   0.008857
    24  H    0.016889   0.016241   0.370882   0.006308  -0.009327  -0.061298
    25  H    0.017251   0.063052   0.349384  -0.001315   0.009057  -0.070287
              13         14         15         16         17         18
     1  C    0.430333  -1.435135   0.370643  -0.017184  -0.031759   0.049704
     2  C   -0.269078  -0.161764  -0.099377   0.391797  -0.010287  -0.009647
     3  C   -0.176564  -0.129210  -0.008583  -0.020390   0.384493  -0.089877
     4  C   -1.549513  -0.442838   0.024242   0.016397  -0.066572   0.475015
     5  C   -0.560162  -2.367462   0.003940  -0.001188  -0.000441   0.012181
     6  C    1.131525  -1.128665   0.000936  -0.000253   0.000277  -0.004398
     7  C   -0.575394   1.177789  -0.002011   0.000174  -0.000307   0.001636
     8  C   -0.367479  -2.044875   0.005295   0.000690  -0.001375   0.008060
     9  C    1.668339  -2.171748   0.084345  -0.002808  -0.005206  -0.027515
    10  C   -0.542863   2.853758  -0.004472  -0.011548   0.018309   0.019022
    11  C    0.686559  -4.088413  -0.027234   0.008021  -0.023782   0.000671
    12  C   -5.077362   2.792271  -0.001864  -0.020158   0.081963  -0.047270
    13  C   15.443639  -3.579146  -0.005079   0.002531  -0.006031  -0.013142
    14  C   -3.579146  16.279157   0.003608  -0.007589   0.005400  -0.024191
    15  H   -0.005079   0.003608   0.452734  -0.009088   0.001179   0.000109
    16  H    0.002531  -0.007589  -0.009088   0.425759  -0.007376   0.001572
    17  H   -0.006031   0.005400   0.001179  -0.007376   0.427710  -0.009769
    18  H   -0.013142  -0.024191   0.000109   0.001572  -0.009769   0.465931
    19  H    0.075904  -0.025934   0.000379  -0.000625   0.001111  -0.005256
    20  H   -0.010841  -0.076421  -0.000122   0.000017  -0.000116   0.001110
    21  H   -0.014119   0.086179   0.000009  -0.000004   0.000009  -0.000164
    22  H    0.029868  -0.029857  -0.000138   0.000005  -0.000005   0.000013
    23  H   -0.051704  -0.019868   0.000430  -0.000083   0.000019  -0.000114
    24  H    0.030414  -0.045667  -0.000289   0.000232  -0.000074  -0.000003
    25  H    0.010642  -0.095780  -0.002021   0.000792  -0.000278   0.000674
              19         20         21         22         23         24
     1  C   -0.041876   0.005404  -0.001286   0.000752   0.007343   0.023170
     2  C   -0.011566   0.002688  -0.000318   0.000365  -0.002419   0.008934
     3  C    0.058405  -0.005264   0.000452  -0.000313   0.001341   0.002479
     4  C   -0.049357   0.003680   0.000280  -0.001919   0.007377  -0.013024
     5  C   -0.101842   0.450243  -0.075772   0.008355   0.025722  -0.013654
     6  C    0.052807  -0.082754   0.382610  -0.015349  -0.006992   0.004357
     7  C   -0.005017  -0.000790  -0.022412   0.376458  -0.088579   0.016889
     8  C   -0.054061   0.053497  -0.031721  -0.021022   0.348322   0.016241
     9  C    0.076786  -0.019341  -0.003208   0.005010   0.091892   0.370882
    10  C    0.410059   0.020812   0.022815  -0.008620  -0.008761   0.006308
    11  C    0.085695  -0.013100  -0.003199   0.001574   0.005142  -0.009327
    12  C   -0.098154  -0.007962   0.003856  -0.008574   0.008857  -0.061298
    13  C    0.075904  -0.010841  -0.014119   0.029868  -0.051704   0.030414
    14  C   -0.025934  -0.076421   0.086179  -0.029857  -0.019868  -0.045667
    15  H    0.000379  -0.000122   0.000009  -0.000138   0.000430  -0.000289
    16  H   -0.000625   0.000017  -0.000004   0.000005  -0.000083   0.000232
    17  H    0.001111  -0.000116   0.000009  -0.000005   0.000019  -0.000074
    18  H   -0.005256   0.001110  -0.000164   0.000013  -0.000114  -0.000003
    19  H    0.448091  -0.006331   0.001920  -0.000447   0.000176   0.001202
    20  H   -0.006331   0.438719  -0.009117   0.001591   0.000332  -0.000036
    21  H    0.001920  -0.009117   0.420408  -0.005901   0.001114  -0.000008
    22  H   -0.000447   0.001591  -0.005901   0.413382  -0.007400   0.000419
    23  H    0.000176   0.000332   0.001114  -0.007400   0.424431  -0.000504
    24  H    0.001202  -0.000036  -0.000008   0.000419  -0.000504   0.485211
    25  H   -0.000070   0.000338  -0.000211   0.001030  -0.000389  -0.071058
              25
     1  C    0.070248
     2  C    0.025431
     3  C   -0.007104
     4  C   -0.018329
     5  C   -0.011150
     6  C   -0.005905
     7  C    0.017251
     8  C    0.063052
     9  C    0.349384
    10  C   -0.001315
    11  C    0.009057
    12  C   -0.070287
    13  C    0.010642
    14  C   -0.095780
    15  H   -0.002021
    16  H    0.000792
    17  H   -0.000278
    18  H    0.000674
    19  H   -0.000070
    20  H    0.000338
    21  H   -0.000211
    22  H    0.001030
    23  H   -0.000389
    24  H   -0.071058
    25  H    0.495983
 Mulliken charges:
               1
     1  C    0.070220
     2  C   -0.387662
     3  C   -0.405407
     4  C   -0.035163
     5  C    0.099874
     6  C   -0.448839
     7  C   -0.429691
     8  C    0.117779
     9  C   -0.298770
    10  C    0.106622
    11  C   -0.606864
    12  C    0.648683
    13  C   -0.711277
    14  C    0.676401
    15  H    0.212431
    16  H    0.250308
    17  H    0.242905
    18  H    0.195647
    19  H    0.188001
    20  H    0.253764
    21  H    0.247787
    22  H    0.260721
    23  H    0.264313
    24  H    0.248202
    25  H    0.240016
 Sum of Mulliken charges =   1.00000
 Mulliken charges with hydrogens summed into heavy atoms:
               1
     1  C    0.282651
     2  C   -0.137354
     3  C   -0.162502
     4  C    0.160484
     5  C    0.353638
     6  C   -0.201052
     7  C   -0.168970
     8  C    0.382092
     9  C    0.189448
    10  C    0.294622
    11  C   -0.606864
    12  C    0.648683
    13  C   -0.711277
    14  C    0.676401
 Electronic spatial extent (au):  <R**2>=           2847.6293
 Charge=              1.0000 electrons
 Dipole moment (field-independent basis, Debye):
    X=             -0.4734    Y=              0.2134    Z=             -0.0638  Tot=              0.5232
 Quadrupole moment (field-independent basis, Debye-Ang):
   XX=            -30.3543   YY=            -57.0468   ZZ=            -83.8048
   XY=              0.3029   XZ=             -0.1009   YZ=              0.0808
 Traceless Quadrupole moment (field-independent basis, Debye-Ang):
   XX=             26.7143   YY=              0.0218   ZZ=            -26.7362
   XY=              0.3029   XZ=             -0.1009   YZ=              0.0808
 Octapole moment (field-independent basis, Debye-Ang**2):
  XXX=             -0.4841  YYY=              5.2514  ZZZ=              0.3474  XYY=             -5.6329
  XXY=             -3.8467  XXZ=             -5.8946  XZZ=              2.2325  YZZ=             -3.0971
  YYZ=              0.1511  XYZ=             -0.1139
 Hexadecapole moment (field-independent basis, Debye-Ang**3):
 XXXX=          -2103.2177 YYYY=           -603.7675 ZZZZ=            -99.8964 XXXY=              3.7743
 XXXZ=             -2.5632 YYYX=              0.0640 YYYZ=              0.5331 ZZZX=             -0.3542
 ZZZY=             -0.3466 XXYY=           -507.7484 XXZZ=           -588.2390 YYZZ=           -143.9175
 XXYZ=              0.6850 YYXZ=             -0.0317 ZZXY=              0.3505
 N-N= 7.838817927928D+02 E-N=-2.804290912690D+03  KE= 5.378118837769D+02
 Unable to Open any file for archive entry.
 1\1\GINC-GADI-CPU-CLX-0072\SP\RM062X TD-FC\6-311++G(d,p)\C14H11(1+)\TS
 1578\26-Jul-2022\0\\#n M062X/6-311++G(d,p) TD(NStates=1) EmpiricalDisp
 ersion=GD3 SP\\SP_4\\1,1\C,0,2.4927,1.3011,0.008\C,0,3.7015,0.6387,0.0
 6\C,0,3.6839,-0.6941,0.052\C,0,2.4632,-1.3309,0.\C,0,-2.4632,-1.4269,0
 .016\C,0,-3.6839,-0.7341,0.084\C,0,-3.7015,0.6867,0.076\C,0,-2.4927,1.
 4051,0.008\C,0,0.,1.4541,-0.06\C,0,0.,-1.3915,-0.06\C,0,1.2621,0.6827,
 -0.041\C,0,1.2375,-0.7051,-0.053\C,0,-1.2621,0.7067,-0.063\C,0,-1.2375
 ,-0.7211,-0.051\H,0,2.4881,2.3313,0.008\H,0,4.6368,1.1584,0.097\H,0,4.
 6093,-1.2247,0.102\H,0,2.4675,-2.3644,0.\H,0,0.,-2.4766,-0.064\H,0,-2.
 4675,-2.5804,0.016\H,0,-4.6093,-1.3047,0.106\H,0,-4.6368,1.2464,0.111\
 H,0,-2.4881,2.5633,0.008\H,0,0.,2.1105,-0.9196\H,0,0.,2.1105,0.7996\\V
 ersion=ES64L-G16RevC.01\State=1-A\HF=-539.7395317\RMSD=9.894e-09\PG=C0
 1 [X(C14H11)]\\@
 The archive entry for this job was punched.


 LAWS OF PROGRAMMING DEFINITION:  A WORKING PROGRAM
                                  IS ONE THAT HAS
                                  ONLY UNOBSERVED
                                  BUGS.
 Job cpu time:       0 days  1 hours  4 minutes 46.7 seconds.
 Elapsed time:       0 days  0 hours  6 minutes 50.4 seconds.
 File lengths (MBytes):  RWF=    460 Int=      0 D2E=      0 Chk=     15 Scr=      1
 Normal termination of Gaussian 16 at Tue Jul 26 19:37:50 2022.
