 Entering Gaussian System, Link 0=g16
 Initial command:
 /apps/gaussian/g16c01/g16/l1.exe "/jobfs/52716446.gadi-pbs/Gau-1320690.inp" -scrdir="/jobfs/52716446.gadi-pbs/"
 Entering Link 1 = /apps/gaussian/g16c01/g16/l1.exe PID=   1320691.
  
 Copyright (c) 1988-2019, Gaussian, Inc.  All Rights Reserved.
  
 This is part of the Gaussian(R) 16 program.  It is based on
 the Gaussian(R) 09 system (copyright 2009, Gaussian, Inc.),
 the Gaussian(R) 03 system (copyright 2003, Gaussian, Inc.),
 the Gaussian(R) 98 system (copyright 1998, Gaussian, Inc.),
 the Gaussian(R) 94 system (copyright 1995, Gaussian, Inc.),
 the Gaussian 92(TM) system (copyright 1992, Gaussian, Inc.),
 the Gaussian 90(TM) system (copyright 1990, Gaussian, Inc.),
 the Gaussian 88(TM) system (copyright 1988, Gaussian, Inc.),
 the Gaussian 86(TM) system (copyright 1986, Carnegie Mellon
 University), and the Gaussian 82(TM) system (copyright 1983,
 Carnegie Mellon University). Gaussian is a federally registered
 trademark of Gaussian, Inc.
  
 This software contains proprietary and confidential information,
 including trade secrets, belonging to Gaussian, Inc.
  
 This software is provided under written license and may be
 used, copied, transmitted, or stored only in accord with that
 written license.
  
 The following legend is applicable only to US Government
 contracts under FAR:
  
                    RESTRICTED RIGHTS LEGEND
  
 Use, reproduction and disclosure by the US Government is
 subject to restrictions as set forth in subparagraphs (a)
 and (c) of the Commercial Computer Software - Restricted
 Rights clause in FAR 52.227-19.
  
 Gaussian, Inc.
 340 Quinnipiac St., Bldg. 40, Wallingford CT 06492
  
  
 ---------------------------------------------------------------
 Warning -- This program may not be used in any manner that
 competes with the business of Gaussian, Inc. or will provide
 assistance to any competitor of Gaussian, Inc.  The licensee
 of this program is prohibited from giving any competitor of
 Gaussian, Inc. access to this program.  By using this program,
 the user acknowledges that Gaussian, Inc. is engaged in the
 business of creating and licensing software in the field of
 computational chemistry and represents and warrants to the
 licensee that it is not a competitor of Gaussian, Inc. and that
 it will not use this program in any manner prohibited above.
 ---------------------------------------------------------------
  

 Cite this work as:
 Gaussian 16, Revision C.01,
 M. J. Frisch, G. W. Trucks, H. B. Schlegel, G. E. Scuseria, 
 M. A. Robb, J. R. Cheeseman, G. Scalmani, V. Barone, 
 G. A. Petersson, H. Nakatsuji, X. Li, M. Caricato, A. V. Marenich, 
 J. Bloino, B. G. Janesko, R. Gomperts, B. Mennucci, H. P. Hratchian, 
 J. V. Ortiz, A. F. Izmaylov, J. L. Sonnenberg, D. Williams-Young, 
 F. Ding, F. Lipparini, F. Egidi, J. Goings, B. Peng, A. Petrone, 
 T. Henderson, D. Ranasinghe, V. G. Zakrzewski, J. Gao, N. Rega, 
 G. Zheng, W. Liang, M. Hada, M. Ehara, K. Toyota, R. Fukuda, 
 J. Hasegawa, M. Ishida, T. Nakajima, Y. Honda, O. Kitao, H. Nakai, 
 T. Vreven, K. Throssell, J. A. Montgomery, Jr., J. E. Peralta, 
 F. Ogliaro, M. J. Bearpark, J. J. Heyd, E. N. Brothers, K. N. Kudin, 
 V. N. Staroverov, T. A. Keith, R. Kobayashi, J. Normand, 
 K. Raghavachari, A. P. Rendell, J. C. Burant, S. S. Iyengar, 
 J. Tomasi, M. Cossi, J. M. Millam, M. Klene, C. Adamo, R. Cammi, 
 J. W. Ochterski, R. L. Martin, K. Morokuma, O. Farkas, 
 J. B. Foresman, and D. J. Fox, Gaussian, Inc., Wallingford CT, 2019.
 
 ******************************************
 Gaussian 16:  ES64L-G16RevC.01  3-Jul-2019
                26-Jul-2022 
 ******************************************
 %NProcShared=16
 Will use up to   16 processors via shared memory.
 %mem = 64GB
 ---------------------------------------------------------------
 #n M062X/6-311++G(d,p) TD(NStates=1) EmpiricalDispersion=GD3 SP
 ---------------------------------------------------------------
 1/38=1,172=1/1;
 2/12=2,17=6,18=5,40=1/2;
 3/5=4,6=6,7=1111,11=9,25=1,30=1,74=-55,124=31/1,2,3,8;
 4//1;
 5/5=2,38=5/2;
 8/6=1,10=2,108=1/1;
 9/41=1,42=1,70=2/14;
 6/7=2,8=2,9=2,10=2/1;
 99/5=1,9=1/99;
 ----
 SP_4
 ----
 Symbolic Z-matrix:
 Charge =  1 Multiplicity = 1
 C                     2.4927    1.2371    0.008 
 C                     3.7015    0.5667    0.028 
 C                     3.6839   -0.7301   -0.012 
 C                     2.4632   -1.2509   -0.032 
 C                    -2.4632   -1.3469    0.048 
 C                    -3.6839   -0.7701    0.148 
 C                    -3.7015    0.6147    0.108 
 C                    -2.4927    1.3411    0.008 
 C                     0.        1.4221   -0.06 
 C                     0.       -1.2755   -0.06 
 C                     1.2621    0.7187    0.003 
 C                     1.2375   -0.6691   -0.057 
 C                    -1.2621    0.7427   -0.107 
 C                    -1.2375   -0.6851   -0.047 
 H                     2.4881    2.3113    0.008 
 H                     4.6368    1.0864    0.069 
 H                     4.6093   -1.2287    0.094 
 H                     2.4675   -2.3284   -0.032 
 H                     0.       -2.3766   -0.064 
 H                    -2.4675   -2.5444    0.048 
 H                    -4.6093   -1.3087    0.114 
 H                    -4.6368    1.1744    0.139 
 H                    -2.4881    2.5433    0.008 
 H                     0.        1.9345   -0.9196 
 H                     0.        1.9345    0.7996 
 
                          Input orientation:                          
 ---------------------------------------------------------------------
 Center     Atomic      Atomic             Coordinates (Angstroms)
 Number     Number       Type             X           Y           Z
 ---------------------------------------------------------------------
      1          6           0        2.492700    1.237100    0.008000
      2          6           0        3.701500    0.566700    0.028000
      3          6           0        3.683900   -0.730100   -0.012000
      4          6           0        2.463200   -1.250900   -0.032000
      5          6           0       -2.463200   -1.346900    0.048000
      6          6           0       -3.683900   -0.770100    0.148000
      7          6           0       -3.701500    0.614700    0.108000
      8          6           0       -2.492700    1.341100    0.008000
      9          6           0        0.000000    1.422100   -0.060000
     10          6           0        0.000000   -1.275500   -0.060000
     11          6           0        1.262100    0.718700    0.003000
     12          6           0        1.237500   -0.669100   -0.057000
     13          6           0       -1.262100    0.742700   -0.107000
     14          6           0       -1.237500   -0.685100   -0.047000
     15          1           0        2.488100    2.311300    0.008000
     16          1           0        4.636800    1.086400    0.069000
     17          1           0        4.609300   -1.228700    0.094000
     18          1           0        2.467500   -2.328400   -0.032000
     19          1           0        0.000000   -2.376600   -0.064000
     20          1           0       -2.467500   -2.544400    0.048000
     21          1           0       -4.609300   -1.308700    0.114000
     22          1           0       -4.636800    1.174400    0.139000
     23          1           0       -2.488100    2.543300    0.008000
     24          1           0        0.000000    1.934500   -0.919600
     25          1           0        0.000000    1.934500    0.799600
 ---------------------------------------------------------------------
                    Distance matrix (angstroms):
                    1          2          3          4          5
     1  C    0.000000
     2  C    1.382401   0.000000
     3  C    2.299833   1.297536   0.000000
     4  C    2.488496   2.200149   1.327306   0.000000
     5  C    5.589240   6.454904   6.178259   4.927985   0.000000
     6  C    6.496063   7.506368   7.369646   6.168501   1.353812
     7  C    6.226194   7.403588   7.507797   6.442328   2.320530
     8  C    4.986485   6.242452   6.514649   5.592943   2.688459
     9  C    2.500480   3.800073   4.266777   3.634978   3.707611
    10  C    3.539963   4.135523   3.724364   2.463482   2.466600
    11  C    1.335343   2.444259   2.822120   2.307204   4.259881
    12  C    2.283276   2.757847   2.447574   1.357003   3.763724
    13  C    3.788955   4.968554   5.161500   4.225864   2.415180
    14  C    4.196697   5.095719   4.921730   3.743733   1.396189
    15  H    1.074210   2.125175   3.268096   3.562512   6.156249
    16  H    2.150255   1.070773   2.052864   3.193385   7.505424
    17  H    3.250779   2.012938   1.056505   2.149910   7.073637
    18  H    3.565813   3.147691   2.008629   1.077509   5.028076
    19  H    4.390622   4.729966   4.035441   2.708427   2.672112
    20  H    6.237381   6.909117   6.413658   5.098171   1.197508
    21  H    7.545246   8.520206   8.314314   7.074243   2.147454
    22  H    7.130979   8.361152   8.537211   7.504753   3.330131
    23  H    5.149226   6.497576   6.986353   6.238023   3.890485
    24  H    2.749611   4.058316   4.636265   4.123343   4.215589
    25  H    2.706760   4.020864   4.618431   4.111652   4.171312
                    6          7          8          9         10
     6  C    0.000000
     7  C    1.385489   0.000000
     8  C    2.428111   1.413808   0.000000
     9  C    4.291867   3.792258   2.494943   0.000000
    10  C    3.724220   4.159589   3.614522   2.697600   0.000000
    11  C    5.167249   4.965800   3.806039   1.446249   2.360868
    12  C    4.926703   5.105790   4.237868   2.429924   1.378092
    13  C    2.866828   2.452199   1.373202   1.434116   2.380806
    14  C    2.455631   2.790126   2.384122   2.443740   1.371185
    15  H    6.899870   6.418691   5.074412   2.643093   4.365822
    16  H    8.525660   8.351723   7.134309   4.650726   5.205298
    17  H    8.306046   8.512797   7.553123   5.319408   4.612109
    18  H    6.348261   6.836519   6.170123   4.489498   2.682897
    19  H    4.024538   4.762201   4.476609   3.798702   1.101107
    20  H    2.153548   3.392089   3.885788   4.672616   2.776748
    21  H    1.071266   2.126877   3.393033   5.360335   4.612703
    22  H    2.165451   1.090418   2.154557   4.647674   5.248002
    23  H    3.525359   2.280754   1.202209   2.729900   4.558344
    24  H    4.693160   4.061888   2.725091   1.000733   3.323103
    25  H    4.616337   3.990148   2.681848   1.000733   3.323103
                   11         12         13         14         15
    11  C    0.000000
    12  C    1.389314   0.000000
    13  C    2.526710   2.871181   0.000000
    14  C    2.867256   2.475072   1.429272   0.000000
    15  H    2.009845   3.232802   4.066661   4.781374   0.000000
    16  H    3.395314   3.827910   5.911525   6.136699   2.474068
    17  H    3.873551   3.421255   6.196786   5.873709   4.127770
    18  H    3.277046   2.065624   4.831894   4.053108   4.639918
    19  H    3.343392   2.108794   3.365231   2.095917   5.307752
    20  H    4.955781   4.153890   3.504574   2.231350   6.938112
    21  H    6.212569   5.884165   3.932026   3.432759   7.967981
    22  H    5.918039   6.159895   3.411082   3.879121   7.216225
    23  H    4.170514   4.919739   2.181390   3.462599   4.981605
    24  H    1.980469   3.009023   1.916664   3.025746   2.681988
    25  H    1.925003   3.007308   1.958369   3.018351   2.638039
                   16         17         18         19         20
    16  H    0.000000
    17  H    2.315398   0.000000
    18  H    4.046841   2.410918   0.000000
    19  H    5.788780   4.752713   2.468178   0.000000
    20  H    7.978360   7.198214   4.940373   2.475734   0.000000
    21  H    9.551382   9.218969   7.151378   4.734738   2.473584
    22  H    9.274282   9.553391   7.922747   5.843862   4.306230
    23  H    7.272584   8.037939   6.949319   5.513732   5.087899
    24  H    4.816276   5.681449   5.004868   4.395183   5.204359
    25  H    4.770007   5.634656   4.995241   4.396747   5.168559
                   21         22         23         24         25
    21  H    0.000000
    22  H    2.483378   0.000000
    23  H    4.398708   2.551070   0.000000
    24  H    5.729950   4.816461   2.724284   0.000000
    25  H    5.677503   4.744898   2.681028   1.719200   0.000000
 Stoichiometry    C14H11(1+)
 Framework group  C1[X(C14H11)]
 Deg. of freedom    69
 Full point group                 C1      NOp   1
 Largest Abelian subgroup         C1      NOp   1
 Largest concise Abelian subgroup C1      NOp   1
                         Standard orientation:                         
 ---------------------------------------------------------------------
 Center     Atomic      Atomic             Coordinates (Angstroms)
 Number     Number       Type             X           Y           Z
 ---------------------------------------------------------------------
      1          6           0        2.491353   -1.232058   -0.035950
      2          6           0        3.700509   -0.562691   -0.066316
      3          6           0        3.684529    0.733998   -0.022248
      4          6           0        2.464584    1.255836    0.011813
      5          6           0       -2.462286    1.356518   -0.017450
      6          6           0       -3.684483    0.781122   -0.106675
      7          6           0       -3.702963   -0.603775   -0.070650
      8          6           0       -2.493881   -1.331562    0.014787
      9          6           0       -0.000692   -1.415014    0.057016
     10          6           0        0.001823    1.282572    0.065107
     11          6           0        1.261352   -0.712566   -0.016794
     12          6           0        1.238662    0.675069    0.047617
     13          6           0       -1.261611   -0.734621    0.118975
     14          6           0       -1.236295    0.693330    0.063009
     15          1           0        2.485751   -2.306249   -0.039125
     16          1           0        4.634855   -1.083108   -0.118450
     17          1           0        4.609260    1.232080   -0.136222
     18          1           0        2.469888    2.333327    0.015001
     19          1           0        0.002891    2.383655    0.072410
     20          1           0       -2.465469    2.554016   -0.013814
     21          1           0       -4.608984    1.320452   -0.061585
     22          1           0       -4.639053   -1.162536   -0.093750
     23          1           0       -2.490402   -2.533761    0.011134
     24          1           0        0.007630   -1.929998    0.915030
     25          1           0       -0.009970   -1.924825   -0.804072
 ---------------------------------------------------------------------
 Rotational constants (GHZ):           2.3491967           0.4443036           0.3748371
 Standard basis: 6-311++G(d,p) (5D, 7F)
 There are   399 symmetry adapted cartesian basis functions of A   symmetry.
 There are   385 symmetry adapted basis functions of A   symmetry.
   385 basis functions,   603 primitive gaussians,   399 cartesian basis functions
    47 alpha electrons       47 beta electrons
       nuclear repulsion energy       795.1731919564 Hartrees.
 NAtoms=   25 NActive=   25 NUniq=   25 SFac= 1.00D+00 NAtFMM=   60 NAOKFM=F Big=F
 Integral buffers will be    131072 words long.
 Regular integral format.
 Two-electron integral symmetry is turned on.
 Nuclear repulsion after empirical dispersion term =      795.1722396224 Hartrees.
 One-electron integrals computed using PRISM.
 NBasis=   385 RedAO= T EigKep=  1.07D-06  NBF=   385
 NBsUse=   380 1.00D-06 EigRej=  7.00D-07 NBFU=   380
 ExpMin= 3.60D-02 ExpMax= 4.56D+03 ExpMxC= 6.82D+02 IAcc=3 IRadAn=         5 AccDes= 0.00D+00
 Harris functional with IExCor= 1009 and IRadAn=       5 diagonalized for initial guess.
 HarFok:  IExCor= 1009 AccDes= 0.00D+00 IRadAn=         5 IDoV= 1 UseB2=F ITyADJ=14
 ICtDFT=  3500011 ScaDFX=  1.000000  1.000000  1.000000  1.000000
 FoFCou: FMM=F IPFlag=           0 FMFlag=      100000 FMFlg1=           0
         NFxFlg=           0 DoJE=T BraDBF=F KetDBF=T FulRan=T
         wScrn=  0.000000 ICntrl=       500 IOpCl=  0 I1Cent=   200000004 NGrid=           0
         NMat0=    1 NMatS0=      1 NMatT0=    0 NMatD0=    1 NMtDS0=    0 NMtDT0=    0
 Petite list used in FoFCou.
 Requested convergence on RMS density matrix=1.00D-08 within 128 cycles.
 Requested convergence on MAX density matrix=1.00D-06.
 Requested convergence on             energy=1.00D-06.
 No special actions if energy rises.
 SCF Done:  E(RM062X) =  -539.669984608     A.U. after   16 cycles
            NFock= 16  Conv=0.35D-08     -V/T= 2.0013
 DoSCS=F DFT=T ScalE2(SS,OS)=  1.000000  1.000000
 ExpMin= 3.60D-02 ExpMax= 4.56D+03 ExpMxC= 6.82D+02 IAcc=3 IRadAn=         5 AccDes= 0.00D+00
 HarFok:  IExCor=  205 AccDes= 0.00D+00 IRadAn=         5 IDoV=-2 UseB2=F ITyADJ=14
 ICtDFT= 12500011 ScaDFX=  1.000000  1.000000  1.000000  1.000000
 Range of M.O.s used for correlation:    15   380
 NBasis=   385 NAE=    47 NBE=    47 NFC=    14 NFV=     0
 NROrb=    366 NOA=    33 NOB=    33 NVA=   333 NVB=   333

 **** Warning!!: The largest alpha MO coefficient is  0.16020548D+03

 Orbital symmetries:
       Occupied  (A) (A) (A) (A) (A) (A) (A) (A) (A) (A) (A) (A)
                 (A) (A) (A) (A) (A) (A) (A) (A) (A) (A) (A) (A)
                 (A) (A) (A) (A) (A) (A) (A) (A) (A) (A) (A) (A)
                 (A) (A) (A) (A) (A) (A) (A) (A) (A) (A) (A)
       Virtual   (A) (A) (A) (A) (A) (A) (A) (A) (A) (A) (A) (A)
                 (A) (A) (A) (A) (A) (A) (A) (A) (A) (A) (A) (A)
                 (A) (A) (A) (A) (A) (A) (A) (A) (A) (A) (A) (A)
                 (A) (A) (A) (A) (A) (A) (A) (A) (A) (A) (A) (A)
                 (A) (A) (A) (A) (A) (A) (A) (A) (A) (A) (A) (A)
                 (A) (A) (A) (A) (A) (A) (A) (A) (A) (A) (A) (A)
                 (A) (A) (A) (A) (A) (A) (A) (A) (A) (A) (A) (A)
                 (A) (A) (A) (A) (A) (A) (A) (A) (A) (A) (A) (A)
                 (A) (A) (A) (A) (A) (A) (A) (A) (A) (A) (A) (A)
                 (A) (A) (A) (A) (A) (A) (A) (A) (A) (A) (A) (A)
                 (A) (A) (A) (A) (A) (A) (A) (A) (A) (A) (A) (A)
                 (A) (A) (A) (A) (A) (A) (A) (A) (A) (A) (A) (A)
                 (A) (A) (A) (A) (A) (A) (A) (A) (A) (A) (A) (A)
                 (A) (A) (A) (A) (A) (A) (A) (A) (A) (A) (A) (A)
                 (A) (A) (A) (A) (A) (A) (A) (A) (A) (A) (A) (A)
                 (A) (A) (A) (A) (A) (A) (A) (A) (A) (A) (A) (A)
                 (A) (A) (A) (A) (A) (A) (A) (A) (A) (A) (A) (A)
                 (A) (A) (A) (A) (A) (A) (A) (A) (A) (A) (A) (A)
                 (A) (A) (A) (A) (A) (A) (A) (A) (A) (A) (A) (A)
                 (A) (A) (A) (A) (A) (A) (A) (A) (A) (A) (A) (A)
                 (A) (A) (A) (A) (A) (A) (A) (A) (A) (A) (A) (A)
                 (A) (A) (A) (A) (A) (A) (A) (A) (A) (A) (A) (A)
                 (A) (A) (A) (A) (A) (A) (A) (A) (A) (A) (A) (A)
                 (A) (A) (A) (A) (A) (A) (A) (A) (A) (A) (A) (A)
                 (A) (A) (A) (A) (A) (A) (A) (A) (A) (A) (A) (A)
                 (A) (A) (A) (A) (A) (A) (A) (A) (A) (A) (A) (A)
                 (A) (A) (A) (A) (A) (A) (A) (A) (A) (A) (A) (A)
                 (A) (A) (A) (A) (A) (A) (A) (A) (A)
     4 initial guesses have been made.
 Convergence on wavefunction:    0.001000000000000
 Iteration     1 Dimension     4 NMult     0 NNew      4
 CISAX will form     4 AO SS matrices at one time.
 Iteration     2 Dimension     6 NMult     4 NNew      2
 Iteration     3 Dimension     8 NMult     6 NNew      2
 Iteration     4 Dimension    10 NMult     8 NNew      2
 Iteration     5 Dimension    12 NMult    10 NNew      2
 Iteration     6 Dimension    14 NMult    12 NNew      2
 ***********************************************************************
 Excited states from <AA,BB:AA,BB> singles matrix:
 ***********************************************************************
 
 Ground to excited state transition densities written to RWF  633
 Ground to excited state transition electric dipole moments (Au):
       state          X           Y           Z        Dip. S.      Osc.
         1        -0.3784     -0.5821      0.0232      0.4826      0.0375
 Ground to excited state transition velocity dipole moments (Au):
       state          X           Y           Z        Dip. S.      Osc.
         1         0.0447      0.0757     -0.0026      0.0077      0.0443
 Ground to excited state transition magnetic dipole moments (Au):
       state          X           Y           Z
         1         0.0428     -0.0190     -0.2411
 Ground to excited state transition velocity quadrupole moments (Au):
       state          XX          YY          ZZ          XY          XZ          YZ
         1         0.3231      0.0438     -0.0078     -0.0116      0.0058      0.0091
 <0|del|b> * <b|rxdel|0> + <0|del|b> * <b|delr+rdel|0>
 Rotatory Strengths (R) in cgs (10**-40 erg-esu-cm/Gauss)
       state          XX          YY          ZZ    R(velocity)    E-M Angle
         1        -3.6513      8.8875      1.5411      2.2591       87.04
 1/2[<0|r|b>*<b|rxdel|0> + (<0|rxdel|b>*<b|r|0>)*]
 Rotatory Strengths (R) in cgs (10**-40 erg-esu-cm/Gauss)
       state          XX          YY          ZZ     R(length)
         1        11.4460     -7.8041      3.9644      2.5355
  1/2[<0|del|b>*<b|r|0> + (<0|r|b>*<b|del|0>)*] (Au)
       state          X           Y           Z        Dip. S.   Osc.(frdel)
         1        -0.0169     -0.0441     -0.0001      0.0610      0.0407

 Excitation energies and oscillator strengths:
 
 Excited State   1:      Singlet-A      3.1677 eV  391.40 nm  f=0.0375  <S**2>=0.000
      46 -> 48         0.23187
      47 -> 48         0.66408
 This state for optimization and/or second-order correction.
 Total Energy, E(TD-HF/TD-DFT) =  -539.553574380    
 Copying the excited state density for this state as the 1-particle RhoCI density.
 SavETr:  write IOETrn=   770 NScale= 10 NData=  16 NLR=1 NState=    1 LETran=      28.

 **********************************************************************

            Population analysis using the SCF Density.

 **********************************************************************

 Orbital symmetries:
       Occupied  (A) (A) (A) (A) (A) (A) (A) (A) (A) (A) (A) (A)
                 (A) (A) (A) (A) (A) (A) (A) (A) (A) (A) (A) (A)
                 (A) (A) (A) (A) (A) (A) (A) (A) (A) (A) (A) (A)
                 (A) (A) (A) (A) (A) (A) (A) (A) (A) (A) (A)
       Virtual   (A) (A) (A) (A) (A) (A) (A) (A) (A) (A) (A) (A)
                 (A) (A) (A) (A) (A) (A) (A) (A) (A) (A) (A) (A)
                 (A) (A) (A) (A) (A) (A) (A) (A) (A) (A) (A) (A)
                 (A) (A) (A) (A) (A) (A) (A) (A) (A) (A) (A) (A)
                 (A) (A) (A) (A) (A) (A) (A) (A) (A) (A) (A) (A)
                 (A) (A) (A) (A) (A) (A) (A) (A) (A) (A) (A) (A)
                 (A) (A) (A) (A) (A) (A) (A) (A) (A) (A) (A) (A)
                 (A) (A) (A) (A) (A) (A) (A) (A) (A) (A) (A) (A)
                 (A) (A) (A) (A) (A) (A) (A) (A) (A) (A) (A) (A)
                 (A) (A) (A) (A) (A) (A) (A) (A) (A) (A) (A) (A)
                 (A) (A) (A) (A) (A) (A) (A) (A) (A) (A) (A) (A)
                 (A) (A) (A) (A) (A) (A) (A) (A) (A) (A) (A) (A)
                 (A) (A) (A) (A) (A) (A) (A) (A) (A) (A) (A) (A)
                 (A) (A) (A) (A) (A) (A) (A) (A) (A) (A) (A) (A)
                 (A) (A) (A) (A) (A) (A) (A) (A) (A) (A) (A) (A)
                 (A) (A) (A) (A) (A) (A) (A) (A) (A) (A) (A) (A)
                 (A) (A) (A) (A) (A) (A) (A) (A) (A) (A) (A) (A)
                 (A) (A) (A) (A) (A) (A) (A) (A) (A) (A) (A) (A)
                 (A) (A) (A) (A) (A) (A) (A) (A) (A) (A) (A) (A)
                 (A) (A) (A) (A) (A) (A) (A) (A) (A) (A) (A) (A)
                 (A) (A) (A) (A) (A) (A) (A) (A) (A) (A) (A) (A)
                 (A) (A) (A) (A) (A) (A) (A) (A) (A) (A) (A) (A)
                 (A) (A) (A) (A) (A) (A) (A) (A) (A) (A) (A) (A)
                 (A) (A) (A) (A) (A) (A) (A) (A) (A) (A) (A) (A)
                 (A) (A) (A) (A) (A) (A) (A) (A) (A) (A) (A) (A)
                 (A) (A) (A) (A) (A) (A) (A) (A) (A) (A) (A) (A)
                 (A) (A) (A) (A) (A) (A) (A) (A) (A) (A) (A) (A)
                 (A) (A) (A) (A) (A) (A) (A) (A) (A)
 The electronic state is 1-A.
 Alpha  occ. eigenvalues --  -10.76349 -10.73108 -10.72471 -10.72310 -10.72200
 Alpha  occ. eigenvalues --  -10.71231 -10.71116 -10.70907 -10.70036 -10.69843
 Alpha  occ. eigenvalues --  -10.69701 -10.68523 -10.68219 -10.67659  -1.18617
 Alpha  occ. eigenvalues --   -1.14640  -1.09327  -1.07234  -1.02903  -1.01189
 Alpha  occ. eigenvalues --   -0.96732  -0.93092  -0.87218  -0.85920  -0.83680
 Alpha  occ. eigenvalues --   -0.79652  -0.77753  -0.74114  -0.73072  -0.72100
 Alpha  occ. eigenvalues --   -0.69505  -0.68502  -0.66931  -0.66231  -0.62635
 Alpha  occ. eigenvalues --   -0.62276  -0.61672  -0.61522  -0.60794  -0.59883
 Alpha  occ. eigenvalues --   -0.57382  -0.54936  -0.53438  -0.51824  -0.48182
 Alpha  occ. eigenvalues --   -0.46301  -0.45589
 Alpha virt. eigenvalues --   -0.25821  -0.14529  -0.13308  -0.11706  -0.11172
 Alpha virt. eigenvalues --   -0.09872  -0.09446  -0.08294  -0.08107  -0.07456
 Alpha virt. eigenvalues --   -0.07202  -0.06757  -0.05673  -0.05494  -0.05156
 Alpha virt. eigenvalues --   -0.04243  -0.03987  -0.03109  -0.03003  -0.01987
 Alpha virt. eigenvalues --   -0.01866  -0.00856   0.00256   0.00463   0.00545
 Alpha virt. eigenvalues --    0.01226   0.01331   0.01957   0.02116   0.02248
 Alpha virt. eigenvalues --    0.02606   0.02951   0.03058   0.03101   0.03427
 Alpha virt. eigenvalues --    0.04157   0.04310   0.04811   0.05085   0.05359
 Alpha virt. eigenvalues --    0.05717   0.06285   0.06467   0.06726   0.07347
 Alpha virt. eigenvalues --    0.07601   0.08041   0.08240   0.08824   0.09126
 Alpha virt. eigenvalues --    0.09398   0.09806   0.10037   0.10149   0.10777
 Alpha virt. eigenvalues --    0.11448   0.11946   0.12321   0.12370   0.12800
 Alpha virt. eigenvalues --    0.13160   0.13681   0.13701   0.15020   0.15086
 Alpha virt. eigenvalues --    0.15908   0.16456   0.17639   0.18035   0.18228
 Alpha virt. eigenvalues --    0.18793   0.19206   0.19780   0.20015   0.20164
 Alpha virt. eigenvalues --    0.20726   0.21643   0.22012   0.22994   0.23133
 Alpha virt. eigenvalues --    0.24326   0.24959   0.25515   0.26373   0.28010
 Alpha virt. eigenvalues --    0.28682   0.29391   0.29625   0.32599   0.32977
 Alpha virt. eigenvalues --    0.37913   0.38349   0.38914   0.39457   0.40494
 Alpha virt. eigenvalues --    0.41484   0.42065   0.42446   0.43594   0.43938
 Alpha virt. eigenvalues --    0.44814   0.45061   0.45694   0.47338   0.48019
 Alpha virt. eigenvalues --    0.48190   0.48412   0.49135   0.50308   0.50682
 Alpha virt. eigenvalues --    0.51034   0.51308   0.52474   0.52714   0.53021
 Alpha virt. eigenvalues --    0.53703   0.53997   0.56095   0.56515   0.56687
 Alpha virt. eigenvalues --    0.58444   0.59118   0.60160   0.61638   0.61863
 Alpha virt. eigenvalues --    0.63741   0.63823   0.64634   0.66498   0.67330
 Alpha virt. eigenvalues --    0.67529   0.68380   0.70010   0.71311   0.72292
 Alpha virt. eigenvalues --    0.72686   0.74445   0.74855   0.76120   0.76442
 Alpha virt. eigenvalues --    0.76934   0.77870   0.78327   0.78892   0.79652
 Alpha virt. eigenvalues --    0.81209   0.81978   0.82567   0.82673   0.83421
 Alpha virt. eigenvalues --    0.84343   0.84941   0.86641   0.88098   0.88560
 Alpha virt. eigenvalues --    0.90128   0.91432   0.93651   0.95388   0.95527
 Alpha virt. eigenvalues --    0.96775   0.97948   0.99145   1.02102   1.02981
 Alpha virt. eigenvalues --    1.04151   1.05209   1.06876   1.08362   1.09813
 Alpha virt. eigenvalues --    1.12664   1.22224   1.23657   1.25421   1.29328
 Alpha virt. eigenvalues --    1.30246   1.31672   1.33352   1.33696   1.35002
 Alpha virt. eigenvalues --    1.36483   1.37326   1.42148   1.43221   1.43892
 Alpha virt. eigenvalues --    1.44556   1.45137   1.47148   1.47896   1.49205
 Alpha virt. eigenvalues --    1.49620   1.51161   1.51951   1.53298   1.55280
 Alpha virt. eigenvalues --    1.56218   1.57595   1.59330   1.60117   1.61087
 Alpha virt. eigenvalues --    1.61570   1.61913   1.63123   1.64388   1.66398
 Alpha virt. eigenvalues --    1.67963   1.68756   1.71322   1.72254   1.73152
 Alpha virt. eigenvalues --    1.76925   1.77653   1.79016   1.81843   1.82478
 Alpha virt. eigenvalues --    1.82742   1.83885   1.84684   1.85527   1.85998
 Alpha virt. eigenvalues --    1.86546   1.87323   1.87730   1.90435   1.92221
 Alpha virt. eigenvalues --    1.92906   1.93890   1.96533   1.97887   1.99772
 Alpha virt. eigenvalues --    2.03298   2.04192   2.06452   2.08701   2.11327
 Alpha virt. eigenvalues --    2.12024   2.15659   2.17768   2.18438   2.23107
 Alpha virt. eigenvalues --    2.25020   2.26472   2.28992   2.29736   2.35094
 Alpha virt. eigenvalues --    2.36723   2.39674   2.40004   2.42468   2.43303
 Alpha virt. eigenvalues --    2.44985   2.46562   2.52507   2.53508   2.56840
 Alpha virt. eigenvalues --    2.57206   2.57984   2.59212   2.59894   2.60221
 Alpha virt. eigenvalues --    2.61582   2.61928   2.63540   2.63989   2.65645
 Alpha virt. eigenvalues --    2.65894   2.66969   2.67673   2.68335   2.68766
 Alpha virt. eigenvalues --    2.70127   2.71819   2.73044   2.76471   2.77691
 Alpha virt. eigenvalues --    2.78052   2.78865   2.80831   2.82041   2.85733
 Alpha virt. eigenvalues --    2.88332   2.89855   2.94912   2.95631   2.99923
 Alpha virt. eigenvalues --    3.01250   3.05173   3.07923   3.11717   3.14809
 Alpha virt. eigenvalues --    3.25290   3.27115   3.28258   3.31727   3.33230
 Alpha virt. eigenvalues --    3.38425   3.39620   3.40367   3.42934   3.45035
 Alpha virt. eigenvalues --    3.52512   3.56575   3.57059   3.59779   3.63465
 Alpha virt. eigenvalues --    3.71914   3.86730   3.88928   3.95433   3.96106
 Alpha virt. eigenvalues --    3.99377   4.01229   4.04441   4.06925   4.12033
 Alpha virt. eigenvalues --    4.38789   4.67768   4.71362   4.75644  23.41214
 Alpha virt. eigenvalues --   23.59653  23.80496  23.85498  23.93737  23.95612
 Alpha virt. eigenvalues --   24.02847  24.03903  24.09606  24.13090  24.15278
 Alpha virt. eigenvalues --   24.20206  24.23528  24.41505
          Condensed to atoms (all electrons):
               1          2          3          4          5          6
     1  C   19.648617   0.107674  -2.529082   2.900838   0.882559   0.007253
     2  C    0.107674   6.992698   0.850599  -0.593684  -0.053653  -0.016705
     3  C   -2.529082   0.850599   8.209052  -0.448898  -0.341418   0.007510
     4  C    2.900838  -0.593684  -0.448898  12.301985  -0.411501  -0.139815
     5  C    0.882559  -0.053653  -0.341418  -0.411501  12.410251   0.292172
     6  C    0.007253  -0.016705   0.007510  -0.139815   0.292172   7.213323
     7  C    0.026102   0.010040  -0.025480  -0.159190  -0.367803   0.500632
     8  C   -0.706734   0.012713   0.046934   0.331734   1.293631  -1.551181
     9  C   -3.489570  -0.421482   0.590351  -1.940218  -1.416312   0.313741
    10  C   -2.131226  -0.082905  -0.918250  -2.830435  -3.703674  -0.757980
    11  C   -4.315621  -0.973071   1.862332  -1.074693  -0.361702   0.147178
    12  C   -7.552421   0.575708  -0.284007   1.091133  -3.195495  -0.699673
    13  C   -0.798514  -0.026084   0.113688  -1.156830  -0.124859   1.352256
    14  C    3.263401  -0.346804  -1.008446  -2.278801   0.594838  -0.577427
    15  H    0.369444  -0.034366  -0.028270   0.025116   0.005135   0.000767
    16  H   -0.004589   0.395017  -0.017280   0.028587  -0.000657  -0.000127
    17  H   -0.104432  -0.005276   0.458757  -0.106376  -0.005255  -0.000163
    18  H    0.143218  -0.034824  -0.165076   0.465574   0.039551  -0.000095
    19  H   -0.116441  -0.005307   0.077408  -0.077129  -0.114599   0.045343
    20  H    0.011555   0.001280  -0.004231   0.015417   0.391547  -0.110212
    21  H    0.001266  -0.000118   0.000114  -0.002485  -0.087565   0.428783
    22  H    0.001351   0.000272  -0.000393  -0.002410   0.026021  -0.017088
    23  H    0.015143  -0.000296   0.001073   0.006229   0.004855  -0.017213
    24  H    0.288335   0.024003  -0.013784  -0.038266   0.010499   0.007033
    25  H   -0.001839   0.037738   0.005496   0.010392  -0.017150  -0.009095
               7          8          9         10         11         12
     1  C    0.026102  -0.706734  -3.489570  -2.131226  -4.315621  -7.552421
     2  C    0.010040   0.012713  -0.421482  -0.082905  -0.973071   0.575708
     3  C   -0.025480   0.046934   0.590351  -0.918250   1.862332  -0.284007
     4  C   -0.159190   0.331734  -1.940218  -2.830435  -1.074693   1.091133
     5  C   -0.367803   1.293631  -1.416312  -3.703674  -0.361702  -3.195495
     6  C    0.500632  -1.551181   0.313741  -0.757980   0.147178  -0.699673
     7  C    6.902062  -0.339806  -0.279187  -0.174130  -0.128445  -0.554423
     8  C   -0.339806  12.779971   0.659665  -0.456890  -0.777024   1.955513
     9  C   -0.279187   0.659665  13.140282   1.204702   1.117070  -0.858179
    10  C   -0.174130  -0.456890   1.204702  13.065539  -2.582241   4.051540
    11  C   -0.128445  -0.777024   1.117070  -2.582241  17.336115  -1.370799
    12  C   -0.554423   1.955513  -0.858179   4.051540  -1.370799  22.922912
    13  C   -0.072516  -2.912523   1.833207  -1.378623  -1.266767  -2.734996
    14  C    0.769759  -4.809977  -4.898991   2.089847  -0.878651  -7.535740
    15  H   -0.001624   0.013538   0.026406   0.001096  -0.096785   0.067646
    16  H   -0.000021  -0.001220  -0.007804  -0.018650  -0.006276  -0.024567
    17  H   -0.000174   0.002027   0.006456   0.006873   0.028714   0.084974
    18  H    0.000717   0.000274  -0.063395   0.097144  -0.033644  -0.123488
    19  H   -0.003021  -0.052699   0.138799   0.428787   0.045684  -0.033942
    20  H   -0.022099   0.071653  -0.032421   0.105090  -0.015452   0.009093
    21  H   -0.027546  -0.062481  -0.000455   0.017409   0.008255  -0.006096
    22  H    0.380496  -0.011608   0.004679  -0.017767  -0.000507  -0.012164
    23  H   -0.041614   0.350980   0.060621   0.006356  -0.000259   0.009565
    24  H    0.035320  -0.134334   0.306182  -0.025335  -0.021797  -0.264071
    25  H    0.016689   0.211878   0.383527  -0.030545  -0.072141   0.050786
              13         14         15         16         17         18
     1  C   -0.798514   3.263401   0.369444  -0.004589  -0.104432   0.143218
     2  C   -0.026084  -0.346804  -0.034366   0.395017  -0.005276  -0.034824
     3  C    0.113688  -1.008446  -0.028270  -0.017280   0.458757  -0.165076
     4  C   -1.156830  -2.278801   0.025116   0.028587  -0.106376   0.465574
     5  C   -0.124859   0.594838   0.005135  -0.000657  -0.005255   0.039551
     6  C    1.352256  -0.577427   0.000767  -0.000127  -0.000163  -0.000095
     7  C   -0.072516   0.769759  -0.001624  -0.000021  -0.000174   0.000717
     8  C   -2.912523  -4.809977   0.013538  -0.001220   0.002027   0.000274
     9  C    1.833207  -4.898991   0.026406  -0.007804   0.006456  -0.063395
    10  C   -1.378623   2.089847   0.001096  -0.018650   0.006873   0.097144
    11  C   -1.266767  -0.878651  -0.096785  -0.006276   0.028714  -0.033644
    12  C   -2.734996  -7.535740   0.067646  -0.024567   0.084974  -0.123488
    13  C   15.496048  -1.431113  -0.017044  -0.000184   0.007160  -0.042182
    14  C   -1.431113  22.245006   0.000937  -0.003365  -0.018313   0.048677
    15  H   -0.017044   0.000937   0.450394  -0.008401   0.001026   0.000568
    16  H   -0.000184  -0.003365  -0.008401   0.426162  -0.008979   0.001232
    17  H    0.007160  -0.018313   0.001026  -0.008979   0.443787  -0.011288
    18  H   -0.042182   0.048677   0.000568   0.001232  -0.011288   0.464943
    19  H    0.054628  -0.026026  -0.000168  -0.000678   0.001670  -0.004319
    20  H   -0.023616  -0.089499  -0.000094   0.000001  -0.000085   0.000780
    21  H    0.011257   0.075900   0.000006  -0.000001   0.000004  -0.000083
    22  H    0.005378  -0.019559  -0.000099   0.000001  -0.000004   0.000001
    23  H   -0.106555   0.016254   0.000416  -0.000030   0.000006  -0.000092
    24  H    0.016330   0.139043   0.002390   0.000159  -0.000111   0.000388
    25  H   -0.067249  -0.188623  -0.000871   0.000455  -0.000322   0.001214
              19         20         21         22         23         24
     1  C   -0.116441   0.011555   0.001266   0.001351   0.015143   0.288335
     2  C   -0.005307   0.001280  -0.000118   0.000272  -0.000296   0.024003
     3  C    0.077408  -0.004231   0.000114  -0.000393   0.001073  -0.013784
     4  C   -0.077129   0.015417  -0.002485  -0.002410   0.006229  -0.038266
     5  C   -0.114599   0.391547  -0.087565   0.026021   0.004855   0.010499
     6  C    0.045343  -0.110212   0.428783  -0.017088  -0.017213   0.007033
     7  C   -0.003021  -0.022099  -0.027546   0.380496  -0.041614   0.035320
     8  C   -0.052699   0.071653  -0.062481  -0.011608   0.350980  -0.134334
     9  C    0.138799  -0.032421  -0.000455   0.004679   0.060621   0.306182
    10  C    0.428787   0.105090   0.017409  -0.017767   0.006356  -0.025335
    11  C    0.045684  -0.015452   0.008255  -0.000507  -0.000259  -0.021797
    12  C   -0.033942   0.009093  -0.006096  -0.012164   0.009565  -0.264071
    13  C    0.054628  -0.023616   0.011257   0.005378  -0.106555   0.016330
    14  C   -0.026026  -0.089499   0.075900  -0.019559   0.016254   0.139043
    15  H   -0.000168  -0.000094   0.000006  -0.000099   0.000416   0.002390
    16  H   -0.000678   0.000001  -0.000001   0.000001  -0.000030   0.000159
    17  H    0.001670  -0.000085   0.000004  -0.000004   0.000006  -0.000111
    18  H   -0.004319   0.000780  -0.000083   0.000001  -0.000092   0.000388
    19  H    0.462634  -0.001730   0.001936  -0.000512   0.000239   0.000268
    20  H   -0.001730   0.436185  -0.008493   0.001375   0.000307   0.000507
    21  H    0.001936  -0.008493   0.434433  -0.006971   0.000653  -0.000176
    22  H   -0.000512   0.001375  -0.006971   0.410475  -0.005850   0.000724
    23  H    0.000239   0.000307   0.000653  -0.005850   0.428229  -0.001581
    24  H    0.000268   0.000507  -0.000176   0.000724  -0.001581   0.457233
    25  H   -0.001086   0.000367  -0.000045   0.000428   0.003016  -0.015535
              25
     1  C   -0.001839
     2  C    0.037738
     3  C    0.005496
     4  C    0.010392
     5  C   -0.017150
     6  C   -0.009095
     7  C    0.016689
     8  C    0.211878
     9  C    0.383527
    10  C   -0.030545
    11  C   -0.072141
    12  C    0.050786
    13  C   -0.067249
    14  C   -0.188623
    15  H   -0.000871
    16  H    0.000455
    17  H   -0.000322
    18  H    0.001214
    19  H   -0.001086
    20  H    0.000367
    21  H   -0.000045
    22  H    0.000428
    23  H    0.003016
    24  H   -0.015535
    25  H    0.459359
 Mulliken charges:
               1
     1  C    0.083715
     2  C   -0.413166
     3  C   -0.438699
     4  C    0.083727
     5  C    0.250584
     6  C   -0.419216
     7  C   -0.444739
     8  C    0.085967
     9  C   -0.377674
    10  C    0.034266
    11  C   -0.569473
    12  C    0.431193
    13  C   -0.730298
    14  C    0.867674
    15  H    0.222840
    16  H    0.251215
    17  H    0.219326
    18  H    0.214205
    19  H    0.180262
    20  H    0.262775
    21  H    0.222501
    22  H    0.263733
    23  H    0.269550
    24  H    0.226575
    25  H    0.223156
 Sum of Mulliken charges =   1.00000
 Mulliken charges with hydrogens summed into heavy atoms:
               1
     1  C    0.306555
     2  C   -0.161952
     3  C   -0.219373
     4  C    0.297932
     5  C    0.513359
     6  C   -0.196715
     7  C   -0.181006
     8  C    0.355517
     9  C    0.072057
    10  C    0.214528
    11  C   -0.569473
    12  C    0.431193
    13  C   -0.730298
    14  C    0.867674
 Electronic spatial extent (au):  <R**2>=           2811.2102
 Charge=              1.0000 electrons
 Dipole moment (field-independent basis, Debye):
    X=             -0.4795    Y=              0.3620    Z=             -0.0707  Tot=              0.6049
 Quadrupole moment (field-independent basis, Debye-Ang):
   XX=            -27.2454   YY=            -60.7361   ZZ=            -82.5779
   XY=              0.2734   XZ=             -0.5459   YZ=              0.0509
 Traceless Quadrupole moment (field-independent basis, Debye-Ang):
   XX=             29.6077   YY=             -3.8830   ZZ=            -25.7247
   XY=              0.2734   XZ=             -0.5459   YZ=              0.0509
 Octapole moment (field-independent basis, Debye-Ang**2):
  XXX=             -1.5624  YYY=              5.4657  ZZZ=              0.3475  XYY=             -5.2821
  XXY=              2.0487  XXZ=             -6.0435  XZZ=              2.3533  YZZ=             -2.9731
  YYZ=              0.1064  XYZ=             -0.5368
 Hexadecapole moment (field-independent basis, Debye-Ang**3):
 XXXX=          -2025.4751 YYYY=           -590.9360 ZZZZ=            -96.9537 XXXY=              2.8720
 XXXZ=            -13.6654 YYYX=             -0.1071 YYYZ=              0.4788 ZZZX=             -0.7269
 ZZZY=             -0.4567 XXYY=           -511.8360 XXZZ=           -579.4111 YYZZ=           -136.0723
 XXYZ=              0.4190 YYXZ=             -1.0660 ZZXY=              0.3846
 N-N= 7.951722396224D+02 E-N=-2.827520742031D+03  KE= 5.389895592859D+02
 Unable to Open any file for archive entry.
 1\1\GINC-GADI-CPU-CLX-0072\SP\RM062X TD-FC\6-311++G(d,p)\C14H11(1+)\TS
 1578\26-Jul-2022\0\\#n M062X/6-311++G(d,p) TD(NStates=1) EmpiricalDisp
 ersion=GD3 SP\\SP_4\\1,1\C,0,2.4927,1.2371,0.008\C,0,3.7015,0.5667,0.0
 28\C,0,3.6839,-0.7301,-0.012\C,0,2.4632,-1.2509,-0.032\C,0,-2.4632,-1.
 3469,0.048\C,0,-3.6839,-0.7701,0.148\C,0,-3.7015,0.6147,0.108\C,0,-2.4
 927,1.3411,0.008\C,0,0.,1.4221,-0.06\C,0,0.,-1.2755,-0.06\C,0,1.2621,0
 .7187,0.003\C,0,1.2375,-0.6691,-0.057\C,0,-1.2621,0.7427,-0.107\C,0,-1
 .2375,-0.6851,-0.047\H,0,2.4881,2.3113,0.008\H,0,4.6368,1.0864,0.069\H
 ,0,4.6093,-1.2287,0.094\H,0,2.4675,-2.3284,-0.032\H,0,0.,-2.3766,-0.06
 4\H,0,-2.4675,-2.5444,0.048\H,0,-4.6093,-1.3087,0.114\H,0,-4.6368,1.17
 44,0.139\H,0,-2.4881,2.5433,0.008\H,0,0.,1.9345,-0.9196\H,0,0.,1.9345,
 0.7996\\Version=ES64L-G16RevC.01\State=1-A\HF=-539.6699846\RMSD=3.493e
 -09\PG=C01 [X(C14H11)]\\@
 The archive entry for this job was punched.


 THE BEST WAY TO CONVINCE A FOOL THAT HE IS WRONG 
 IS TO LET HIM HAVE HIS OWN WAY.

                                         JOSH BILLINGS
 Job cpu time:       0 days  1 hours  6 minutes  2.1 seconds.
 Elapsed time:       0 days  0 hours  6 minutes 54.4 seconds.
 File lengths (MBytes):  RWF=    461 Int=      0 D2E=      0 Chk=     15 Scr=      1
 Normal termination of Gaussian 16 at Tue Jul 26 20:05:13 2022.
