 Entering Gaussian System, Link 0=g16
 Initial command:
 /apps/gaussian/g16c01/g16/l1.exe "/jobfs/52716446.gadi-pbs/Gau-1309860.inp" -scrdir="/jobfs/52716446.gadi-pbs/"
 Entering Link 1 = /apps/gaussian/g16c01/g16/l1.exe PID=   1309861.
  
 Copyright (c) 1988-2019, Gaussian, Inc.  All Rights Reserved.
  
 This is part of the Gaussian(R) 16 program.  It is based on
 the Gaussian(R) 09 system (copyright 2009, Gaussian, Inc.),
 the Gaussian(R) 03 system (copyright 2003, Gaussian, Inc.),
 the Gaussian(R) 98 system (copyright 1998, Gaussian, Inc.),
 the Gaussian(R) 94 system (copyright 1995, Gaussian, Inc.),
 the Gaussian 92(TM) system (copyright 1992, Gaussian, Inc.),
 the Gaussian 90(TM) system (copyright 1990, Gaussian, Inc.),
 the Gaussian 88(TM) system (copyright 1988, Gaussian, Inc.),
 the Gaussian 86(TM) system (copyright 1986, Carnegie Mellon
 University), and the Gaussian 82(TM) system (copyright 1983,
 Carnegie Mellon University). Gaussian is a federally registered
 trademark of Gaussian, Inc.
  
 This software contains proprietary and confidential information,
 including trade secrets, belonging to Gaussian, Inc.
  
 This software is provided under written license and may be
 used, copied, transmitted, or stored only in accord with that
 written license.
  
 The following legend is applicable only to US Government
 contracts under FAR:
  
                    RESTRICTED RIGHTS LEGEND
  
 Use, reproduction and disclosure by the US Government is
 subject to restrictions as set forth in subparagraphs (a)
 and (c) of the Commercial Computer Software - Restricted
 Rights clause in FAR 52.227-19.
  
 Gaussian, Inc.
 340 Quinnipiac St., Bldg. 40, Wallingford CT 06492
  
  
 ---------------------------------------------------------------
 Warning -- This program may not be used in any manner that
 competes with the business of Gaussian, Inc. or will provide
 assistance to any competitor of Gaussian, Inc.  The licensee
 of this program is prohibited from giving any competitor of
 Gaussian, Inc. access to this program.  By using this program,
 the user acknowledges that Gaussian, Inc. is engaged in the
 business of creating and licensing software in the field of
 computational chemistry and represents and warrants to the
 licensee that it is not a competitor of Gaussian, Inc. and that
 it will not use this program in any manner prohibited above.
 ---------------------------------------------------------------
  

 Cite this work as:
 Gaussian 16, Revision C.01,
 M. J. Frisch, G. W. Trucks, H. B. Schlegel, G. E. Scuseria, 
 M. A. Robb, J. R. Cheeseman, G. Scalmani, V. Barone, 
 G. A. Petersson, H. Nakatsuji, X. Li, M. Caricato, A. V. Marenich, 
 J. Bloino, B. G. Janesko, R. Gomperts, B. Mennucci, H. P. Hratchian, 
 J. V. Ortiz, A. F. Izmaylov, J. L. Sonnenberg, D. Williams-Young, 
 F. Ding, F. Lipparini, F. Egidi, J. Goings, B. Peng, A. Petrone, 
 T. Henderson, D. Ranasinghe, V. G. Zakrzewski, J. Gao, N. Rega, 
 G. Zheng, W. Liang, M. Hada, M. Ehara, K. Toyota, R. Fukuda, 
 J. Hasegawa, M. Ishida, T. Nakajima, Y. Honda, O. Kitao, H. Nakai, 
 T. Vreven, K. Throssell, J. A. Montgomery, Jr., J. E. Peralta, 
 F. Ogliaro, M. J. Bearpark, J. J. Heyd, E. N. Brothers, K. N. Kudin, 
 V. N. Staroverov, T. A. Keith, R. Kobayashi, J. Normand, 
 K. Raghavachari, A. P. Rendell, J. C. Burant, S. S. Iyengar, 
 J. Tomasi, M. Cossi, J. M. Millam, M. Klene, C. Adamo, R. Cammi, 
 J. W. Ochterski, R. L. Martin, K. Morokuma, O. Farkas, 
 J. B. Foresman, and D. J. Fox, Gaussian, Inc., Wallingford CT, 2019.
 
 ******************************************
 Gaussian 16:  ES64L-G16RevC.01  3-Jul-2019
                26-Jul-2022 
 ******************************************
 %NProcShared=16
 Will use up to   16 processors via shared memory.
 %mem = 64GB
 ---------------------------------------------------------------
 #n M062X/6-311++G(d,p) TD(NStates=1) EmpiricalDispersion=GD3 SP
 ---------------------------------------------------------------
 1/38=1,172=1/1;
 2/12=2,17=6,18=5,40=1/2;
 3/5=4,6=6,7=1111,11=9,25=1,30=1,74=-55,124=31/1,2,3,8;
 4//1;
 5/5=2,38=5/2;
 8/6=1,10=2,108=1/1;
 9/41=1,42=1,70=2/14;
 6/7=2,8=2,9=2,10=2/1;
 99/5=1,9=1/99;
 ----
 SP_3
 ----
 Symbolic Z-matrix:
 Charge =  1 Multiplicity = 1
 C                     2.4927    1.2661    0.006 
 C                     3.7015    0.5907    0.019 
 C                     3.6839   -0.7261   -0.013 
 C                     2.4632   -1.2829   -0.026 
 C                    -2.4632   -1.3549    0.038 
 C                    -3.6839   -0.7561    0.115 
 C                    -3.7015    0.6267    0.083 
 C                    -2.4927    1.3441    0.006 
 C                     0.        1.4301   -0.045 
 C                     0.       -1.3045   -0.045 
 C                     1.2621    0.7127    0.005 
 C                     1.2375   -0.6801   -0.043 
 C                    -1.2621    0.7307   -0.083 
 C                    -1.2375   -0.6921   -0.035 
 H                     2.4881    2.3453    0.006 
 H                     4.6368    1.1154    0.05 
 H                     4.6093   -1.2377    0.07 
 H                     2.4675   -2.3644   -0.026 
 H                     0.       -2.4016   -0.048 
 H                    -2.4675   -2.5264    0.038 
 H                    -4.6093   -1.2977    0.086 
 H                    -4.6368    1.1814    0.106 
 H                    -2.4881    2.5193    0.006 
 H                     0.        1.9785   -0.9046 
 H                     0.        1.9785    0.8146 
 
                          Input orientation:                          
 ---------------------------------------------------------------------
 Center     Atomic      Atomic             Coordinates (Angstroms)
 Number     Number       Type             X           Y           Z
 ---------------------------------------------------------------------
      1          6           0        2.492700    1.266100    0.006000
      2          6           0        3.701500    0.590700    0.019000
      3          6           0        3.683900   -0.726100   -0.013000
      4          6           0        2.463200   -1.282900   -0.026000
      5          6           0       -2.463200   -1.354900    0.038000
      6          6           0       -3.683900   -0.756100    0.115000
      7          6           0       -3.701500    0.626700    0.083000
      8          6           0       -2.492700    1.344100    0.006000
      9          6           0        0.000000    1.430100   -0.045000
     10          6           0        0.000000   -1.304500   -0.045000
     11          6           0        1.262100    0.712700    0.005000
     12          6           0        1.237500   -0.680100   -0.043000
     13          6           0       -1.262100    0.730700   -0.083000
     14          6           0       -1.237500   -0.692100   -0.035000
     15          1           0        2.488100    2.345300    0.006000
     16          1           0        4.636800    1.115400    0.050000
     17          1           0        4.609300   -1.237700    0.070000
     18          1           0        2.467500   -2.364400   -0.026000
     19          1           0        0.000000   -2.401600   -0.048000
     20          1           0       -2.467500   -2.526400    0.038000
     21          1           0       -4.609300   -1.297700    0.086000
     22          1           0       -4.636800    1.181400    0.106000
     23          1           0       -2.488100    2.519300    0.006000
     24          1           0        0.000000    1.978500   -0.904600
     25          1           0        0.000000    1.978500    0.814600
 ---------------------------------------------------------------------
                    Distance matrix (angstroms):
                    1          2          3          4          5
     1  C    0.000000
     2  C    1.384750   0.000000
     3  C    2.321245   1.317306   0.000000
     4  C    2.549372   2.246283   1.341754   0.000000
     5  C    5.606390   6.464460   6.179387   4.927342   0.000000
     6  C    6.500120   7.507811   7.368973   6.171243   1.361837
     7  C    6.227590   7.403364   7.508889   6.454609   2.337124
     8  C    4.986010   6.239863   6.514329   5.609198   2.699351
     9  C    2.498610   3.796023   4.268646   3.664435   3.718934
    10  C    3.581081   4.158964   3.729167   2.463368   2.465113
    11  C    1.349307   2.442489   2.817017   2.329382   4.260742
    12  C    2.316381   2.773098   2.447016   1.366015   3.762592
    13  C    3.793824   4.966621   5.156557   4.235055   2.409774
    14  C    4.213148   5.103157   4.921567   3.747573   1.395340
    15  H    1.079210   2.133338   3.296027   3.628427   6.181252
    16  H    2.149840   1.072873   2.074394   3.237616   7.517481
    17  H    3.279193   2.041996   1.060655   2.148722   7.073543
    18  H    3.630728   3.202717   2.040545   1.081509   5.033387
    19  H    4.434917   4.760194   4.047177   2.705426   2.677747
    20  H    6.244010   6.911818   6.409634   5.085488   1.171508
    21  H    7.551018   8.522907   8.313465   7.073402   2.147399
    22  H    7.130704   8.359650   8.537375   7.516661   3.340955
    23  H    5.136037   6.483118   6.973275   6.242846   3.874412
    24  H    2.747774   4.059572   4.656279   4.180433   4.250577
    25  H    2.715677   4.032378   4.644449   4.172612   4.216873
                    6          7          8          9         10
     6  C    0.000000
     7  C    1.383282   0.000000
     8  C    2.416956   1.407760   0.000000
     9  C    4.286746   3.789847   2.494704   0.000000
    10  C    3.727930   4.176963   3.637477   2.734600   0.000000
    11  C    5.160658   4.964958   3.807518   1.452604   2.380019
    12  C    4.924522   5.110511   4.244311   2.446294   1.386104
    13  C    2.848665   2.447252   1.377881   1.443434   2.395074
    14  C    2.451830   2.797222   2.392346   2.456672   1.380775
    15  H    6.908267   6.424225   5.080430   2.651572   4.417497
    16  H    8.528821   8.352674   7.133303   4.648438   5.231143
    17  H    8.307294   8.517368   7.556996   5.326915   4.611218
    18  H    6.359735   6.856757   6.193350   4.526273   2.685574
    19  H    4.037989   4.784231   4.499638   3.831701   1.097104
    20  H    2.149307   3.386269   3.870714   4.663618   2.754720
    21  H    1.072631   2.127775   3.386075   5.357583   4.611166
    22  H    2.159168   1.087661   2.152588   4.645919   5.263308
    23  H    3.488562   2.249490   1.175209   2.716542   4.562312
    24  H    4.699866   4.062489   2.728591   1.019635   3.393671
    25  H    4.640969   4.007955   2.696266   1.019635   3.393671
                   11         12         13         14         15
    11  C    0.000000
    12  C    1.393844   0.000000
    13  C    2.525798   2.870532   0.000000
    14  C    2.867588   2.475042   1.423822   0.000000
    15  H    2.041681   3.274057   4.083975   4.807034   0.000000
    16  H    3.398940   3.845479   5.912927   6.146681   2.476187
    17  H    3.874536   3.419462   6.194461   5.873140   4.164310
    18  H    3.304920   2.085679   4.846938   4.064935   4.709854
    19  H    3.360739   2.120140   3.377192   2.110442   5.359722
    20  H    4.939916   4.140339   3.475102   2.209725   6.949277
    21  H    6.206578   5.880743   3.917488   3.427890   7.978154
    22  H    5.918353   6.163991   3.409905   3.883957   7.220032
    23  H    4.162668   4.911075   2.170273   3.446559   4.979241
    24  H    2.005622   3.056455   1.955742   3.069155   2.674767
    25  H    1.962294   3.055329   1.988866   3.063549   2.641783
                   16         17         18         19         20
    16  H    0.000000
    17  H    2.353346   0.000000
    18  H    4.101298   2.421978   0.000000
    19  H    5.820550   4.755443   2.467878   0.000000
    20  H    7.983353   7.193252   4.938073   2.472150   0.000000
    21  H    9.555873   9.218809   7.157618   4.741540   2.469679
    22  H    9.274004   9.557390   7.941108   5.861870   4.296309
    23  H    7.262029   8.030706   6.957695   5.514419   5.045844
    24  H    4.812080   5.704335   5.071615   4.463075   5.222181
    25  H    4.778019   5.669569   5.065170   4.464231   5.194785
                   21         22         23         24         25
    21  H    0.000000
    22  H    2.479333   0.000000
    23  H    4.367537   2.533158   0.000000
    24  H    5.741117   4.812130   2.704126   0.000000
    25  H    5.701753   4.757877   2.671505   1.719200   0.000000
 Stoichiometry    C14H11(1+)
 Framework group  C1[X(C14H11)]
 Deg. of freedom    69
 Full point group                 C1      NOp   1
 Largest Abelian subgroup         C1      NOp   1
 Largest concise Abelian subgroup C1      NOp   1
                         Standard orientation:                         
 ---------------------------------------------------------------------
 Center     Atomic      Atomic             Coordinates (Angstroms)
 Number     Number       Type             X           Y           Z
 ---------------------------------------------------------------------
      1          6           0        2.491688   -1.260258   -0.027868
      2          6           0        3.700816   -0.585667   -0.049477
      3          6           0        3.684407    0.731081   -0.014821
      4          6           0        2.464247    1.288696    0.009238
      5          6           0       -2.462460    1.364212   -0.014279
      6          6           0       -3.684171    0.766402   -0.082423
      7          6           0       -3.702483   -0.616444   -0.052919
      8          6           0       -2.493599   -1.334823    0.012810
      9          6           0       -0.000626   -1.422638    0.043231
     10          6           0        0.001301    1.311957    0.048450
     11          6           0        1.261527   -0.706013   -0.015734
     12          6           0        1.238303    0.686709    0.035124
     13          6           0       -1.261880   -0.722442    0.092900
     14          6           0       -1.236671    0.700430    0.047416
     15          1           0        2.486327   -2.339452   -0.029890
     16          1           0        4.635461   -1.110951   -0.089137
     17          1           0        4.609456    1.242202   -0.104420
     18          1           0        2.469309    2.370191    0.011267
     19          1           0        0.002098    2.409049    0.053544
     20          1           0       -2.465935    2.535713   -0.012008
     21          1           0       -4.608921    1.308583   -0.044812
     22          1           0       -4.638331   -1.170455   -0.069318
     23          1           0       -2.489827   -2.510024    0.010529
     24          1           0        0.006026   -1.972682    0.901754
     25          1           0       -0.008051   -1.969391   -0.817386
 ---------------------------------------------------------------------
 Rotational constants (GHZ):           2.3072443           0.4444317           0.3736881
 Standard basis: 6-311++G(d,p) (5D, 7F)
 There are   399 symmetry adapted cartesian basis functions of A   symmetry.
 There are   385 symmetry adapted basis functions of A   symmetry.
   385 basis functions,   603 primitive gaussians,   399 cartesian basis functions
    47 alpha electrons       47 beta electrons
       nuclear repulsion energy       792.4314352167 Hartrees.
 NAtoms=   25 NActive=   25 NUniq=   25 SFac= 1.00D+00 NAtFMM=   60 NAOKFM=F Big=F
 Integral buffers will be    131072 words long.
 Regular integral format.
 Two-electron integral symmetry is turned on.
 Nuclear repulsion after empirical dispersion term =      792.4304762319 Hartrees.
 One-electron integrals computed using PRISM.
 NBasis=   385 RedAO= T EigKep=  1.12D-06  NBF=   385
 NBsUse=   379 1.00D-06 EigRej=  8.89D-07 NBFU=   379
 ExpMin= 3.60D-02 ExpMax= 4.56D+03 ExpMxC= 6.82D+02 IAcc=3 IRadAn=         5 AccDes= 0.00D+00
 Harris functional with IExCor= 1009 and IRadAn=       5 diagonalized for initial guess.
 HarFok:  IExCor= 1009 AccDes= 0.00D+00 IRadAn=         5 IDoV= 1 UseB2=F ITyADJ=14
 ICtDFT=  3500011 ScaDFX=  1.000000  1.000000  1.000000  1.000000
 FoFCou: FMM=F IPFlag=           0 FMFlag=      100000 FMFlg1=           0
         NFxFlg=           0 DoJE=T BraDBF=F KetDBF=T FulRan=T
         wScrn=  0.000000 ICntrl=       500 IOpCl=  0 I1Cent=   200000004 NGrid=           0
         NMat0=    1 NMatS0=      1 NMatT0=    0 NMatD0=    1 NMtDS0=    0 NMtDT0=    0
 Petite list used in FoFCou.
 Requested convergence on RMS density matrix=1.00D-08 within 128 cycles.
 Requested convergence on MAX density matrix=1.00D-06.
 Requested convergence on             energy=1.00D-06.
 No special actions if energy rises.
 SCF Done:  E(RM062X) =  -539.706137174     A.U. after   15 cycles
            NFock= 15  Conv=0.52D-08     -V/T= 2.0019
 DoSCS=F DFT=T ScalE2(SS,OS)=  1.000000  1.000000
 ExpMin= 3.60D-02 ExpMax= 4.56D+03 ExpMxC= 6.82D+02 IAcc=3 IRadAn=         5 AccDes= 0.00D+00
 HarFok:  IExCor=  205 AccDes= 0.00D+00 IRadAn=         5 IDoV=-2 UseB2=F ITyADJ=14
 ICtDFT= 12500011 ScaDFX=  1.000000  1.000000  1.000000  1.000000
 Range of M.O.s used for correlation:    15   379
 NBasis=   385 NAE=    47 NBE=    47 NFC=    14 NFV=     0
 NROrb=    365 NOA=    33 NOB=    33 NVA=   332 NVB=   332

 **** Warning!!: The largest alpha MO coefficient is  0.16002184D+03

 Orbital symmetries:
       Occupied  (A) (A) (A) (A) (A) (A) (A) (A) (A) (A) (A) (A)
                 (A) (A) (A) (A) (A) (A) (A) (A) (A) (A) (A) (A)
                 (A) (A) (A) (A) (A) (A) (A) (A) (A) (A) (A) (A)
                 (A) (A) (A) (A) (A) (A) (A) (A) (A) (A) (A)
       Virtual   (A) (A) (A) (A) (A) (A) (A) (A) (A) (A) (A) (A)
                 (A) (A) (A) (A) (A) (A) (A) (A) (A) (A) (A) (A)
                 (A) (A) (A) (A) (A) (A) (A) (A) (A) (A) (A) (A)
                 (A) (A) (A) (A) (A) (A) (A) (A) (A) (A) (A) (A)
                 (A) (A) (A) (A) (A) (A) (A) (A) (A) (A) (A) (A)
                 (A) (A) (A) (A) (A) (A) (A) (A) (A) (A) (A) (A)
                 (A) (A) (A) (A) (A) (A) (A) (A) (A) (A) (A) (A)
                 (A) (A) (A) (A) (A) (A) (A) (A) (A) (A) (A) (A)
                 (A) (A) (A) (A) (A) (A) (A) (A) (A) (A) (A) (A)
                 (A) (A) (A) (A) (A) (A) (A) (A) (A) (A) (A) (A)
                 (A) (A) (A) (A) (A) (A) (A) (A) (A) (A) (A) (A)
                 (A) (A) (A) (A) (A) (A) (A) (A) (A) (A) (A) (A)
                 (A) (A) (A) (A) (A) (A) (A) (A) (A) (A) (A) (A)
                 (A) (A) (A) (A) (A) (A) (A) (A) (A) (A) (A) (A)
                 (A) (A) (A) (A) (A) (A) (A) (A) (A) (A) (A) (A)
                 (A) (A) (A) (A) (A) (A) (A) (A) (A) (A) (A) (A)
                 (A) (A) (A) (A) (A) (A) (A) (A) (A) (A) (A) (A)
                 (A) (A) (A) (A) (A) (A) (A) (A) (A) (A) (A) (A)
                 (A) (A) (A) (A) (A) (A) (A) (A) (A) (A) (A) (A)
                 (A) (A) (A) (A) (A) (A) (A) (A) (A) (A) (A) (A)
                 (A) (A) (A) (A) (A) (A) (A) (A) (A) (A) (A) (A)
                 (A) (A) (A) (A) (A) (A) (A) (A) (A) (A) (A) (A)
                 (A) (A) (A) (A) (A) (A) (A) (A) (A) (A) (A) (A)
                 (A) (A) (A) (A) (A) (A) (A) (A) (A) (A) (A) (A)
                 (A) (A) (A) (A) (A) (A) (A) (A) (A) (A) (A) (A)
                 (A) (A) (A) (A) (A) (A) (A) (A) (A) (A) (A) (A)
                 (A) (A) (A) (A) (A) (A) (A) (A) (A) (A) (A) (A)
                 (A) (A) (A) (A) (A) (A) (A) (A)
     4 initial guesses have been made.
 Convergence on wavefunction:    0.001000000000000
 Iteration     1 Dimension     4 NMult     0 NNew      4
 CISAX will form     4 AO SS matrices at one time.
 Iteration     2 Dimension     6 NMult     4 NNew      2
 Iteration     3 Dimension     8 NMult     6 NNew      2
 Iteration     4 Dimension    10 NMult     8 NNew      2
 Iteration     5 Dimension    12 NMult    10 NNew      2
 Iteration     6 Dimension    14 NMult    12 NNew      2
 ***********************************************************************
 Excited states from <AA,BB:AA,BB> singles matrix:
 ***********************************************************************
 
 Ground to excited state transition densities written to RWF  633
 Ground to excited state transition electric dipole moments (Au):
       state          X           Y           Z        Dip. S.      Osc.
         1        -0.2491     -0.5970      0.0168      0.4188      0.0320
 Ground to excited state transition velocity dipole moments (Au):
       state          X           Y           Z        Dip. S.      Osc.
         1         0.0289      0.0763     -0.0019      0.0067      0.0388
 Ground to excited state transition magnetic dipole moments (Au):
       state          X           Y           Z
         1         0.0305     -0.0163     -0.1737
 Ground to excited state transition velocity quadrupole moments (Au):
       state          XX          YY          ZZ          XY          XZ          YZ
         1         0.3198      0.0455     -0.0076     -0.0101      0.0058      0.0067
 <0|del|b> * <b|rxdel|0> + <0|del|b> * <b|delr+rdel|0>
 Rotatory Strengths (R) in cgs (10**-40 erg-esu-cm/Gauss)
       state          XX          YY          ZZ    R(velocity)    E-M Angle
         1        -4.1225      4.2917     -0.3314     -0.0541       90.00
 1/2[<0|r|b>*<b|rxdel|0> + (<0|rxdel|b>*<b|r|0>)*]
 Rotatory Strengths (R) in cgs (10**-40 erg-esu-cm/Gauss)
       state          XX          YY          ZZ     R(length)
         1         5.3748     -6.8742      2.0615      0.1874
  1/2[<0|del|b>*<b|r|0> + (<0|r|b>*<b|del|0>)*] (Au)
       state          X           Y           Z        Dip. S.   Osc.(frdel)
         1        -0.0072     -0.0455     -0.0000      0.0528      0.0352

 Excitation energies and oscillator strengths:
 
 Excited State   1:      Singlet-A      3.1160 eV  397.89 nm  f=0.0320  <S**2>=0.000
      46 -> 48         0.13944
      47 -> 48         0.68971
 This state for optimization and/or second-order correction.
 Total Energy, E(TD-HF/TD-DFT) =  -539.591624930    
 Copying the excited state density for this state as the 1-particle RhoCI density.
 SavETr:  write IOETrn=   770 NScale= 10 NData=  16 NLR=1 NState=    1 LETran=      28.

 **********************************************************************

            Population analysis using the SCF Density.

 **********************************************************************

 Orbital symmetries:
       Occupied  (A) (A) (A) (A) (A) (A) (A) (A) (A) (A) (A) (A)
                 (A) (A) (A) (A) (A) (A) (A) (A) (A) (A) (A) (A)
                 (A) (A) (A) (A) (A) (A) (A) (A) (A) (A) (A) (A)
                 (A) (A) (A) (A) (A) (A) (A) (A) (A) (A) (A)
       Virtual   (A) (A) (A) (A) (A) (A) (A) (A) (A) (A) (A) (A)
                 (A) (A) (A) (A) (A) (A) (A) (A) (A) (A) (A) (A)
                 (A) (A) (A) (A) (A) (A) (A) (A) (A) (A) (A) (A)
                 (A) (A) (A) (A) (A) (A) (A) (A) (A) (A) (A) (A)
                 (A) (A) (A) (A) (A) (A) (A) (A) (A) (A) (A) (A)
                 (A) (A) (A) (A) (A) (A) (A) (A) (A) (A) (A) (A)
                 (A) (A) (A) (A) (A) (A) (A) (A) (A) (A) (A) (A)
                 (A) (A) (A) (A) (A) (A) (A) (A) (A) (A) (A) (A)
                 (A) (A) (A) (A) (A) (A) (A) (A) (A) (A) (A) (A)
                 (A) (A) (A) (A) (A) (A) (A) (A) (A) (A) (A) (A)
                 (A) (A) (A) (A) (A) (A) (A) (A) (A) (A) (A) (A)
                 (A) (A) (A) (A) (A) (A) (A) (A) (A) (A) (A) (A)
                 (A) (A) (A) (A) (A) (A) (A) (A) (A) (A) (A) (A)
                 (A) (A) (A) (A) (A) (A) (A) (A) (A) (A) (A) (A)
                 (A) (A) (A) (A) (A) (A) (A) (A) (A) (A) (A) (A)
                 (A) (A) (A) (A) (A) (A) (A) (A) (A) (A) (A) (A)
                 (A) (A) (A) (A) (A) (A) (A) (A) (A) (A) (A) (A)
                 (A) (A) (A) (A) (A) (A) (A) (A) (A) (A) (A) (A)
                 (A) (A) (A) (A) (A) (A) (A) (A) (A) (A) (A) (A)
                 (A) (A) (A) (A) (A) (A) (A) (A) (A) (A) (A) (A)
                 (A) (A) (A) (A) (A) (A) (A) (A) (A) (A) (A) (A)
                 (A) (A) (A) (A) (A) (A) (A) (A) (A) (A) (A) (A)
                 (A) (A) (A) (A) (A) (A) (A) (A) (A) (A) (A) (A)
                 (A) (A) (A) (A) (A) (A) (A) (A) (A) (A) (A) (A)
                 (A) (A) (A) (A) (A) (A) (A) (A) (A) (A) (A) (A)
                 (A) (A) (A) (A) (A) (A) (A) (A) (A) (A) (A) (A)
                 (A) (A) (A) (A) (A) (A) (A) (A) (A) (A) (A) (A)
                 (A) (A) (A) (A) (A) (A) (A) (A)
 The electronic state is 1-A.
 Alpha  occ. eigenvalues --  -10.76607 -10.73063 -10.72223 -10.72142 -10.71965
 Alpha  occ. eigenvalues --  -10.71649 -10.71222 -10.70803 -10.70329 -10.70011
 Alpha  occ. eigenvalues --  -10.69713 -10.68975 -10.68628 -10.68071  -1.18128
 Alpha  occ. eigenvalues --   -1.14177  -1.08782  -1.07002  -1.02379  -1.01183
 Alpha  occ. eigenvalues --   -0.96523  -0.92714  -0.86979  -0.86004  -0.83645
 Alpha  occ. eigenvalues --   -0.79397  -0.77440  -0.74165  -0.71978  -0.71512
 Alpha  occ. eigenvalues --   -0.69373  -0.68414  -0.66805  -0.66254  -0.62987
 Alpha  occ. eigenvalues --   -0.62189  -0.61958  -0.61591  -0.60670  -0.59901
 Alpha  occ. eigenvalues --   -0.56933  -0.55289  -0.53270  -0.52570  -0.47840
 Alpha  occ. eigenvalues --   -0.46242  -0.45459
 Alpha virt. eigenvalues --   -0.25854  -0.14415  -0.13511  -0.11910  -0.11179
 Alpha virt. eigenvalues --   -0.09900  -0.09387  -0.08227  -0.07997  -0.07451
 Alpha virt. eigenvalues --   -0.07190  -0.06830  -0.05654  -0.05504  -0.05173
 Alpha virt. eigenvalues --   -0.04133  -0.03908  -0.03126  -0.03001  -0.02022
 Alpha virt. eigenvalues --   -0.01735  -0.00859   0.00333   0.00425   0.00728
 Alpha virt. eigenvalues --    0.01277   0.01369   0.02067   0.02211   0.02319
 Alpha virt. eigenvalues --    0.02640   0.02895   0.03051   0.03162   0.03387
 Alpha virt. eigenvalues --    0.04212   0.04377   0.04794   0.05298   0.05392
 Alpha virt. eigenvalues --    0.05882   0.06465   0.06654   0.06940   0.07505
 Alpha virt. eigenvalues --    0.07699   0.08155   0.08343   0.08892   0.09289
 Alpha virt. eigenvalues --    0.09432   0.09746   0.09986   0.10134   0.11474
 Alpha virt. eigenvalues --    0.11605   0.11982   0.12370   0.12574   0.12865
 Alpha virt. eigenvalues --    0.13496   0.13692   0.14595   0.14930   0.15968
 Alpha virt. eigenvalues --    0.16100   0.16654   0.18046   0.18214   0.18362
 Alpha virt. eigenvalues --    0.19102   0.19384   0.19791   0.20103   0.20378
 Alpha virt. eigenvalues --    0.21078   0.21907   0.23130   0.23184   0.23538
 Alpha virt. eigenvalues --    0.24706   0.25357   0.25546   0.27475   0.28347
 Alpha virt. eigenvalues --    0.29364   0.29467   0.31989   0.32536   0.37656
 Alpha virt. eigenvalues --    0.38245   0.38871   0.39267   0.40484   0.41361
 Alpha virt. eigenvalues --    0.41721   0.42525   0.43398   0.44175   0.44611
 Alpha virt. eigenvalues --    0.45072   0.45868   0.47492   0.47653   0.48162
 Alpha virt. eigenvalues --    0.48486   0.49178   0.49649   0.50603   0.50732
 Alpha virt. eigenvalues --    0.51344   0.51974   0.52605   0.52736   0.53643
 Alpha virt. eigenvalues --    0.54105   0.55869   0.55989   0.56280   0.58343
 Alpha virt. eigenvalues --    0.59880   0.60185   0.61788   0.61951   0.62954
 Alpha virt. eigenvalues --    0.63594   0.64194   0.64492   0.66423   0.67553
 Alpha virt. eigenvalues --    0.68433   0.70268   0.71498   0.72136   0.73218
 Alpha virt. eigenvalues --    0.74774   0.75279   0.76195   0.76680   0.76807
 Alpha virt. eigenvalues --    0.77538   0.78302   0.78459   0.79252   0.81123
 Alpha virt. eigenvalues --    0.81855   0.82275   0.82646   0.83726   0.84474
 Alpha virt. eigenvalues --    0.85841   0.86971   0.88063   0.88433   0.90220
 Alpha virt. eigenvalues --    0.91578   0.93395   0.94714   0.95453   0.96938
 Alpha virt. eigenvalues --    0.97868   0.99330   1.01365   1.02641   1.03776
 Alpha virt. eigenvalues --    1.04566   1.06059   1.07656   1.08584   1.11545
 Alpha virt. eigenvalues --    1.22222   1.23405   1.25356   1.29450   1.30343
 Alpha virt. eigenvalues --    1.31588   1.32687   1.33298   1.34860   1.35974
 Alpha virt. eigenvalues --    1.37914   1.42093   1.43482   1.43660   1.44486
 Alpha virt. eigenvalues --    1.44898   1.46713   1.47737   1.48634   1.49290
 Alpha virt. eigenvalues --    1.50857   1.51394   1.52124   1.54880   1.56194
 Alpha virt. eigenvalues --    1.57168   1.59054   1.59370   1.59979   1.61339
 Alpha virt. eigenvalues --    1.62036   1.62720   1.64050   1.66364   1.67566
 Alpha virt. eigenvalues --    1.68282   1.71057   1.72302   1.73252   1.76878
 Alpha virt. eigenvalues --    1.77833   1.78834   1.81324   1.82657   1.83144
 Alpha virt. eigenvalues --    1.83650   1.84651   1.85629   1.85681   1.86157
 Alpha virt. eigenvalues --    1.86550   1.87053   1.88500   1.91302   1.92610
 Alpha virt. eigenvalues --    1.93108   1.96072   1.96859   1.98964   2.02207
 Alpha virt. eigenvalues --    2.03518   2.05189   2.07694   2.10718   2.12446
 Alpha virt. eigenvalues --    2.15044   2.17275   2.17518   2.22951   2.25517
 Alpha virt. eigenvalues --    2.27599   2.27916   2.29864   2.35090   2.36339
 Alpha virt. eigenvalues --    2.39355   2.39966   2.41300   2.43297   2.44497
 Alpha virt. eigenvalues --    2.46531   2.51967   2.53537   2.56460   2.57424
 Alpha virt. eigenvalues --    2.58290   2.58968   2.59544   2.59906   2.61017
 Alpha virt. eigenvalues --    2.62302   2.62554   2.62824   2.63593   2.64818
 Alpha virt. eigenvalues --    2.66456   2.66769   2.67471   2.68034   2.69462
 Alpha virt. eigenvalues --    2.71301   2.72443   2.75361   2.76944   2.77585
 Alpha virt. eigenvalues --    2.77961   2.79026   2.81286   2.85164   2.86834
 Alpha virt. eigenvalues --    2.89302   2.94624   2.95228   2.96642   3.00936
 Alpha virt. eigenvalues --    3.04116   3.09043   3.10795   3.14712   3.22626
 Alpha virt. eigenvalues --    3.26721   3.28297   3.30237   3.32971   3.36742
 Alpha virt. eigenvalues --    3.38877   3.40676   3.41444   3.44635   3.51770
 Alpha virt. eigenvalues --    3.54572   3.56696   3.59331   3.64190   3.70722
 Alpha virt. eigenvalues --    3.88418   3.90581   3.96100   3.96860   3.99344
 Alpha virt. eigenvalues --    4.00826   4.01929   4.04735   4.11899   4.39061
 Alpha virt. eigenvalues --    4.68701   4.72213   4.73813  23.41939  23.59822
 Alpha virt. eigenvalues --   23.82086  23.85617  23.92430  23.95994  24.00827
 Alpha virt. eigenvalues --   24.02535  24.05913  24.08766  24.14194  24.14821
 Alpha virt. eigenvalues --   24.17822  24.33510
          Condensed to atoms (all electrons):
               1          2          3          4          5          6
     1  C    9.803278   0.515736  -0.650304   2.638672   0.019558  -0.099604
     2  C    0.515736   6.957657   0.612433  -0.670937  -0.027368  -0.014094
     3  C   -0.650304   0.612433   7.132001  -0.023766  -0.160711   0.021656
     4  C    2.638672  -0.670937  -0.023766  11.790745  -0.154931  -0.111752
     5  C    0.019558  -0.027368  -0.160711  -0.154931  11.306730   0.010837
     6  C   -0.099604  -0.014094   0.021656  -0.111752   0.010837   6.934655
     7  C   -0.032140   0.010720  -0.015074  -0.115209  -0.778337   0.433238
     8  C    0.642678   0.001366  -0.087908   0.132232   2.828094  -1.134791
     9  C   -1.706229  -0.505440   0.443108  -1.722719  -0.584599   0.521556
    10  C   -2.023876   0.048872  -0.630694  -2.962327  -2.634467  -0.386482
    11  C   -0.274520  -1.118222   1.256406  -0.561363  -1.499616  -0.101668
    12  C   -1.766183   0.551550  -1.589912  -0.000062  -0.711244  -0.270454
    13  C   -0.153869  -0.110192  -0.156522  -1.473372  -0.342831   1.380237
    14  C   -1.339702  -0.188749  -0.064881  -1.189709  -1.733875  -1.085245
    15  H    0.342721  -0.046618  -0.021090   0.024436   0.005646   0.000814
    16  H   -0.017441   0.388575  -0.011849   0.025377  -0.001328  -0.000205
    17  H   -0.029233  -0.014606   0.398521  -0.080835  -0.001188   0.000208
    18  H    0.052139  -0.017991  -0.091684   0.470972   0.018048  -0.003020
    19  H   -0.067418  -0.008471   0.059608  -0.081673  -0.096351   0.055752
    20  H    0.007823   0.001569  -0.003534   0.013840   0.443219  -0.091935
    21  H   -0.000879  -0.000142   0.000418  -0.001174  -0.096336   0.411202
    22  H    0.000010   0.000313  -0.000282  -0.002148   0.019456  -0.014752
    23  H    0.012563  -0.000868   0.001516   0.007565   0.015937  -0.016320
    24  H    0.068661   0.021463   0.000145  -0.020399  -0.013056   0.004124
    25  H    0.096242   0.031782  -0.003871  -0.007406  -0.010942  -0.007326
               7          8          9         10         11         12
     1  C   -0.032140   0.642678  -1.706229  -2.023876  -0.274520  -1.766183
     2  C    0.010720   0.001366  -0.505440   0.048872  -1.118222   0.551550
     3  C   -0.015074  -0.087908   0.443108  -0.630694   1.256406  -1.589912
     4  C   -0.115209   0.132232  -1.722719  -2.962327  -0.561363  -0.000062
     5  C   -0.778337   2.828094  -0.584599  -2.634467  -1.499616  -0.711244
     6  C    0.433238  -1.134791   0.521556  -0.386482  -0.101668  -0.270454
     7  C    6.861331   0.163312  -0.228163   0.104513  -0.233956  -0.281315
     8  C    0.163312  10.275852  -1.408108  -1.691139  -0.056489  -0.616973
     9  C   -0.228163  -1.408108  11.097572   0.435127   2.289959  -3.280831
    10  C    0.104513  -1.691139   0.435127  11.469208  -1.335382   2.789792
    11  C   -0.233956  -0.056489   2.289959  -1.335382  13.310307  -1.252253
    12  C   -0.281315  -0.616973  -3.280831   2.789792  -1.252253  15.215115
    13  C   -0.369251  -1.265776   2.522658  -1.315739  -0.661034  -4.191048
    14  C    0.593044  -2.246786  -2.471581   3.522559  -2.996279   0.883806
    15  H   -0.001950   0.010342   0.036230  -0.001933  -0.057668   0.055228
    16  H    0.000068   0.000007  -0.002621  -0.018813   0.009306  -0.025517
    17  H   -0.000112  -0.000708   0.001285   0.023026  -0.017346   0.069380
    18  H    0.000283   0.008379  -0.045910   0.055055  -0.026656  -0.035182
    19  H   -0.000290  -0.074382   0.117906   0.415779   0.073909  -0.095907
    20  H   -0.013158   0.066974  -0.034228   0.053601  -0.013801  -0.006019
    21  H   -0.024878  -0.047391   0.003130   0.027869   0.001147   0.004005
    22  H    0.380708  -0.016889   0.008803  -0.015451  -0.000974  -0.008890
    23  H   -0.052066   0.318132   0.048006  -0.001712   0.004182   0.009707
    24  H    0.027442   0.055136   0.395195  -0.012486  -0.040492  -0.087066
    25  H    0.021485   0.084980   0.351485  -0.019092  -0.028729  -0.056202
              13         14         15         16         17         18
     1  C   -0.153869  -1.339702   0.342721  -0.017441  -0.029233   0.052139
     2  C   -0.110192  -0.188749  -0.046618   0.388575  -0.014606  -0.017991
     3  C   -0.156522  -0.064881  -0.021090  -0.011849   0.398521  -0.091684
     4  C   -1.473372  -1.189709   0.024436   0.025377  -0.080835   0.470972
     5  C   -0.342831  -1.733875   0.005646  -0.001328  -0.001188   0.018048
     6  C    1.380237  -1.085245   0.000814  -0.000205   0.000208  -0.003020
     7  C   -0.369251   0.593044  -0.001950   0.000068  -0.000112   0.000283
     8  C   -1.265776  -2.246786   0.010342   0.000007  -0.000708   0.008379
     9  C    2.522658  -2.471581   0.036230  -0.002621   0.001285  -0.045910
    10  C   -1.315739   3.522559  -0.001933  -0.018813   0.023026   0.055055
    11  C   -0.661034  -2.996279  -0.057668   0.009306  -0.017346  -0.026656
    12  C   -4.191048   0.883806   0.055228  -0.025517   0.069380  -0.035182
    13  C   14.050432  -1.178662  -0.014645   0.001538  -0.001626  -0.018000
    14  C   -1.178662  14.992636   0.002051  -0.007913   0.006902  -0.030504
    15  H   -0.014645   0.002051   0.446280  -0.008167   0.001126   0.000511
    16  H    0.001538  -0.007913  -0.008167   0.423106  -0.007840   0.001267
    17  H   -0.001626   0.006902   0.001126  -0.007840   0.434229  -0.008259
    18  H   -0.018000  -0.030504   0.000511   0.001267  -0.008259   0.454490
    19  H    0.057369   0.009531  -0.000110  -0.000623   0.001183  -0.003314
    20  H   -0.031000  -0.078414  -0.000099   0.000000  -0.000078   0.000873
    21  H    0.000585   0.076630   0.000005  -0.000003   0.000009  -0.000139
    22  H    0.018616  -0.030870  -0.000106   0.000002  -0.000003  -0.000008
    23  H   -0.054796   0.020218   0.000482  -0.000051   0.000015  -0.000114
    24  H    0.001425  -0.070453   0.000665   0.000296  -0.000075  -0.000106
    25  H   -0.039031  -0.078838  -0.000402   0.000478  -0.000279   0.001206
              19         20         21         22         23         24
     1  C   -0.067418   0.007823  -0.000879   0.000010   0.012563   0.068661
     2  C   -0.008471   0.001569  -0.000142   0.000313  -0.000868   0.021463
     3  C    0.059608  -0.003534   0.000418  -0.000282   0.001516   0.000145
     4  C   -0.081673   0.013840  -0.001174  -0.002148   0.007565  -0.020399
     5  C   -0.096351   0.443219  -0.096336   0.019456   0.015937  -0.013056
     6  C    0.055752  -0.091935   0.411202  -0.014752  -0.016320   0.004124
     7  C   -0.000290  -0.013158  -0.024878   0.380708  -0.052066   0.027442
     8  C   -0.074382   0.066974  -0.047391  -0.016889   0.318132   0.055136
     9  C    0.117906  -0.034228   0.003130   0.008803   0.048006   0.395195
    10  C    0.415779   0.053601   0.027869  -0.015451  -0.001712  -0.012486
    11  C    0.073909  -0.013801   0.001147  -0.000974   0.004182  -0.040492
    12  C   -0.095907  -0.006019   0.004005  -0.008890   0.009707  -0.087066
    13  C    0.057369  -0.031000   0.000585   0.018616  -0.054796   0.001425
    14  C    0.009531  -0.078414   0.076630  -0.030870   0.020218  -0.070453
    15  H   -0.000110  -0.000099   0.000005  -0.000106   0.000482   0.000665
    16  H   -0.000623   0.000000  -0.000003   0.000002  -0.000051   0.000296
    17  H    0.001183  -0.000078   0.000009  -0.000003   0.000015  -0.000075
    18  H   -0.003314   0.000873  -0.000139  -0.000008  -0.000114  -0.000106
    19  H    0.459013  -0.004126   0.002168  -0.000478   0.000116   0.001007
    20  H   -0.004126   0.437995  -0.008634   0.001517   0.000408   0.000429
    21  H    0.002168  -0.008634   0.430861  -0.006768   0.000781  -0.000088
    22  H   -0.000478   0.001517  -0.006768   0.412453  -0.006418   0.000496
    23  H    0.000116   0.000408   0.000781  -0.006418   0.428466  -0.001101
    24  H    0.001007   0.000429  -0.000088   0.000496  -0.001101   0.482343
    25  H   -0.000812   0.000301  -0.000152   0.000714   0.001943  -0.041466
              25
     1  C    0.096242
     2  C    0.031782
     3  C   -0.003871
     4  C   -0.007406
     5  C   -0.010942
     6  C   -0.007326
     7  C    0.021485
     8  C    0.084980
     9  C    0.351485
    10  C   -0.019092
    11  C   -0.028729
    12  C   -0.056202
    13  C   -0.039031
    14  C   -0.078838
    15  H   -0.000402
    16  H    0.000478
    17  H   -0.000279
    18  H    0.001206
    19  H   -0.000812
    20  H    0.000301
    21  H   -0.000152
    22  H    0.000714
    23  H    0.001943
    24  H   -0.041466
    25  H    0.481430
 Mulliken charges:
               1
     1  C   -0.038683
     2  C   -0.418340
     3  C   -0.413730
     4  C    0.075942
     5  C    0.179656
     6  C   -0.436632
     7  C   -0.450246
     8  C    0.059855
     9  C   -0.281592
    10  C    0.104193
    11  C   -0.668768
    12  C    0.696474
    13  C   -0.655465
    14  C    0.685084
    15  H    0.226250
    16  H    0.252350
    17  H    0.226305
    18  H    0.217664
    19  H    0.180613
    20  H    0.256475
    21  H    0.227774
    22  H    0.260948
    23  H    0.263408
    24  H    0.227962
    25  H    0.222501
 Sum of Mulliken charges =   1.00000
 Mulliken charges with hydrogens summed into heavy atoms:
               1
     1  C    0.187567
     2  C   -0.165990
     3  C   -0.187424
     4  C    0.293606
     5  C    0.436131
     6  C   -0.208858
     7  C   -0.189298
     8  C    0.323263
     9  C    0.168871
    10  C    0.284806
    11  C   -0.668768
    12  C    0.696474
    13  C   -0.655465
    14  C    0.685084
 Electronic spatial extent (au):  <R**2>=           2819.3655
 Charge=              1.0000 electrons
 Dipole moment (field-independent basis, Debye):
    X=             -0.3596    Y=              0.3228    Z=             -0.0508  Tot=              0.4859
 Quadrupole moment (field-independent basis, Debye-Ang):
   XX=            -28.0182   YY=            -59.8527   ZZ=            -82.8858
   XY=              0.2106   XZ=             -0.4547   YZ=              0.0462
 Traceless Quadrupole moment (field-independent basis, Debye-Ang):
   XX=             28.9007   YY=             -2.9338   ZZ=            -25.9669
   XY=              0.2106   XZ=             -0.4547   YZ=              0.0462
 Octapole moment (field-independent basis, Debye-Ang**2):
  XXX=             -0.9697  YYY=              5.4221  ZZZ=              0.2639  XYY=             -4.0301
  XXY=              0.4889  XXZ=             -4.5007  XZZ=              1.7448  YZZ=             -3.0195
  YYZ=              0.0912  XYZ=             -0.4207
 Hexadecapole moment (field-independent basis, Debye-Ang**3):
 XXXX=          -2044.1416 YYYY=           -594.5458 ZZZZ=            -96.9613 XXXY=              2.3293
 XXXZ=            -11.2868 YYYX=             -0.0536 YYYZ=              0.3818 ZZZX=             -0.5683
 ZZZY=             -0.3175 XXYY=           -510.8152 XXZZ=           -581.7212 YYZZ=           -137.7184
 XXYZ=              0.3741 YYXZ=             -0.9497 ZZXY=              0.2808
 N-N= 7.924304762319D+02 E-N=-2.821891817810D+03  KE= 5.386777435265D+02
 Unable to Open any file for archive entry.
 1\1\GINC-GADI-CPU-CLX-0072\SP\RM062X TD-FC\6-311++G(d,p)\C14H11(1+)\TS
 1578\26-Jul-2022\0\\#n M062X/6-311++G(d,p) TD(NStates=1) EmpiricalDisp
 ersion=GD3 SP\\SP_3\\1,1\C,0,2.4927,1.2661,0.006\C,0,3.7015,0.5907,0.0
 19\C,0,3.6839,-0.7261,-0.013\C,0,2.4632,-1.2829,-0.026\C,0,-2.4632,-1.
 3549,0.038\C,0,-3.6839,-0.7561,0.115\C,0,-3.7015,0.6267,0.083\C,0,-2.4
 927,1.3441,0.006\C,0,0.,1.4301,-0.045\C,0,0.,-1.3045,-0.045\C,0,1.2621
 ,0.7127,0.005\C,0,1.2375,-0.6801,-0.043\C,0,-1.2621,0.7307,-0.083\C,0,
 -1.2375,-0.6921,-0.035\H,0,2.4881,2.3453,0.006\H,0,4.6368,1.1154,0.05\
 H,0,4.6093,-1.2377,0.07\H,0,2.4675,-2.3644,-0.026\H,0,0.,-2.4016,-0.04
 8\H,0,-2.4675,-2.5264,0.038\H,0,-4.6093,-1.2977,0.086\H,0,-4.6368,1.18
 14,0.106\H,0,-2.4881,2.5193,0.006\H,0,0.,1.9785,-0.9046\H,0,0.,1.9785,
 0.8146\\Version=ES64L-G16RevC.01\State=1-A\HF=-539.7061372\RMSD=5.172e
 -09\PG=C01 [X(C14H11)]\\@
 The archive entry for this job was punched.


 WE TEND TO MEET ANY NEW SITUATION BY REORGANIZING. IT CAN BE A
 WONDERFUL METHOD FOR CREATING THE ILLUSION OF PROGRESS WHILE PRODUCING
 CONFUSION, INEFFICIENCY, AND DEMORALIZATION.
     -- PETRONIUS ARBITER, 210 B.C.
 Job cpu time:       0 days  1 hours  5 minutes 19.8 seconds.
 Elapsed time:       0 days  0 hours  6 minutes 54.1 seconds.
 File lengths (MBytes):  RWF=    460 Int=      0 D2E=      0 Chk=     15 Scr=      1
 Normal termination of Gaussian 16 at Tue Jul 26 19:19:53 2022.
