 Entering Gaussian System, Link 0=g16
 Initial command:
 /apps/gaussian/g16c01/g16/l1.exe "/jobfs/52716446.gadi-pbs/Gau-1330010.inp" -scrdir="/jobfs/52716446.gadi-pbs/"
 Entering Link 1 = /apps/gaussian/g16c01/g16/l1.exe PID=   1330011.
  
 Copyright (c) 1988-2019, Gaussian, Inc.  All Rights Reserved.
  
 This is part of the Gaussian(R) 16 program.  It is based on
 the Gaussian(R) 09 system (copyright 2009, Gaussian, Inc.),
 the Gaussian(R) 03 system (copyright 2003, Gaussian, Inc.),
 the Gaussian(R) 98 system (copyright 1998, Gaussian, Inc.),
 the Gaussian(R) 94 system (copyright 1995, Gaussian, Inc.),
 the Gaussian 92(TM) system (copyright 1992, Gaussian, Inc.),
 the Gaussian 90(TM) system (copyright 1990, Gaussian, Inc.),
 the Gaussian 88(TM) system (copyright 1988, Gaussian, Inc.),
 the Gaussian 86(TM) system (copyright 1986, Carnegie Mellon
 University), and the Gaussian 82(TM) system (copyright 1983,
 Carnegie Mellon University). Gaussian is a federally registered
 trademark of Gaussian, Inc.
  
 This software contains proprietary and confidential information,
 including trade secrets, belonging to Gaussian, Inc.
  
 This software is provided under written license and may be
 used, copied, transmitted, or stored only in accord with that
 written license.
  
 The following legend is applicable only to US Government
 contracts under FAR:
  
                    RESTRICTED RIGHTS LEGEND
  
 Use, reproduction and disclosure by the US Government is
 subject to restrictions as set forth in subparagraphs (a)
 and (c) of the Commercial Computer Software - Restricted
 Rights clause in FAR 52.227-19.
  
 Gaussian, Inc.
 340 Quinnipiac St., Bldg. 40, Wallingford CT 06492
  
  
 ---------------------------------------------------------------
 Warning -- This program may not be used in any manner that
 competes with the business of Gaussian, Inc. or will provide
 assistance to any competitor of Gaussian, Inc.  The licensee
 of this program is prohibited from giving any competitor of
 Gaussian, Inc. access to this program.  By using this program,
 the user acknowledges that Gaussian, Inc. is engaged in the
 business of creating and licensing software in the field of
 computational chemistry and represents and warrants to the
 licensee that it is not a competitor of Gaussian, Inc. and that
 it will not use this program in any manner prohibited above.
 ---------------------------------------------------------------
  

 Cite this work as:
 Gaussian 16, Revision C.01,
 M. J. Frisch, G. W. Trucks, H. B. Schlegel, G. E. Scuseria, 
 M. A. Robb, J. R. Cheeseman, G. Scalmani, V. Barone, 
 G. A. Petersson, H. Nakatsuji, X. Li, M. Caricato, A. V. Marenich, 
 J. Bloino, B. G. Janesko, R. Gomperts, B. Mennucci, H. P. Hratchian, 
 J. V. Ortiz, A. F. Izmaylov, J. L. Sonnenberg, D. Williams-Young, 
 F. Ding, F. Lipparini, F. Egidi, J. Goings, B. Peng, A. Petrone, 
 T. Henderson, D. Ranasinghe, V. G. Zakrzewski, J. Gao, N. Rega, 
 G. Zheng, W. Liang, M. Hada, M. Ehara, K. Toyota, R. Fukuda, 
 J. Hasegawa, M. Ishida, T. Nakajima, Y. Honda, O. Kitao, H. Nakai, 
 T. Vreven, K. Throssell, J. A. Montgomery, Jr., J. E. Peralta, 
 F. Ogliaro, M. J. Bearpark, J. J. Heyd, E. N. Brothers, K. N. Kudin, 
 V. N. Staroverov, T. A. Keith, R. Kobayashi, J. Normand, 
 K. Raghavachari, A. P. Rendell, J. C. Burant, S. S. Iyengar, 
 J. Tomasi, M. Cossi, J. M. Millam, M. Klene, C. Adamo, R. Cammi, 
 J. W. Ochterski, R. L. Martin, K. Morokuma, O. Farkas, 
 J. B. Foresman, and D. J. Fox, Gaussian, Inc., Wallingford CT, 2019.
 
 ******************************************
 Gaussian 16:  ES64L-G16RevC.01  3-Jul-2019
                26-Jul-2022 
 ******************************************
 %NProcShared=16
 Will use up to   16 processors via shared memory.
 %mem = 64GB
 ---------------------------------------------------------------
 #n M062X/6-311++G(d,p) TD(NStates=1) EmpiricalDispersion=GD3 SP
 ---------------------------------------------------------------
 1/38=1,172=1/1;
 2/12=2,17=6,18=5,40=1/2;
 3/5=4,6=6,7=1111,11=9,25=1,30=1,74=-55,124=31/1,2,3,8;
 4//1;
 5/5=2,38=5/2;
 8/6=1,10=2,108=1/1;
 9/41=1,42=1,70=2/14;
 6/7=2,8=2,9=2,10=2/1;
 99/5=1,9=1/99;
 ----
 SP_5
 ----
 Symbolic Z-matrix:
 Charge =  1 Multiplicity = 1
 C                     2.4927    1.2881    0.01 
 C                     3.7015    0.6327    0.077 
 C                     3.6839   -0.6891    0.069 
 C                     2.4632   -1.3189    0.002 
 C                    -2.4632   -1.4389    0.018 
 C                    -3.6839   -0.7391    0.101 
 C                    -3.7015    0.6927    0.093 
 C                    -2.4927    1.4181    0.01 
 C                     0.        1.4541   -0.075 
 C                     0.       -1.3915   -0.075 
 C                     1.2621    0.6797   -0.054 
 C                     1.2375   -0.7031   -0.066 
 C                    -1.2621    0.7097   -0.076 
 C                    -1.2375   -0.7231   -0.064 
 H                     2.4881    2.3023    0.01 
 H                     4.6368    1.1474    0.123 
 H                     4.6093   -1.2147    0.128 
 H                     2.4675   -2.3374    0.002 
 H                     0.       -2.4766   -0.08 
 H                    -2.4675   -2.6074    0.018 
 H                    -4.6093   -1.3147    0.132 
 H                    -4.6368    1.2574    0.137 
 H                    -2.4881    2.5923    0.01 
 H                     0.        2.1105   -0.9346 
 H                     0.        2.1105    0.7846 
 
                          Input orientation:                          
 ---------------------------------------------------------------------
 Center     Atomic      Atomic             Coordinates (Angstroms)
 Number     Number       Type             X           Y           Z
 ---------------------------------------------------------------------
      1          6           0        2.492700    1.288100    0.010000
      2          6           0        3.701500    0.632700    0.077000
      3          6           0        3.683900   -0.689100    0.069000
      4          6           0        2.463200   -1.318900    0.002000
      5          6           0       -2.463200   -1.438900    0.018000
      6          6           0       -3.683900   -0.739100    0.101000
      7          6           0       -3.701500    0.692700    0.093000
      8          6           0       -2.492700    1.418100    0.010000
      9          6           0        0.000000    1.454100   -0.075000
     10          6           0        0.000000   -1.391500   -0.075000
     11          6           0        1.262100    0.679700   -0.054000
     12          6           0        1.237500   -0.703100   -0.066000
     13          6           0       -1.262100    0.709700   -0.076000
     14          6           0       -1.237500   -0.723100   -0.064000
     15          1           0        2.488100    2.302300    0.010000
     16          1           0        4.636800    1.147400    0.123000
     17          1           0        4.609300   -1.214700    0.128000
     18          1           0        2.467500   -2.337400    0.002000
     19          1           0        0.000000   -2.476600   -0.080000
     20          1           0       -2.467500   -2.607400    0.018000
     21          1           0       -4.609300   -1.314700    0.132000
     22          1           0       -4.636800    1.257400    0.137000
     23          1           0       -2.488100    2.592300    0.010000
     24          1           0        0.000000    2.110500   -0.934600
     25          1           0        0.000000    2.110500    0.784600
 ---------------------------------------------------------------------
                    Distance matrix (angstroms):
                    1          2          3          4          5
     1  C    0.000000
     2  C    1.376676   0.000000
     3  C    2.309060   1.321941   0.000000
     4  C    2.607179   2.312521   1.375226   0.000000
     5  C    5.656637   6.503732   6.192870   4.927887   0.000000
     6  C    6.501400   7.511760   7.368039   6.175177   1.409510
     7  C    6.223303   7.403260   7.513593   6.485240   2.466319
     8  C    4.987095   6.244154   6.526420   5.661464   2.857163
     9  C    2.499667   3.794589   4.264406   3.709826   3.800717
    10  C    3.660742   4.221563   3.753028   2.465472   2.465411
    11  C    1.374272   2.443367   2.784575   2.332419   4.286200
    12  C    2.355033   2.806440   2.450162   1.373381   3.774074
    13  C    3.800061   4.966554   5.142041   4.242542   2.463323
    14  C    4.238490   5.123651   4.923314   3.748935   1.421771
    15  H    1.014210   2.065041   3.222094   3.621294   6.205805
    16  H    2.151681   1.068559   2.069702   3.289653   7.557114
    17  H    3.279928   2.059026   1.065881   2.152319   7.076908
    18  H    3.625596   3.217122   2.049637   1.018509   5.011922
    19  H    4.516040   4.836683   4.097374   2.722930   2.674655
    20  H    6.307025   6.968378   6.443772   5.096302   1.168508
    21  H    7.564910   8.536087   8.317001   7.073696   2.152712
    22  H    7.130697   8.361884   8.545615   7.554174   3.465362
    23  H    5.148719   6.492740   6.990326   6.309748   4.031285
    24  H    2.789653   4.111974   4.734564   4.324969   4.424143
    25  H    2.736768   4.047925   4.681983   4.294252   4.387855
                    6          7          8          9         10
     6  C    0.000000
     7  C    1.431931   0.000000
     8  C    2.465918   1.412194   0.000000
     9  C    4.290946   3.782731   2.494409   0.000000
    10  C    3.745360   4.251261   3.756944   2.845600   0.000000
    11  C    5.147809   4.965793   3.827251   1.480889   2.425532
    12  C    4.924364   5.134906   4.291813   2.486966   1.416115
    13  C    2.827625   2.445306   1.422534   1.465274   2.451110
    14  C    2.452010   2.846126   2.483091   2.504342   1.406515
    15  H    6.881277   6.396003   5.058674   2.630078   4.454439
    16  H    8.531906   8.350742   7.135532   4.651149   5.290097
    17  H    8.306870   8.526945   7.575220   5.330042   4.617154
    18  H    6.356421   6.873598   6.221529   4.524374   2.643712
    19  H    4.077105   4.876012   4.624969   3.930703   1.085112
    20  H    2.230933   3.524066   4.025587   4.753208   2.752384
    21  H    1.090248   2.203469   3.458768   5.380962   4.614585
    22  H    2.212539   1.093439   2.153861   4.645810   5.344299
    23  H    3.540684   2.255595   1.174209   2.737401   4.697715
    24  H    4.771143   4.094780   2.754131   1.081561   3.605956
    25  H    4.707297   4.023626   2.700551   1.081561   3.605956
                   11         12         13         14         15
    11  C    0.000000
    12  C    1.383071   0.000000
    13  C    2.524474   2.871255   0.000000
    14  C    2.866348   2.475082   1.433061   0.000000
    15  H    2.034700   3.256103   4.075263   4.799856   0.000000
    16  H    3.411550   3.874960   5.918463   6.167750   2.442023
    17  H    3.850406   3.415905   6.182093   5.870571   4.108857
    18  H    3.249464   2.046573   4.816723   4.041948   4.639753
    19  H    3.399383   2.162615   3.427159   2.146258   5.388564
    20  H    4.971934   4.166586   3.530578   2.251713   6.975901
    21  H    6.203674   5.882034   3.917296   3.428913   7.966848
    22  H    5.930197   6.196142   3.425485   3.939292   7.202232
    23  H    4.210242   4.974488   2.248256   3.544200   4.984643
    24  H    2.101319   3.194091   2.071794   3.212264   2.668276
    25  H    2.084067   3.189243   2.072624   3.206371   2.612936
                   16         17         18         19         20
    16  H    0.000000
    17  H    2.362265   0.000000
    18  H    4.106621   2.421495   0.000000
    19  H    5.888506   4.783440   2.472783   0.000000
    20  H    8.036207   7.213377   4.942406   2.472907   0.000000
    21  H    9.568301   9.219143   7.151497   4.758214   2.504272
    22  H    9.274263   9.570879   7.963158   5.957328   4.433588
    23  H    7.270812   8.054828   6.989991   5.647344   5.199747
    24  H    4.852421   5.782017   5.172001   4.666029   5.408751
    25  H    4.781756   5.721339   5.146342   4.667871   5.379109
                   21         22         23         24         25
    21  H    0.000000
    22  H    2.572252   0.000000
    23  H    4.447361   2.532785   0.000000
    24  H    5.840828   4.834875   2.704633   0.000000
    25  H    5.779579   4.758895   2.650052   1.719200   0.000000
 Stoichiometry    C14H11(1+)
 Framework group  C1[X(C14H11)]
 Deg. of freedom    69
 Full point group                 C1      NOp   1
 Largest Abelian subgroup         C1      NOp   1
 Largest concise Abelian subgroup C1      NOp   1
                         Standard orientation:                         
 ---------------------------------------------------------------------
 Center     Atomic      Atomic             Coordinates (Angstroms)
 Number     Number       Type             X           Y           Z
 ---------------------------------------------------------------------
      1          6           0        2.491141   -1.282665   -0.015584
      2          6           0        3.700586   -0.628605   -0.084009
      3          6           0        3.684588    0.693201   -0.073851
      4          6           0        2.464784    1.324352   -0.003338
      5          6           0       -2.461491    1.450270   -0.009050
      6          6           0       -3.683197    0.752065   -0.090671
      7          6           0       -3.702498   -0.679724   -0.084934
      8          6           0       -2.494401   -1.406702   -0.005576
      9          6           0       -0.001577   -1.445820    0.074258
     10          6           0        0.001836    1.399774    0.078826
     11          6           0        1.261405   -0.672898    0.051915
     12          6           0        1.238488    0.709910    0.066185
     13          6           0       -1.262779   -0.699914    0.079039
     14          6           0       -1.236485    0.732873    0.069289
     15          1           0        2.485324   -2.296858   -0.017202
     16          1           0        4.635172   -1.144349   -0.132751
     17          1           0        4.610495    1.217787   -0.133903
     18          1           0        2.470306    2.342845   -0.001712
     19          1           0        0.003148    2.484864    0.085568
     20          1           0       -2.464389    2.618773   -0.007165
     21          1           0       -4.607967    1.328820   -0.118851
     22          1           0       -4.638562   -1.243234   -0.127923
     23          1           0       -2.491209   -2.580905   -0.007470
     24          1           0       -0.000605   -2.103601    0.932801
     25          1           0       -0.004124   -2.100837   -0.786393
 ---------------------------------------------------------------------
 Rotational constants (GHZ):           2.1687077           0.4443098           0.3699874
 Standard basis: 6-311++G(d,p) (5D, 7F)
 There are   399 symmetry adapted cartesian basis functions of A   symmetry.
 There are   385 symmetry adapted basis functions of A   symmetry.
   385 basis functions,   603 primitive gaussians,   399 cartesian basis functions
    47 alpha electrons       47 beta electrons
       nuclear repulsion energy       783.7988746485 Hartrees.
 NAtoms=   25 NActive=   25 NUniq=   25 SFac= 1.00D+00 NAtFMM=   60 NAOKFM=F Big=F
 Integral buffers will be    131072 words long.
 Regular integral format.
 Two-electron integral symmetry is turned on.
 Nuclear repulsion after empirical dispersion term =      783.7978997351 Hartrees.
 One-electron integrals computed using PRISM.
 NBasis=   385 RedAO= T EigKep=  1.12D-06  NBF=   385
 NBsUse=   379 1.00D-06 EigRej=  8.16D-07 NBFU=   379
 ExpMin= 3.60D-02 ExpMax= 4.56D+03 ExpMxC= 6.82D+02 IAcc=3 IRadAn=         5 AccDes= 0.00D+00
 Harris functional with IExCor= 1009 and IRadAn=       5 diagonalized for initial guess.
 HarFok:  IExCor= 1009 AccDes= 0.00D+00 IRadAn=         5 IDoV= 1 UseB2=F ITyADJ=14
 ICtDFT=  3500011 ScaDFX=  1.000000  1.000000  1.000000  1.000000
 FoFCou: FMM=F IPFlag=           0 FMFlag=      100000 FMFlg1=           0
         NFxFlg=           0 DoJE=T BraDBF=F KetDBF=T FulRan=T
         wScrn=  0.000000 ICntrl=       500 IOpCl=  0 I1Cent=   200000004 NGrid=           0
         NMat0=    1 NMatS0=      1 NMatT0=    0 NMatD0=    1 NMtDS0=    0 NMtDT0=    0
 Petite list used in FoFCou.
 Requested convergence on RMS density matrix=1.00D-08 within 128 cycles.
 Requested convergence on MAX density matrix=1.00D-06.
 Requested convergence on             energy=1.00D-06.
 No special actions if energy rises.
 SCF Done:  E(RM062X) =  -539.728242524     A.U. after   16 cycles
            NFock= 16  Conv=0.47D-08     -V/T= 2.0035
 DoSCS=F DFT=T ScalE2(SS,OS)=  1.000000  1.000000
 ExpMin= 3.60D-02 ExpMax= 4.56D+03 ExpMxC= 6.82D+02 IAcc=3 IRadAn=         5 AccDes= 0.00D+00
 HarFok:  IExCor=  205 AccDes= 0.00D+00 IRadAn=         5 IDoV=-2 UseB2=F ITyADJ=14
 ICtDFT= 12500011 ScaDFX=  1.000000  1.000000  1.000000  1.000000
 Range of M.O.s used for correlation:    15   379
 NBasis=   385 NAE=    47 NBE=    47 NFC=    14 NFV=     0
 NROrb=    365 NOA=    33 NOB=    33 NVA=   332 NVB=   332

 **** Warning!!: The largest alpha MO coefficient is  0.15030449D+03

 Orbital symmetries:
       Occupied  (A) (A) (A) (A) (A) (A) (A) (A) (A) (A) (A) (A)
                 (A) (A) (A) (A) (A) (A) (A) (A) (A) (A) (A) (A)
                 (A) (A) (A) (A) (A) (A) (A) (A) (A) (A) (A) (A)
                 (A) (A) (A) (A) (A) (A) (A) (A) (A) (A) (A)
       Virtual   (A) (A) (A) (A) (A) (A) (A) (A) (A) (A) (A) (A)
                 (A) (A) (A) (A) (A) (A) (A) (A) (A) (A) (A) (A)
                 (A) (A) (A) (A) (A) (A) (A) (A) (A) (A) (A) (A)
                 (A) (A) (A) (A) (A) (A) (A) (A) (A) (A) (A) (A)
                 (A) (A) (A) (A) (A) (A) (A) (A) (A) (A) (A) (A)
                 (A) (A) (A) (A) (A) (A) (A) (A) (A) (A) (A) (A)
                 (A) (A) (A) (A) (A) (A) (A) (A) (A) (A) (A) (A)
                 (A) (A) (A) (A) (A) (A) (A) (A) (A) (A) (A) (A)
                 (A) (A) (A) (A) (A) (A) (A) (A) (A) (A) (A) (A)
                 (A) (A) (A) (A) (A) (A) (A) (A) (A) (A) (A) (A)
                 (A) (A) (A) (A) (A) (A) (A) (A) (A) (A) (A) (A)
                 (A) (A) (A) (A) (A) (A) (A) (A) (A) (A) (A) (A)
                 (A) (A) (A) (A) (A) (A) (A) (A) (A) (A) (A) (A)
                 (A) (A) (A) (A) (A) (A) (A) (A) (A) (A) (A) (A)
                 (A) (A) (A) (A) (A) (A) (A) (A) (A) (A) (A) (A)
                 (A) (A) (A) (A) (A) (A) (A) (A) (A) (A) (A) (A)
                 (A) (A) (A) (A) (A) (A) (A) (A) (A) (A) (A) (A)
                 (A) (A) (A) (A) (A) (A) (A) (A) (A) (A) (A) (A)
                 (A) (A) (A) (A) (A) (A) (A) (A) (A) (A) (A) (A)
                 (A) (A) (A) (A) (A) (A) (A) (A) (A) (A) (A) (A)
                 (A) (A) (A) (A) (A) (A) (A) (A) (A) (A) (A) (A)
                 (A) (A) (A) (A) (A) (A) (A) (A) (A) (A) (A) (A)
                 (A) (A) (A) (A) (A) (A) (A) (A) (A) (A) (A) (A)
                 (A) (A) (A) (A) (A) (A) (A) (A) (A) (A) (A) (A)
                 (A) (A) (A) (A) (A) (A) (A) (A) (A) (A) (A) (A)
                 (A) (A) (A) (A) (A) (A) (A) (A) (A) (A) (A) (A)
                 (A) (A) (A) (A) (A) (A) (A) (A) (A) (A) (A) (A)
                 (A) (A) (A) (A) (A) (A) (A) (A)
     4 initial guesses have been made.
 Convergence on wavefunction:    0.001000000000000
 Iteration     1 Dimension     4 NMult     0 NNew      4
 CISAX will form     4 AO SS matrices at one time.
 Iteration     2 Dimension     6 NMult     4 NNew      2
 Iteration     3 Dimension     8 NMult     6 NNew      2
 Iteration     4 Dimension    10 NMult     8 NNew      2
 Iteration     5 Dimension    12 NMult    10 NNew      2
 Iteration     6 Dimension    14 NMult    12 NNew      2
 ***********************************************************************
 Excited states from <AA,BB:AA,BB> singles matrix:
 ***********************************************************************
 
 Ground to excited state transition densities written to RWF  633
 Ground to excited state transition electric dipole moments (Au):
       state          X           Y           Z        Dip. S.      Osc.
         1        -0.2848     -0.6331      0.0246      0.4825      0.0340
 Ground to excited state transition velocity dipole moments (Au):
       state          X           Y           Z        Dip. S.      Osc.
         1         0.0304      0.0749     -0.0028      0.0065      0.0412
 Ground to excited state transition magnetic dipole moments (Au):
       state          X           Y           Z
         1         0.0451      0.0019     -0.2467
 Ground to excited state transition velocity quadrupole moments (Au):
       state          XX          YY          ZZ          XY          XZ          YZ
         1         0.2992      0.0352     -0.0094     -0.0171     -0.0006      0.0105
 <0|del|b> * <b|rxdel|0> + <0|del|b> * <b|delr+rdel|0>
 Rotatory Strengths (R) in cgs (10**-40 erg-esu-cm/Gauss)
       state          XX          YY          ZZ    R(velocity)    E-M Angle
         1         3.0498      7.7544      3.8666      4.8903       83.79
 1/2[<0|r|b>*<b|rxdel|0> + (<0|rxdel|b>*<b|r|0>)*]
 Rotatory Strengths (R) in cgs (10**-40 erg-esu-cm/Gauss)
       state          XX          YY          ZZ     R(length)
         1         9.0920      0.8657      4.2898      4.7492
  1/2[<0|del|b>*<b|r|0> + (<0|r|b>*<b|del|0>)*] (Au)
       state          X           Y           Z        Dip. S.   Osc.(frdel)
         1        -0.0086     -0.0474     -0.0001      0.0561      0.0374

 Excitation energies and oscillator strengths:
 
 Excited State   1:      Singlet-A      2.8789 eV  430.66 nm  f=0.0340  <S**2>=0.000
      47 -> 48         0.69968
 This state for optimization and/or second-order correction.
 Total Energy, E(TD-HF/TD-DFT) =  -539.622444664    
 Copying the excited state density for this state as the 1-particle RhoCI density.
 SavETr:  write IOETrn=   770 NScale= 10 NData=  16 NLR=1 NState=    1 LETran=      28.

 **********************************************************************

            Population analysis using the SCF Density.

 **********************************************************************

 Orbital symmetries:
       Occupied  (A) (A) (A) (A) (A) (A) (A) (A) (A) (A) (A) (A)
                 (A) (A) (A) (A) (A) (A) (A) (A) (A) (A) (A) (A)
                 (A) (A) (A) (A) (A) (A) (A) (A) (A) (A) (A) (A)
                 (A) (A) (A) (A) (A) (A) (A) (A) (A) (A) (A)
       Virtual   (A) (A) (A) (A) (A) (A) (A) (A) (A) (A) (A) (A)
                 (A) (A) (A) (A) (A) (A) (A) (A) (A) (A) (A) (A)
                 (A) (A) (A) (A) (A) (A) (A) (A) (A) (A) (A) (A)
                 (A) (A) (A) (A) (A) (A) (A) (A) (A) (A) (A) (A)
                 (A) (A) (A) (A) (A) (A) (A) (A) (A) (A) (A) (A)
                 (A) (A) (A) (A) (A) (A) (A) (A) (A) (A) (A) (A)
                 (A) (A) (A) (A) (A) (A) (A) (A) (A) (A) (A) (A)
                 (A) (A) (A) (A) (A) (A) (A) (A) (A) (A) (A) (A)
                 (A) (A) (A) (A) (A) (A) (A) (A) (A) (A) (A) (A)
                 (A) (A) (A) (A) (A) (A) (A) (A) (A) (A) (A) (A)
                 (A) (A) (A) (A) (A) (A) (A) (A) (A) (A) (A) (A)
                 (A) (A) (A) (A) (A) (A) (A) (A) (A) (A) (A) (A)
                 (A) (A) (A) (A) (A) (A) (A) (A) (A) (A) (A) (A)
                 (A) (A) (A) (A) (A) (A) (A) (A) (A) (A) (A) (A)
                 (A) (A) (A) (A) (A) (A) (A) (A) (A) (A) (A) (A)
                 (A) (A) (A) (A) (A) (A) (A) (A) (A) (A) (A) (A)
                 (A) (A) (A) (A) (A) (A) (A) (A) (A) (A) (A) (A)
                 (A) (A) (A) (A) (A) (A) (A) (A) (A) (A) (A) (A)
                 (A) (A) (A) (A) (A) (A) (A) (A) (A) (A) (A) (A)
                 (A) (A) (A) (A) (A) (A) (A) (A) (A) (A) (A) (A)
                 (A) (A) (A) (A) (A) (A) (A) (A) (A) (A) (A) (A)
                 (A) (A) (A) (A) (A) (A) (A) (A) (A) (A) (A) (A)
                 (A) (A) (A) (A) (A) (A) (A) (A) (A) (A) (A) (A)
                 (A) (A) (A) (A) (A) (A) (A) (A) (A) (A) (A) (A)
                 (A) (A) (A) (A) (A) (A) (A) (A) (A) (A) (A) (A)
                 (A) (A) (A) (A) (A) (A) (A) (A) (A) (A) (A) (A)
                 (A) (A) (A) (A) (A) (A) (A) (A) (A) (A) (A) (A)
                 (A) (A) (A) (A) (A) (A) (A) (A)
 The electronic state is 1-A.
 Alpha  occ. eigenvalues --  -10.77366 -10.74209 -10.73063 -10.72854 -10.72586
 Alpha  occ. eigenvalues --  -10.71855 -10.71679 -10.71438 -10.70789 -10.70458
 Alpha  occ. eigenvalues --  -10.69761 -10.69393 -10.68087 -10.68067  -1.16963
 Alpha  occ. eigenvalues --   -1.12857  -1.07245  -1.06090  -1.01381  -1.00642
 Alpha  occ. eigenvalues --   -0.95903  -0.91434  -0.86605  -0.86074  -0.83577
 Alpha  occ. eigenvalues --   -0.78566  -0.76677  -0.74091  -0.70094  -0.69208
 Alpha  occ. eigenvalues --   -0.68966  -0.68244  -0.68109  -0.64456  -0.63652
 Alpha  occ. eigenvalues --   -0.63469  -0.61743  -0.60818  -0.59617  -0.59274
 Alpha  occ. eigenvalues --   -0.56529  -0.55305  -0.54494  -0.52637  -0.46791
 Alpha  occ. eigenvalues --   -0.46233  -0.44626
 Alpha virt. eigenvalues --   -0.26015  -0.14699  -0.14106  -0.12382  -0.11182
 Alpha virt. eigenvalues --   -0.10074  -0.09307  -0.08038  -0.07887  -0.07507
 Alpha virt. eigenvalues --   -0.07242  -0.07053  -0.05681  -0.05565  -0.05310
 Alpha virt. eigenvalues --   -0.04064  -0.03649  -0.03224  -0.03118  -0.02123
 Alpha virt. eigenvalues --   -0.01471  -0.00912   0.00193   0.00486   0.00601
 Alpha virt. eigenvalues --    0.01087   0.01407   0.01934   0.02071   0.02391
 Alpha virt. eigenvalues --    0.02456   0.02652   0.02751   0.03293   0.03405
 Alpha virt. eigenvalues --    0.04130   0.04310   0.04966   0.05180   0.05472
 Alpha virt. eigenvalues --    0.05620   0.06172   0.06933   0.07000   0.07290
 Alpha virt. eigenvalues --    0.07770   0.07866   0.08199   0.08777   0.09166
 Alpha virt. eigenvalues --    0.09324   0.09632   0.09866   0.10500   0.11137
 Alpha virt. eigenvalues --    0.11338   0.11987   0.12230   0.12949   0.13077
 Alpha virt. eigenvalues --    0.13208   0.13358   0.14483   0.14732   0.15977
 Alpha virt. eigenvalues --    0.16078   0.16567   0.17189   0.17582   0.18180
 Alpha virt. eigenvalues --    0.18322   0.18820   0.19140   0.19714   0.20630
 Alpha virt. eigenvalues --    0.20992   0.21640   0.22085   0.23166   0.24235
 Alpha virt. eigenvalues --    0.24426   0.25095   0.25563   0.26828   0.27860
 Alpha virt. eigenvalues --    0.28865   0.28957   0.30395   0.31497   0.35890
 Alpha virt. eigenvalues --    0.36803   0.38247   0.38742   0.40863   0.41515
 Alpha virt. eigenvalues --    0.42168   0.42357   0.42888   0.43732   0.44119
 Alpha virt. eigenvalues --    0.44408   0.44906   0.46536   0.47986   0.48416
 Alpha virt. eigenvalues --    0.48513   0.48530   0.48822   0.50217   0.50602
 Alpha virt. eigenvalues --    0.51122   0.52015   0.52429   0.52952   0.54070
 Alpha virt. eigenvalues --    0.54309   0.54755   0.55593   0.56476   0.58104
 Alpha virt. eigenvalues --    0.58696   0.59269   0.61075   0.61653   0.62097
 Alpha virt. eigenvalues --    0.63513   0.63634   0.65154   0.66215   0.66819
 Alpha virt. eigenvalues --    0.69370   0.70771   0.71439   0.72569   0.72784
 Alpha virt. eigenvalues --    0.74275   0.75625   0.76264   0.76729   0.77188
 Alpha virt. eigenvalues --    0.77787   0.78317   0.78615   0.79983   0.80907
 Alpha virt. eigenvalues --    0.81474   0.81786   0.82618   0.83884   0.84901
 Alpha virt. eigenvalues --    0.85929   0.87257   0.88476   0.89205   0.90509
 Alpha virt. eigenvalues --    0.91638   0.92260   0.93060   0.93709   0.95340
 Alpha virt. eigenvalues --    0.97539   0.99566   1.00470   1.01980   1.03101
 Alpha virt. eigenvalues --    1.03224   1.05348   1.07410   1.08187   1.08831
 Alpha virt. eigenvalues --    1.19979   1.21271   1.25610   1.26655   1.29135
 Alpha virt. eigenvalues --    1.29714   1.32297   1.33485   1.35242   1.36121
 Alpha virt. eigenvalues --    1.37907   1.39792   1.41633   1.42681   1.43325
 Alpha virt. eigenvalues --    1.43687   1.43939   1.45061   1.47546   1.47999
 Alpha virt. eigenvalues --    1.49583   1.50154   1.51587   1.54256   1.54823
 Alpha virt. eigenvalues --    1.55687   1.56201   1.58879   1.60369   1.61242
 Alpha virt. eigenvalues --    1.61728   1.62060   1.65290   1.66024   1.67109
 Alpha virt. eigenvalues --    1.68623   1.69233   1.70935   1.74090   1.76215
 Alpha virt. eigenvalues --    1.76849   1.77906   1.78361   1.80769   1.81816
 Alpha virt. eigenvalues --    1.82220   1.82813   1.84450   1.84611   1.85208
 Alpha virt. eigenvalues --    1.85829   1.86235   1.87041   1.89332   1.91725
 Alpha virt. eigenvalues --    1.91934   1.95554   1.95665   1.96654   2.00785
 Alpha virt. eigenvalues --    2.01346   2.02978   2.05227   2.06572   2.11156
 Alpha virt. eigenvalues --    2.12032   2.15176   2.16923   2.17999   2.22449
 Alpha virt. eigenvalues --    2.24953   2.25879   2.26752   2.33468   2.35638
 Alpha virt. eigenvalues --    2.36912   2.37435   2.41138   2.42211   2.43264
 Alpha virt. eigenvalues --    2.46304   2.46948   2.48396   2.53625   2.53972
 Alpha virt. eigenvalues --    2.56358   2.56653   2.58727   2.59281   2.59397
 Alpha virt. eigenvalues --    2.60848   2.61925   2.62706   2.63220   2.64825
 Alpha virt. eigenvalues --    2.65116   2.65890   2.66167   2.67882   2.68393
 Alpha virt. eigenvalues --    2.70087   2.70506   2.72323   2.73885   2.75503
 Alpha virt. eigenvalues --    2.75979   2.76822   2.80204   2.83815   2.87249
 Alpha virt. eigenvalues --    2.90460   2.92855   2.93238   2.96584   2.97817
 Alpha virt. eigenvalues --    3.03322   3.06565   3.07200   3.10423   3.19697
 Alpha virt. eigenvalues --    3.20025   3.22057   3.25664   3.28839   3.32047
 Alpha virt. eigenvalues --    3.35994   3.36891   3.37832   3.39055   3.48842
 Alpha virt. eigenvalues --    3.52671   3.57736   3.60018   3.63038   3.73046
 Alpha virt. eigenvalues --    3.75122   3.88359   3.89713   3.98774   4.01249
 Alpha virt. eigenvalues --    4.02561   4.03818   4.10436   4.15227   4.36774
 Alpha virt. eigenvalues --    4.63245   4.66411   4.74530  23.44021  23.60580
 Alpha virt. eigenvalues --   23.78562  23.81421  23.86334  23.91231  23.91558
 Alpha virt. eigenvalues --   23.93599  23.96226  23.99103  24.00490  24.12489
 Alpha virt. eigenvalues --   24.14002  24.29774
          Condensed to atoms (all electrons):
               1          2          3          4          5          6
     1  C    9.392786   0.056959  -0.308729   2.154483  -0.214144  -0.108888
     2  C    0.056959   7.521759   0.450032  -1.107918   0.045208  -0.015588
     3  C   -0.308729   0.450032   6.916460   0.658248  -0.181733   0.019735
     4  C    2.154483  -1.107918   0.658248  11.156183  -0.400662  -0.082080
     5  C   -0.214144   0.045208  -0.181733  -0.400662  11.855665   0.423266
     6  C   -0.108888  -0.015588   0.019735  -0.082080   0.423266   6.562246
     7  C    0.005987  -0.003355  -0.013892  -0.067751  -1.006163   0.319074
     8  C    0.422253  -0.011703  -0.099840  -0.019204   2.185114  -0.812974
     9  C   -0.960121  -1.024015   0.315867  -0.569306   0.328813   0.295942
    10  C   -1.669000   0.246141  -0.514909  -2.603742  -2.355877  -0.201645
    11  C    0.801521  -1.336180   0.954683  -0.329658  -1.598961  -0.120828
    12  C   -3.103478   1.705533  -1.841021  -1.161050  -0.239035  -0.246307
    13  C    0.546572  -0.296356  -0.170009  -1.516749  -0.561086   1.133793
    14  C   -1.520217  -0.148067  -0.107808  -0.435819  -2.671652  -1.044503
    15  H    0.372451  -0.101733  -0.010386   0.023219   0.003225   0.000925
    16  H   -0.019660   0.398229  -0.023037   0.015143  -0.001030  -0.000237
    17  H   -0.032095  -0.010548   0.388641  -0.065958  -0.000640   0.000251
    18  H    0.047405  -0.012702  -0.092004   0.476685   0.012988  -0.004269
    19  H   -0.037328  -0.012933   0.059809  -0.039918  -0.105785   0.053036
    20  H    0.004624   0.002953  -0.005343   0.002380   0.447072  -0.082522
    21  H   -0.001271  -0.000300   0.000461   0.000350  -0.075165   0.383941
    22  H    0.000833   0.000352  -0.000309  -0.001957   0.005771  -0.016148
    23  H    0.007518  -0.002396   0.001413   0.007502   0.024638  -0.007761
    24  H    0.019077   0.007387   0.003871  -0.012819  -0.013916   0.005216
    25  H    0.075836   0.027049  -0.008868  -0.019311  -0.009887  -0.006437
               7          8          9         10         11         12
     1  C    0.005987   0.422253  -0.960121  -1.669000   0.801521  -3.103478
     2  C   -0.003355  -0.011703  -1.024015   0.246141  -1.336180   1.705533
     3  C   -0.013892  -0.099840   0.315867  -0.514909   0.954683  -1.841021
     4  C   -0.067751  -0.019204  -0.569306  -2.603742  -0.329658  -1.161050
     5  C   -1.006163   2.185114   0.328813  -2.355877  -1.598961  -0.239035
     6  C    0.319074  -0.812974   0.295942  -0.201645  -0.120828  -0.246307
     7  C    6.977612   0.330576  -0.736330   0.187302  -0.273374  -0.226080
     8  C    0.330576   8.726357  -0.962803  -1.174251   0.144882  -0.778726
     9  C   -0.736330  -0.962803   9.751499   0.187470   1.521014  -2.141199
    10  C    0.187302  -1.174251   0.187470   9.196857  -0.715050   2.516008
    11  C   -0.273374   0.144882   1.521014  -0.715050  13.581718  -2.824523
    12  C   -0.226080  -0.778726  -2.141199   2.516008  -2.824523  16.287234
    13  C   -0.532874  -0.438100   1.547273  -0.552427   0.668346  -5.158207
    14  C    1.175735  -2.013154  -2.168260   2.881412  -3.930285   2.803655
    15  H   -0.001733   0.004985   0.086081  -0.002674  -0.024333  -0.000444
    16  H    0.000121   0.000712  -0.004783  -0.011241   0.003211  -0.014122
    17  H   -0.000281  -0.001378  -0.004961   0.016511  -0.020906   0.076154
    18  H    0.001679   0.007964  -0.026192   0.022432   0.002946  -0.044092
    19  H   -0.005031  -0.052545   0.071581   0.401909   0.086154  -0.106242
    20  H   -0.000853   0.051868  -0.016418   0.023880  -0.012965  -0.005820
    21  H   -0.025022  -0.031761  -0.002673   0.022176  -0.002488   0.003231
    22  H    0.376608  -0.022168   0.004868  -0.007844   0.001260  -0.008074
    23  H   -0.086741   0.344230   0.094970  -0.008089   0.006658   0.008625
    24  H    0.016274   0.009426   0.373800   0.007186  -0.011409  -0.059071
    25  H    0.017409   0.068428   0.348114  -0.002365   0.005994  -0.071036
              13         14         15         16         17         18
     1  C    0.546572  -1.520217   0.372451  -0.019660  -0.032095   0.047405
     2  C   -0.296356  -0.148067  -0.101733   0.398229  -0.010548  -0.012702
     3  C   -0.170009  -0.107808  -0.010386  -0.023037   0.388641  -0.092004
     4  C   -1.516749  -0.435819   0.023219   0.015143  -0.065958   0.476685
     5  C   -0.561086  -2.671652   0.003225  -0.001030  -0.000640   0.012988
     6  C    1.133793  -1.044503   0.000925  -0.000237   0.000251  -0.004269
     7  C   -0.532874   1.175735  -0.001733   0.000121  -0.000281   0.001679
     8  C   -0.438100  -2.013154   0.004985   0.000712  -0.001378   0.007964
     9  C    1.547273  -2.168260   0.086081  -0.004783  -0.004961  -0.026192
    10  C   -0.552427   2.881412  -0.002674  -0.011241   0.016511   0.022432
    11  C    0.668346  -3.930285  -0.024333   0.003211  -0.020906   0.002946
    12  C   -5.158207   2.803655  -0.000444  -0.014122   0.076154  -0.044092
    13  C   15.653032  -3.673256  -0.004766   0.002113  -0.005712  -0.012933
    14  C   -3.673256  16.421927   0.002741  -0.006905   0.005027  -0.025486
    15  H   -0.004766   0.002741   0.456641  -0.009239   0.001040   0.000096
    16  H    0.002113  -0.006905  -0.009239   0.428004  -0.007628   0.001423
    17  H   -0.005712   0.005027   0.001040  -0.007628   0.429359  -0.009740
    18  H   -0.012933  -0.025486   0.000096   0.001423  -0.009740   0.469820
    19  H    0.073729  -0.016489   0.000433  -0.000633   0.001049  -0.005109
    20  H   -0.010931  -0.081417  -0.000126   0.000019  -0.000113   0.001083
    21  H   -0.010119   0.082055   0.000009  -0.000004   0.000009  -0.000171
    22  H    0.030013  -0.027060  -0.000139   0.000005  -0.000005   0.000015
    23  H   -0.054429  -0.021687   0.000392  -0.000075   0.000020  -0.000118
    24  H    0.033603  -0.041602  -0.000256   0.000148  -0.000035  -0.000066
    25  H    0.012020  -0.102033  -0.002339   0.000835  -0.000327   0.000798
              19         20         21         22         23         24
     1  C   -0.037328   0.004624  -0.001271   0.000833   0.007518   0.019077
     2  C   -0.012933   0.002953  -0.000300   0.000352  -0.002396   0.007387
     3  C    0.059809  -0.005343   0.000461  -0.000309   0.001413   0.003871
     4  C   -0.039918   0.002380   0.000350  -0.001957   0.007502  -0.012819
     5  C   -0.105785   0.447072  -0.075165   0.005771   0.024638  -0.013916
     6  C    0.053036  -0.082522   0.383941  -0.016148  -0.007761   0.005216
     7  C   -0.005031  -0.000853  -0.025022   0.376608  -0.086741   0.016274
     8  C   -0.052545   0.051868  -0.031761  -0.022168   0.344230   0.009426
     9  C    0.071581  -0.016418  -0.002673   0.004868   0.094970   0.373800
    10  C    0.401909   0.023880   0.022176  -0.007844  -0.008089   0.007186
    11  C    0.086154  -0.012965  -0.002488   0.001260   0.006658  -0.011409
    12  C   -0.106242  -0.005820   0.003231  -0.008074   0.008625  -0.059071
    13  C    0.073729  -0.010931  -0.010119   0.030013  -0.054429   0.033603
    14  C   -0.016489  -0.081417   0.082055  -0.027060  -0.021687  -0.041602
    15  H    0.000433  -0.000126   0.000009  -0.000139   0.000392  -0.000256
    16  H   -0.000633   0.000019  -0.000004   0.000005  -0.000075   0.000148
    17  H    0.001049  -0.000113   0.000009  -0.000005   0.000020  -0.000035
    18  H   -0.005109   0.001083  -0.000171   0.000015  -0.000118  -0.000066
    19  H    0.448483  -0.006461   0.001999  -0.000422   0.000196   0.001340
    20  H   -0.006461   0.436155  -0.008841   0.001492   0.000331  -0.000089
    21  H    0.001999  -0.008841   0.420066  -0.005726   0.001025   0.000004
    22  H   -0.000422   0.001492  -0.005726   0.412564  -0.007126   0.000369
    23  H    0.000196   0.000331   0.001025  -0.007126   0.421659  -0.000431
    24  H    0.001340  -0.000089   0.000004   0.000369  -0.000431   0.482919
    25  H   -0.000261   0.000372  -0.000203   0.001122  -0.000378  -0.070261
              25
     1  C    0.075836
     2  C    0.027049
     3  C   -0.008868
     4  C   -0.019311
     5  C   -0.009887
     6  C   -0.006437
     7  C    0.017409
     8  C    0.068428
     9  C    0.348114
    10  C   -0.002365
    11  C    0.005994
    12  C   -0.071036
    13  C    0.012020
    14  C   -0.102033
    15  H   -0.002339
    16  H    0.000835
    17  H   -0.000327
    18  H    0.000798
    19  H   -0.000261
    20  H    0.000372
    21  H   -0.000203
    22  H    0.001122
    23  H   -0.000378
    24  H   -0.070261
    25  H    0.496448
 Mulliken charges:
               1
     1  C    0.066627
     2  C   -0.377808
     3  C   -0.391331
     4  C   -0.060290
     5  C    0.103978
     6  C   -0.447237
     7  C   -0.428897
     8  C    0.121813
     9  C   -0.310231
    10  C    0.109830
    11  C   -0.577424
    12  C    0.628088
    13  C   -0.702541
    14  C    0.663148
    15  H    0.205929
    16  H    0.248631
    17  H    0.242264
    18  H    0.187549
    19  H    0.189439
    20  H    0.259671
    21  H    0.248419
    22  H    0.261706
    23  H    0.270052
    24  H    0.249335
    25  H    0.239280
 Sum of Mulliken charges =   1.00000
 Mulliken charges with hydrogens summed into heavy atoms:
               1
     1  C    0.272557
     2  C   -0.129177
     3  C   -0.149067
     4  C    0.127259
     5  C    0.363649
     6  C   -0.198818
     7  C   -0.167191
     8  C    0.391865
     9  C    0.178384
    10  C    0.299269
    11  C   -0.577424
    12  C    0.628088
    13  C   -0.702541
    14  C    0.663148
 Electronic spatial extent (au):  <R**2>=           2848.3896
 Charge=              1.0000 electrons
 Dipole moment (field-independent basis, Debye):
    X=             -0.5904    Y=              0.2093    Z=             -0.0801  Tot=              0.6315
 Quadrupole moment (field-independent basis, Debye-Ang):
   XX=            -30.3556   YY=            -56.9788   ZZ=            -83.7950
   XY=              0.3780   XZ=             -0.0874   YZ=              0.1009
 Traceless Quadrupole moment (field-independent basis, Debye-Ang):
   XX=             26.6876   YY=              0.0643   ZZ=            -26.7519
   XY=              0.3780   XZ=             -0.0874   YZ=              0.1009
 Octapole moment (field-independent basis, Debye-Ang**2):
  XXX=             -0.5935  YYY=              5.2265  ZZZ=              0.4324  XYY=             -7.0497
  XXY=             -3.8599  XXZ=             -7.3715  XZZ=              2.7889  YZZ=             -3.1029
  YYZ=              0.1870  XYZ=             -0.1213
 Hexadecapole moment (field-independent basis, Debye-Ang**3):
 XXXX=          -2103.4728 YYYY=           -602.7523 ZZZZ=           -100.7211 XXXY=              4.7093
 XXXZ=             -2.2952 YYYX=              0.0835 YYYZ=              0.6673 ZZZX=             -0.4749
 ZZZY=             -0.4337 XXYY=           -507.4122 XXZZ=           -588.0757 YYZZ=           -144.1473
 XXYZ=              0.8568 YYXZ=              0.1159 ZZXY=              0.4390
 N-N= 7.837978997351D+02 E-N=-2.804123098118D+03  KE= 5.378267578458D+02
 Unable to Open any file for archive entry.
 1\1\GINC-GADI-CPU-CLX-0072\SP\RM062X TD-FC\6-311++G(d,p)\C14H11(1+)\TS
 1578\26-Jul-2022\0\\#n M062X/6-311++G(d,p) TD(NStates=1) EmpiricalDisp
 ersion=GD3 SP\\SP_5\\1,1\C,0,2.4927,1.2881,0.01\C,0,3.7015,0.6327,0.07
 7\C,0,3.6839,-0.6891,0.069\C,0,2.4632,-1.3189,0.002\C,0,-2.4632,-1.438
 9,0.018\C,0,-3.6839,-0.7391,0.101\C,0,-3.7015,0.6927,0.093\C,0,-2.4927
 ,1.4181,0.01\C,0,0.,1.4541,-0.075\C,0,0.,-1.3915,-0.075\C,0,1.2621,0.6
 797,-0.054\C,0,1.2375,-0.7031,-0.066\C,0,-1.2621,0.7097,-0.076\C,0,-1.
 2375,-0.7231,-0.064\H,0,2.4881,2.3023,0.01\H,0,4.6368,1.1474,0.123\H,0
 ,4.6093,-1.2147,0.128\H,0,2.4675,-2.3374,0.002\H,0,0.,-2.4766,-0.08\H,
 0,-2.4675,-2.6074,0.018\H,0,-4.6093,-1.3147,0.132\H,0,-4.6368,1.2574,0
 .137\H,0,-2.4881,2.5923,0.01\H,0,0.,2.1105,-0.9346\H,0,0.,2.1105,0.784
 6\\Version=ES64L-G16RevC.01\State=1-A\HF=-539.7282425\RMSD=4.722e-09\P
 G=C01 [X(C14H11)]\\@
 The archive entry for this job was punched.


 The most important thing in communication is to hear what isn't being said.
 -- Peter F. Drucker
 Job cpu time:       0 days  1 hours  4 minutes 50.1 seconds.
 Elapsed time:       0 days  0 hours  6 minutes 36.0 seconds.
 File lengths (MBytes):  RWF=    460 Int=      0 D2E=      0 Chk=     15 Scr=      1
 Normal termination of Gaussian 16 at Tue Jul 26 20:18:32 2022.
