 Entering Gaussian System, Link 0=g16
 Initial command:
 /apps/gaussian/g16c01/g16/l1.exe "/jobfs/52716446.gadi-pbs/Gau-1292254.inp" -scrdir="/jobfs/52716446.gadi-pbs/"
 Entering Link 1 = /apps/gaussian/g16c01/g16/l1.exe PID=   1292255.
  
 Copyright (c) 1988-2019, Gaussian, Inc.  All Rights Reserved.
  
 This is part of the Gaussian(R) 16 program.  It is based on
 the Gaussian(R) 09 system (copyright 2009, Gaussian, Inc.),
 the Gaussian(R) 03 system (copyright 2003, Gaussian, Inc.),
 the Gaussian(R) 98 system (copyright 1998, Gaussian, Inc.),
 the Gaussian(R) 94 system (copyright 1995, Gaussian, Inc.),
 the Gaussian 92(TM) system (copyright 1992, Gaussian, Inc.),
 the Gaussian 90(TM) system (copyright 1990, Gaussian, Inc.),
 the Gaussian 88(TM) system (copyright 1988, Gaussian, Inc.),
 the Gaussian 86(TM) system (copyright 1986, Carnegie Mellon
 University), and the Gaussian 82(TM) system (copyright 1983,
 Carnegie Mellon University). Gaussian is a federally registered
 trademark of Gaussian, Inc.
  
 This software contains proprietary and confidential information,
 including trade secrets, belonging to Gaussian, Inc.
  
 This software is provided under written license and may be
 used, copied, transmitted, or stored only in accord with that
 written license.
  
 The following legend is applicable only to US Government
 contracts under FAR:
  
                    RESTRICTED RIGHTS LEGEND
  
 Use, reproduction and disclosure by the US Government is
 subject to restrictions as set forth in subparagraphs (a)
 and (c) of the Commercial Computer Software - Restricted
 Rights clause in FAR 52.227-19.
  
 Gaussian, Inc.
 340 Quinnipiac St., Bldg. 40, Wallingford CT 06492
  
  
 ---------------------------------------------------------------
 Warning -- This program may not be used in any manner that
 competes with the business of Gaussian, Inc. or will provide
 assistance to any competitor of Gaussian, Inc.  The licensee
 of this program is prohibited from giving any competitor of
 Gaussian, Inc. access to this program.  By using this program,
 the user acknowledges that Gaussian, Inc. is engaged in the
 business of creating and licensing software in the field of
 computational chemistry and represents and warrants to the
 licensee that it is not a competitor of Gaussian, Inc. and that
 it will not use this program in any manner prohibited above.
 ---------------------------------------------------------------
  

 Cite this work as:
 Gaussian 16, Revision C.01,
 M. J. Frisch, G. W. Trucks, H. B. Schlegel, G. E. Scuseria, 
 M. A. Robb, J. R. Cheeseman, G. Scalmani, V. Barone, 
 G. A. Petersson, H. Nakatsuji, X. Li, M. Caricato, A. V. Marenich, 
 J. Bloino, B. G. Janesko, R. Gomperts, B. Mennucci, H. P. Hratchian, 
 J. V. Ortiz, A. F. Izmaylov, J. L. Sonnenberg, D. Williams-Young, 
 F. Ding, F. Lipparini, F. Egidi, J. Goings, B. Peng, A. Petrone, 
 T. Henderson, D. Ranasinghe, V. G. Zakrzewski, J. Gao, N. Rega, 
 G. Zheng, W. Liang, M. Hada, M. Ehara, K. Toyota, R. Fukuda, 
 J. Hasegawa, M. Ishida, T. Nakajima, Y. Honda, O. Kitao, H. Nakai, 
 T. Vreven, K. Throssell, J. A. Montgomery, Jr., J. E. Peralta, 
 F. Ogliaro, M. J. Bearpark, J. J. Heyd, E. N. Brothers, K. N. Kudin, 
 V. N. Staroverov, T. A. Keith, R. Kobayashi, J. Normand, 
 K. Raghavachari, A. P. Rendell, J. C. Burant, S. S. Iyengar, 
 J. Tomasi, M. Cossi, J. M. Millam, M. Klene, C. Adamo, R. Cammi, 
 J. W. Ochterski, R. L. Martin, K. Morokuma, O. Farkas, 
 J. B. Foresman, and D. J. Fox, Gaussian, Inc., Wallingford CT, 2019.
 
 ******************************************
 Gaussian 16:  ES64L-G16RevC.01  3-Jul-2019
                26-Jul-2022 
 ******************************************
 %NProcShared=16
 Will use up to   16 processors via shared memory.
 %mem = 64GB
 ---------------------------------------------------------------
 #n M062X/6-311++G(d,p) TD(NStates=1) EmpiricalDispersion=GD3 SP
 ---------------------------------------------------------------
 1/38=1,172=1/1;
 2/12=2,17=6,18=5,40=1/2;
 3/5=4,6=6,7=1111,11=9,25=1,30=1,74=-55,124=31/1,2,3,8;
 4//1;
 5/5=2,38=5/2;
 8/6=1,10=2,108=1/1;
 9/41=1,42=1,70=2/14;
 6/7=2,8=2,9=2,10=2/1;
 99/5=1,9=1/99;
 ----
 SP_1
 ----
 Symbolic Z-matrix:
 Charge =  1 Multiplicity = 1
 C                     2.4927    1.3081    0.002 
 C                     3.7015    0.6207   -0.007 
 C                     3.6839   -0.7271   -0.031 
 C                     2.4632   -1.3269   -0.022 
 C                    -2.4632   -1.3509    0.026 
 C                    -3.6839   -0.7371    0.065 
 C                    -3.7015    0.6327    0.041 
 C                    -2.4927    1.3341    0.002 
 C                     0.        1.4381   -0.015 
 C                     0.       -1.3335   -0.015 
 C                     1.2621    0.7097    0.02 
 C                     1.2375   -0.6931   -0.016 
 C                    -1.2621    0.7157   -0.046 
 C                    -1.2375   -0.6971   -0.01 
 H                     2.4881    2.4083    0.002 
 H                     4.6368    1.1554    0.005 
 H                     4.6093   -1.2567    0.02 
 H                     2.4675   -2.4274   -0.022 
 H                     0.       -2.4266   -0.016 
 H                    -2.4675   -2.4814    0.026 
 H                    -4.6093   -1.2767    0.032 
 H                    -4.6368    1.1774    0.047 
 H                    -2.4881    2.4663    0.002 
 H                     0.        2.0225   -0.8746 
 H                     0.        2.0225    0.8446 
 
                          Input orientation:                          
 ---------------------------------------------------------------------
 Center     Atomic      Atomic             Coordinates (Angstroms)
 Number     Number       Type             X           Y           Z
 ---------------------------------------------------------------------
      1          6           0        2.492700    1.308100    0.002000
      2          6           0        3.701500    0.620700   -0.007000
      3          6           0        3.683900   -0.727100   -0.031000
      4          6           0        2.463200   -1.326900   -0.022000
      5          6           0       -2.463200   -1.350900    0.026000
      6          6           0       -3.683900   -0.737100    0.065000
      7          6           0       -3.701500    0.632700    0.041000
      8          6           0       -2.492700    1.334100    0.002000
      9          6           0        0.000000    1.438100   -0.015000
     10          6           0        0.000000   -1.333500   -0.015000
     11          6           0        1.262100    0.709700    0.020000
     12          6           0        1.237500   -0.693100   -0.016000
     13          6           0       -1.262100    0.715700   -0.046000
     14          6           0       -1.237500   -0.697100   -0.010000
     15          1           0        2.488100    2.408300    0.002000
     16          1           0        4.636800    1.155400    0.005000
     17          1           0        4.609300   -1.256700    0.020000
     18          1           0        2.467500   -2.427400   -0.022000
     19          1           0        0.000000   -2.426600   -0.016000
     20          1           0       -2.467500   -2.481400    0.026000
     21          1           0       -4.609300   -1.276700    0.032000
     22          1           0       -4.636800    1.177400    0.047000
     23          1           0       -2.488100    2.466300    0.002000
     24          1           0        0.000000    2.022500   -0.874600
     25          1           0        0.000000    2.022500    0.844600
 ---------------------------------------------------------------------
                    Distance matrix (angstroms):
                    1          2          3          4          5
     1  C    0.000000
     2  C    1.390610   0.000000
     3  C    2.358407   1.348129   0.000000
     4  C    2.635274   2.307977   1.360128   0.000000
     5  C    5.624216   6.472389   6.178933   4.926692   0.000000
     6  C    6.506704   7.509523   7.368432   6.175943   1.366887
     7  C    6.231035   7.403165   7.509885   6.468966   2.338436
     8  C    4.985468   6.235153   6.511530   5.625161   2.685269
     9  C    2.496145   3.790687   4.273110   3.703057   3.721230
    10  C    3.632065   4.185698   3.733510   2.463219   2.463603
    11  C    1.368497   2.441172   2.816400   2.364772   4.257225
    12  C    2.362340   2.792391   2.446682   1.379884   3.758942
    13  C    3.801548   4.964662   5.152166   4.248606   2.391372
    14  C    4.235016   5.111783   4.921536   3.753928   1.389637
    15  H    1.100210   2.160540   3.355855   3.735360   6.216714
    16  H    2.149533   1.077420   2.110242   3.299557   7.529408
    17  H    3.325435   2.085536   1.067447   2.147659   7.073130
    18  H    3.735662   3.288449   2.090629   1.100508   5.047074
    19  H    4.490196   4.794499   4.057049   2.697542   2.688168
    20  H    6.242153   6.905119   6.396916   5.064284   1.130508
    21  H    7.557810   8.524731   8.311630   7.072884   2.147391
    22  H    7.130840   8.357038   8.536232   7.529029   3.334258
    23  H    5.113687   6.458906   6.949279   6.237332   3.817357
    24  H    2.737215   4.052021   4.673658   4.244144   4.272969
    25  H    2.726517   4.048625   4.679540   4.246979   4.256441
                    6          7          8          9         10
     6  C    0.000000
     7  C    1.370123   0.000000
     8  C    2.390146   1.398099   0.000000
     9  C    4.278903   3.788523   2.494927   0.000000
    10  C    3.732722   4.191680   3.651018   2.771600   0.000000
    11  C    5.153462   4.964242   3.806405   1.457631   2.401830
    12  C    4.922263   5.114168   4.245498   2.464431   1.393384
    13  C    2.826316   2.442362   1.378078   1.454551   2.406881
    14  C    2.447876   2.800404   2.387770   2.467896   1.391559
    15  H    6.927560   6.439365   5.095319   2.670621   4.493551
    16  H    8.533417   8.354745   7.131740   4.645453   5.262598
    17  H    8.309583   8.522891   7.559826   5.339365   4.610073
    18  H    6.380000   6.886562   6.225194   4.585924   2.699115
    19  H    4.053651   4.802465   4.511845   3.864700   1.093100
    20  H    2.126907   3.349716   3.815659   4.631708   2.721748
    21  H    1.071738   2.114235   3.361127   5.349579   4.609890
    22  H    2.138610   1.082368   2.150289   4.644537   5.273365
    23  H    3.419894   2.199079   1.132209   2.692234   4.541961
    24  H    4.697804   4.058444   2.730545   1.039440   3.464339
    25  H    4.668435   4.034652   2.719820   1.039440   3.464339
                   11         12         13         14         15
    11  C    0.000000
    12  C    1.403477   0.000000
    13  C    2.525070   2.869428   0.000000
    14  C    2.868447   2.475011   1.413473   0.000000
    15  H    2.094909   3.344100   4.114754   4.850129   0.000000
    16  H    3.404038   3.869449   5.915485   6.159495   2.487304
    17  H    3.882071   3.418768   6.194195   5.873595   4.234624
    18  H    3.360974   2.126201   4.877455   4.089145   4.835803
    19  H    3.380913   2.129889   3.386421   2.126643   5.437575
    20  H    4.908469   4.114220   3.417546   2.167469   6.961876
    21  H    6.198328   5.876050   3.896086   3.421511   7.997075
    22  H    5.917474   6.165236   3.407406   3.882298   7.230584
    23  H    4.141252   4.884898   2.137751   3.401653   4.976538
    24  H    2.028953   3.105331   1.996798   3.110492   2.666067
    25  H    1.999076   3.105885   2.023312   3.107728   2.655082
                   16         17         18         19         20
    16  H    0.000000
    17  H    2.412303   0.000000
    18  H    4.188442   2.441231   0.000000
    19  H    5.859273   4.755587   2.467507   0.000000
    20  H    7.981092   7.181993   4.935529   2.468466   0.000000
    21  H    9.560659   9.218630   7.169946   4.750813   2.457366
    22  H    9.273721   9.561168   7.966833   5.873049   4.253601
    23  H    7.244492   8.014620   6.964686   5.489211   4.947801
    24  H    4.798487   5.727051   5.159176   4.531190   5.213900
    25  H    4.791316   5.716534   5.161508   4.531570   5.200363
                   21         22         23         24         25
    21  H    0.000000
    22  H    2.454300   0.000000
    23  H    4.302376   2.506033   0.000000
    24  H    5.740409   4.802443   2.675075   0.000000
    25  H    5.726315   4.780196   2.664127   1.719200   0.000000
 Stoichiometry    C14H11(1+)
 Framework group  C1[X(C14H11)]
 Deg. of freedom    69
 Full point group                 C1      NOp   1
 Largest Abelian subgroup         C1      NOp   1
 Largest concise Abelian subgroup C1      NOp   1
                         Standard orientation:                         
 ---------------------------------------------------------------------
 Center     Atomic      Atomic             Coordinates (Angstroms)
 Number     Number       Type             X           Y           Z
 ---------------------------------------------------------------------
      1          6           0        2.492335   -1.300849   -0.017674
      2          6           0        3.701330   -0.613736   -0.015733
      3          6           0        3.684197    0.734055    0.009084
      4          6           0        2.463606    1.334145    0.007895
      5          6           0       -2.462990    1.359320   -0.009845
      6          6           0       -3.684051    0.745825   -0.041673
      7          6           0       -3.701828   -0.623983   -0.018287
      8          6           0       -2.492977   -1.325686    0.012922
      9          6           0       -0.000244   -1.430276    0.014562
     10          6           0        0.000411    1.341323    0.016022
     11          6           0        1.261789   -0.702152   -0.027802
     12          6           0        1.237743    0.700634    0.009087
     13          6           0       -1.261959   -0.707598    0.053691
     14          6           0       -1.237247    0.705215    0.018285
     15          1           0        2.487475   -2.401048   -0.018225
     16          1           0        4.636412   -1.148648   -0.033757
     17          1           0        4.609391    1.263466   -0.047317
     18          1           0        2.468166    2.434644    0.008448
     19          1           0        0.000676    2.434423    0.017598
     20          1           0       -2.467022    2.489820   -0.009223
     21          1           0       -4.609104    1.285623   -0.002707
     22          1           0       -4.637276   -1.168462   -0.018831
     23          1           0       -2.488645   -2.457887    0.012297
     24          1           0        0.004895   -2.015130    0.873838
     25          1           0       -0.005660   -2.014222   -0.845329
 ---------------------------------------------------------------------
 Rotational constants (GHZ):           2.2661364           0.4445625           0.3725216
 Standard basis: 6-311++G(d,p) (5D, 7F)
 There are   399 symmetry adapted cartesian basis functions of A   symmetry.
 There are   385 symmetry adapted basis functions of A   symmetry.
   385 basis functions,   603 primitive gaussians,   399 cartesian basis functions
    47 alpha electrons       47 beta electrons
       nuclear repulsion energy       789.6875788603 Hartrees.
 NAtoms=   25 NActive=   25 NUniq=   25 SFac= 1.00D+00 NAtFMM=   60 NAOKFM=F Big=F
 Integral buffers will be    131072 words long.
 Regular integral format.
 Two-electron integral symmetry is turned on.
 Nuclear repulsion after empirical dispersion term =      789.6866140542 Hartrees.
 One-electron integrals computed using PRISM.
 NBasis=   385 RedAO= T EigKep=  1.10D-06  NBF=   385
 NBsUse=   379 1.00D-06 EigRej=  7.79D-07 NBFU=   379
 ExpMin= 3.60D-02 ExpMax= 4.56D+03 ExpMxC= 6.82D+02 IAcc=3 IRadAn=         5 AccDes= 0.00D+00
 Harris functional with IExCor= 1009 and IRadAn=       5 diagonalized for initial guess.
 HarFok:  IExCor= 1009 AccDes= 0.00D+00 IRadAn=         5 IDoV= 1 UseB2=F ITyADJ=14
 ICtDFT=  3500011 ScaDFX=  1.000000  1.000000  1.000000  1.000000
 FoFCou: FMM=F IPFlag=           0 FMFlag=      100000 FMFlg1=           0
         NFxFlg=           0 DoJE=T BraDBF=F KetDBF=T FulRan=T
         wScrn=  0.000000 ICntrl=       500 IOpCl=  0 I1Cent=   200000004 NGrid=           0
         NMat0=    1 NMatS0=      1 NMatT0=    0 NMatD0=    1 NMtDS0=    0 NMtDT0=    0
 Petite list used in FoFCou.
 Requested convergence on RMS density matrix=1.00D-08 within 128 cycles.
 Requested convergence on MAX density matrix=1.00D-06.
 Requested convergence on             energy=1.00D-06.
 No special actions if energy rises.
 SCF Done:  E(RM062X) =  -539.736719975     A.U. after   15 cycles
            NFock= 15  Conv=0.29D-08     -V/T= 2.0025
 DoSCS=F DFT=T ScalE2(SS,OS)=  1.000000  1.000000
 ExpMin= 3.60D-02 ExpMax= 4.56D+03 ExpMxC= 6.82D+02 IAcc=3 IRadAn=         5 AccDes= 0.00D+00
 HarFok:  IExCor=  205 AccDes= 0.00D+00 IRadAn=         5 IDoV=-2 UseB2=F ITyADJ=14
 ICtDFT= 12500011 ScaDFX=  1.000000  1.000000  1.000000  1.000000
 Range of M.O.s used for correlation:    15   379
 NBasis=   385 NAE=    47 NBE=    47 NFC=    14 NFV=     0
 NROrb=    365 NOA=    33 NOB=    33 NVA=   332 NVB=   332

 **** Warning!!: The largest alpha MO coefficient is  0.13548689D+03

 Orbital symmetries:
       Occupied  (A) (A) (A) (A) (A) (A) (A) (A) (A) (A) (A) (A)
                 (A) (A) (A) (A) (A) (A) (A) (A) (A) (A) (A) (A)
                 (A) (A) (A) (A) (A) (A) (A) (A) (A) (A) (A) (A)
                 (A) (A) (A) (A) (A) (A) (A) (A) (A) (A) (A)
       Virtual   (A) (A) (A) (A) (A) (A) (A) (A) (A) (A) (A) (A)
                 (A) (A) (A) (A) (A) (A) (A) (A) (A) (A) (A) (A)
                 (A) (A) (A) (A) (A) (A) (A) (A) (A) (A) (A) (A)
                 (A) (A) (A) (A) (A) (A) (A) (A) (A) (A) (A) (A)
                 (A) (A) (A) (A) (A) (A) (A) (A) (A) (A) (A) (A)
                 (A) (A) (A) (A) (A) (A) (A) (A) (A) (A) (A) (A)
                 (A) (A) (A) (A) (A) (A) (A) (A) (A) (A) (A) (A)
                 (A) (A) (A) (A) (A) (A) (A) (A) (A) (A) (A) (A)
                 (A) (A) (A) (A) (A) (A) (A) (A) (A) (A) (A) (A)
                 (A) (A) (A) (A) (A) (A) (A) (A) (A) (A) (A) (A)
                 (A) (A) (A) (A) (A) (A) (A) (A) (A) (A) (A) (A)
                 (A) (A) (A) (A) (A) (A) (A) (A) (A) (A) (A) (A)
                 (A) (A) (A) (A) (A) (A) (A) (A) (A) (A) (A) (A)
                 (A) (A) (A) (A) (A) (A) (A) (A) (A) (A) (A) (A)
                 (A) (A) (A) (A) (A) (A) (A) (A) (A) (A) (A) (A)
                 (A) (A) (A) (A) (A) (A) (A) (A) (A) (A) (A) (A)
                 (A) (A) (A) (A) (A) (A) (A) (A) (A) (A) (A) (A)
                 (A) (A) (A) (A) (A) (A) (A) (A) (A) (A) (A) (A)
                 (A) (A) (A) (A) (A) (A) (A) (A) (A) (A) (A) (A)
                 (A) (A) (A) (A) (A) (A) (A) (A) (A) (A) (A) (A)
                 (A) (A) (A) (A) (A) (A) (A) (A) (A) (A) (A) (A)
                 (A) (A) (A) (A) (A) (A) (A) (A) (A) (A) (A) (A)
                 (A) (A) (A) (A) (A) (A) (A) (A) (A) (A) (A) (A)
                 (A) (A) (A) (A) (A) (A) (A) (A) (A) (A) (A) (A)
                 (A) (A) (A) (A) (A) (A) (A) (A) (A) (A) (A) (A)
                 (A) (A) (A) (A) (A) (A) (A) (A) (A) (A) (A) (A)
                 (A) (A) (A) (A) (A) (A) (A) (A) (A) (A) (A) (A)
                 (A) (A) (A) (A) (A) (A) (A) (A)
     4 initial guesses have been made.
 Convergence on wavefunction:    0.001000000000000
 Iteration     1 Dimension     4 NMult     0 NNew      4
 CISAX will form     4 AO SS matrices at one time.
 Iteration     2 Dimension     6 NMult     4 NNew      2
 Iteration     3 Dimension     8 NMult     6 NNew      2
 Iteration     4 Dimension    10 NMult     8 NNew      2
 Iteration     5 Dimension    12 NMult    10 NNew      2
 Iteration     6 Dimension    14 NMult    12 NNew      2
 ***********************************************************************
 Excited states from <AA,BB:AA,BB> singles matrix:
 ***********************************************************************
 
 Ground to excited state transition densities written to RWF  633
 Ground to excited state transition electric dipole moments (Au):
       state          X           Y           Z        Dip. S.      Osc.
         1        -0.0745     -0.6100      0.0054      0.3777      0.0283
 Ground to excited state transition velocity dipole moments (Au):
       state          X           Y           Z        Dip. S.      Osc.
         1         0.0084      0.0766     -0.0006      0.0059      0.0352
 Ground to excited state transition magnetic dipole moments (Au):
       state          X           Y           Z
         1         0.0099     -0.0135     -0.0559
 Ground to excited state transition velocity quadrupole moments (Au):
       state          XX          YY          ZZ          XY          XZ          YZ
         1         0.3156      0.0458     -0.0079     -0.0036      0.0053      0.0022
 <0|del|b> * <b|rxdel|0> + <0|del|b> * <b|delr+rdel|0>
 Rotatory Strengths (R) in cgs (10**-40 erg-esu-cm/Gauss)
       state          XX          YY          ZZ    R(velocity)    E-M Angle
         1        -4.4093      0.4223     -1.7691     -1.9187      101.73
 1/2[<0|r|b>*<b|rxdel|0> + (<0|rxdel|b>*<b|r|0>)*]
 Rotatory Strengths (R) in cgs (10**-40 erg-esu-cm/Gauss)
       state          XX          YY          ZZ     R(length)
         1         0.5201     -5.8150      0.2129     -1.6940
  1/2[<0|del|b>*<b|r|0> + (<0|r|b>*<b|del|0>)*] (Au)
       state          X           Y           Z        Dip. S.   Osc.(frdel)
         1        -0.0006     -0.0467     -0.0000      0.0474      0.0316

 Excitation energies and oscillator strengths:
 
 Excited State   1:      Singlet-A      3.0582 eV  405.41 nm  f=0.0283  <S**2>=0.000
      47 -> 48         0.70286
 This state for optimization and/or second-order correction.
 Total Energy, E(TD-HF/TD-DFT) =  -539.624331413    
 Copying the excited state density for this state as the 1-particle RhoCI density.
 SavETr:  write IOETrn=   770 NScale= 10 NData=  16 NLR=1 NState=    1 LETran=      28.

 **********************************************************************

            Population analysis using the SCF Density.

 **********************************************************************

 Orbital symmetries:
       Occupied  (A) (A) (A) (A) (A) (A) (A) (A) (A) (A) (A) (A)
                 (A) (A) (A) (A) (A) (A) (A) (A) (A) (A) (A) (A)
                 (A) (A) (A) (A) (A) (A) (A) (A) (A) (A) (A) (A)
                 (A) (A) (A) (A) (A) (A) (A) (A) (A) (A) (A)
       Virtual   (A) (A) (A) (A) (A) (A) (A) (A) (A) (A) (A) (A)
                 (A) (A) (A) (A) (A) (A) (A) (A) (A) (A) (A) (A)
                 (A) (A) (A) (A) (A) (A) (A) (A) (A) (A) (A) (A)
                 (A) (A) (A) (A) (A) (A) (A) (A) (A) (A) (A) (A)
                 (A) (A) (A) (A) (A) (A) (A) (A) (A) (A) (A) (A)
                 (A) (A) (A) (A) (A) (A) (A) (A) (A) (A) (A) (A)
                 (A) (A) (A) (A) (A) (A) (A) (A) (A) (A) (A) (A)
                 (A) (A) (A) (A) (A) (A) (A) (A) (A) (A) (A) (A)
                 (A) (A) (A) (A) (A) (A) (A) (A) (A) (A) (A) (A)
                 (A) (A) (A) (A) (A) (A) (A) (A) (A) (A) (A) (A)
                 (A) (A) (A) (A) (A) (A) (A) (A) (A) (A) (A) (A)
                 (A) (A) (A) (A) (A) (A) (A) (A) (A) (A) (A) (A)
                 (A) (A) (A) (A) (A) (A) (A) (A) (A) (A) (A) (A)
                 (A) (A) (A) (A) (A) (A) (A) (A) (A) (A) (A) (A)
                 (A) (A) (A) (A) (A) (A) (A) (A) (A) (A) (A) (A)
                 (A) (A) (A) (A) (A) (A) (A) (A) (A) (A) (A) (A)
                 (A) (A) (A) (A) (A) (A) (A) (A) (A) (A) (A) (A)
                 (A) (A) (A) (A) (A) (A) (A) (A) (A) (A) (A) (A)
                 (A) (A) (A) (A) (A) (A) (A) (A) (A) (A) (A) (A)
                 (A) (A) (A) (A) (A) (A) (A) (A) (A) (A) (A) (A)
                 (A) (A) (A) (A) (A) (A) (A) (A) (A) (A) (A) (A)
                 (A) (A) (A) (A) (A) (A) (A) (A) (A) (A) (A) (A)
                 (A) (A) (A) (A) (A) (A) (A) (A) (A) (A) (A) (A)
                 (A) (A) (A) (A) (A) (A) (A) (A) (A) (A) (A) (A)
                 (A) (A) (A) (A) (A) (A) (A) (A) (A) (A) (A) (A)
                 (A) (A) (A) (A) (A) (A) (A) (A) (A) (A) (A) (A)
                 (A) (A) (A) (A) (A) (A) (A) (A) (A) (A) (A) (A)
                 (A) (A) (A) (A) (A) (A) (A) (A)
 The electronic state is 1-A.
 Alpha  occ. eigenvalues --  -10.76872 -10.72791 -10.72318 -10.72040 -10.71712
 Alpha  occ. eigenvalues --  -10.71568 -10.71304 -10.70952 -10.70655 -10.70135
 Alpha  occ. eigenvalues --  -10.69449 -10.69410 -10.69325 -10.68777  -1.17653
 Alpha  occ. eigenvalues --   -1.13733  -1.08267  -1.06751  -1.01889  -1.01145
 Alpha  occ. eigenvalues --   -0.96332  -0.92323  -0.86733  -0.86067  -0.83665
 Alpha  occ. eigenvalues --   -0.79151  -0.77074  -0.74267  -0.70929  -0.70904
 Alpha  occ. eigenvalues --   -0.69287  -0.68338  -0.67335  -0.65593  -0.63469
 Alpha  occ. eigenvalues --   -0.62773  -0.61654  -0.61433  -0.60543  -0.59803
 Alpha  occ. eigenvalues --   -0.56499  -0.55641  -0.53303  -0.53067  -0.47510
 Alpha  occ. eigenvalues --   -0.46195  -0.45294
 Alpha virt. eigenvalues --   -0.25897  -0.14297  -0.13727  -0.12151  -0.11179
 Alpha virt. eigenvalues --   -0.09932  -0.09332  -0.08164  -0.07960  -0.07447
 Alpha virt. eigenvalues --   -0.07183  -0.06927  -0.05638  -0.05520  -0.05198
 Alpha virt. eigenvalues --   -0.04010  -0.03857  -0.03158  -0.03003  -0.02067
 Alpha virt. eigenvalues --   -0.01624  -0.00868   0.00324   0.00454   0.00760
 Alpha virt. eigenvalues --    0.01249   0.01437   0.02092   0.02306   0.02393
 Alpha virt. eigenvalues --    0.02548   0.02839   0.03026   0.03246   0.03324
 Alpha virt. eigenvalues --    0.04249   0.04498   0.04667   0.05326   0.05391
 Alpha virt. eigenvalues --    0.06121   0.06470   0.06472   0.07001   0.07484
 Alpha virt. eigenvalues --    0.07789   0.08273   0.08492   0.08906   0.09050
 Alpha virt. eigenvalues --    0.09475   0.09803   0.09875   0.10271   0.11427
 Alpha virt. eigenvalues --    0.11547   0.12045   0.12395   0.12664   0.12910
 Alpha virt. eigenvalues --    0.13497   0.13776   0.14355   0.14763   0.16229
 Alpha virt. eigenvalues --    0.16468   0.16613   0.17806   0.18241   0.18466
 Alpha virt. eigenvalues --    0.18789   0.19327   0.19809   0.19922   0.19963
 Alpha virt. eigenvalues --    0.21296   0.21976   0.23258   0.23455   0.23566
 Alpha virt. eigenvalues --    0.24166   0.25200   0.25332   0.27387   0.28269
 Alpha virt. eigenvalues --    0.29257   0.29531   0.31542   0.32352   0.37382
 Alpha virt. eigenvalues --    0.37926   0.39107   0.39222   0.40599   0.41384
 Alpha virt. eigenvalues --    0.41891   0.42604   0.43164   0.44349   0.44474
 Alpha virt. eigenvalues --    0.45428   0.45922   0.47008   0.47670   0.47914
 Alpha virt. eigenvalues --    0.48697   0.49266   0.49646   0.50273   0.51013
 Alpha virt. eigenvalues --    0.51455   0.51937   0.52423   0.52781   0.53881
 Alpha virt. eigenvalues --    0.54205   0.55416   0.55800   0.56028   0.58339
 Alpha virt. eigenvalues --    0.59692   0.61294   0.61421   0.61777   0.62306
 Alpha virt. eigenvalues --    0.63351   0.63758   0.65285   0.65853   0.68575
 Alpha virt. eigenvalues --    0.68669   0.70616   0.71313   0.72022   0.73473
 Alpha virt. eigenvalues --    0.75433   0.75970   0.76268   0.76774   0.76870
 Alpha virt. eigenvalues --    0.77081   0.78055   0.78428   0.78860   0.80937
 Alpha virt. eigenvalues --    0.81785   0.82187   0.82518   0.83604   0.85358
 Alpha virt. eigenvalues --    0.86085   0.87763   0.88182   0.88690   0.90311
 Alpha virt. eigenvalues --    0.91664   0.92883   0.93855   0.95731   0.97241
 Alpha virt. eigenvalues --    0.97696   1.00123   1.00690   1.02372   1.03228
 Alpha virt. eigenvalues --    1.04253   1.05040   1.06723   1.07270   1.10513
 Alpha virt. eigenvalues --    1.22036   1.23511   1.24994   1.29107   1.30640
 Alpha virt. eigenvalues --    1.31223   1.31545   1.33567   1.35194   1.35668
 Alpha virt. eigenvalues --    1.38680   1.42231   1.42761   1.44091   1.44434
 Alpha virt. eigenvalues --    1.44874   1.46790   1.47777   1.48113   1.48468
 Alpha virt. eigenvalues --    1.49088   1.50342   1.52570   1.54903   1.56336
 Alpha virt. eigenvalues --    1.56655   1.57869   1.58382   1.59416   1.61628
 Alpha virt. eigenvalues --    1.62393   1.62709   1.63381   1.66945   1.67161
 Alpha virt. eigenvalues --    1.67970   1.70740   1.72199   1.73628   1.76788
 Alpha virt. eigenvalues --    1.77820   1.79059   1.80721   1.83010   1.83470
 Alpha virt. eigenvalues --    1.83932   1.84389   1.85162   1.85187   1.85651
 Alpha virt. eigenvalues --    1.85770   1.86273   1.87319   1.89704   1.92636
 Alpha virt. eigenvalues --    1.92861   1.95014   1.96345   1.98507   2.00725
 Alpha virt. eigenvalues --    2.03309   2.03852   2.06388   2.10544   2.13138
 Alpha virt. eigenvalues --    2.14681   2.16110   2.16713   2.22979   2.25113
 Alpha virt. eigenvalues --    2.26059   2.30533   2.31475   2.34228   2.36784
 Alpha virt. eigenvalues --    2.38101   2.39389   2.39685   2.43445   2.44748
 Alpha virt. eigenvalues --    2.48216   2.51216   2.52165   2.55904   2.56243
 Alpha virt. eigenvalues --    2.58648   2.58993   2.59147   2.60012   2.60101
 Alpha virt. eigenvalues --    2.60296   2.61068   2.63282   2.63411   2.64294
 Alpha virt. eigenvalues --    2.65693   2.66142   2.66589   2.67395   2.68413
 Alpha virt. eigenvalues --    2.71251   2.71402   2.74513   2.76376   2.77185
 Alpha virt. eigenvalues --    2.77314   2.80539   2.80780   2.83344   2.84589
 Alpha virt. eigenvalues --    2.88611   2.90989   2.94094   2.96706   3.01191
 Alpha virt. eigenvalues --    3.02499   3.09562   3.10234   3.16095   3.18854
 Alpha virt. eigenvalues --    3.26201   3.28632   3.30027   3.32879   3.33629
 Alpha virt. eigenvalues --    3.36441   3.39336   3.45442   3.46010   3.49363
 Alpha virt. eigenvalues --    3.50927   3.55889   3.58531   3.66148   3.68377
 Alpha virt. eigenvalues --    3.90952   3.92383   3.92804   3.94967   3.97270
 Alpha virt. eigenvalues --    4.01863   4.02313   4.03946   4.11895   4.39036
 Alpha virt. eigenvalues --    4.68871   4.71974   4.72996  23.42810  23.59953
 Alpha virt. eigenvalues --   23.84234  23.86853  23.89646  23.96455  23.98794
 Alpha virt. eigenvalues --   24.02423  24.03773  24.05447  24.07748  24.10294
 Alpha virt. eigenvalues --   24.16479  24.22772
          Condensed to atoms (all electrons):
               1          2          3          4          5          6
     1  C    9.696295   0.423336  -0.767405   2.613639   0.030362  -0.102559
     2  C    0.423336   6.956930   0.505651  -0.814153  -0.044080  -0.013353
     3  C   -0.767405   0.505651   6.920577   0.231925  -0.150045   0.019379
     4  C    2.613639  -0.814153   0.231925  11.538465  -0.174607  -0.131531
     5  C    0.030362  -0.044080  -0.150045  -0.174607  11.487019   0.217196
     6  C   -0.102559  -0.013353   0.019379  -0.131531   0.217196   6.853608
     7  C   -0.015288   0.009714  -0.013509  -0.072302  -0.847120   0.456134
     8  C    0.614318  -0.008115  -0.099527   0.058528   2.692699  -0.908436
     9  C   -1.549074  -0.536467   0.472204  -1.123358  -0.825490   0.488929
    10  C   -1.839168   0.144080  -0.493044  -2.850821  -2.777116  -0.414061
    11  C   -0.407352  -0.886828   1.250181  -0.673367  -1.582307  -0.145857
    12  C   -1.972902   0.745452  -1.439287  -0.648011  -0.666339  -0.217300
    13  C   -0.055569  -0.161459  -0.164053  -1.593302  -0.647949   1.299492
    14  C   -1.140451  -0.219904  -0.165243  -0.789259  -1.155049  -1.290081
    15  H    0.346457  -0.062810  -0.014351   0.025151   0.006675   0.000974
    16  H   -0.013521   0.379841  -0.011744   0.023019  -0.001640  -0.000257
    17  H   -0.034924  -0.014067   0.390570  -0.080838  -0.000851   0.000316
    18  H    0.059632  -0.011088  -0.089989   0.468000   0.015738  -0.003861
    19  H   -0.067765  -0.006256   0.058217  -0.090191  -0.098987   0.056852
    20  H    0.008508   0.001325  -0.004087   0.013888   0.460478  -0.089855
    21  H   -0.001117  -0.000213   0.000381  -0.000811  -0.086442   0.394215
    22  H    0.000288   0.000303  -0.000282  -0.001911   0.020776  -0.011971
    23  H    0.009986  -0.001818   0.001191   0.007436   0.023562  -0.013643
    24  H    0.059707   0.018340  -0.002615  -0.017333  -0.013441   0.001809
    25  H    0.074481   0.027934  -0.001151  -0.012926  -0.015178  -0.005034
               7          8          9         10         11         12
     1  C   -0.015288   0.614318  -1.549074  -1.839168  -0.407352  -1.972902
     2  C    0.009714  -0.008115  -0.536467   0.144080  -0.886828   0.745452
     3  C   -0.013509  -0.099527   0.472204  -0.493044   1.250181  -1.439287
     4  C   -0.072302   0.058528  -1.123358  -2.850821  -0.673367  -0.648011
     5  C   -0.847120   2.692699  -0.825490  -2.777116  -1.582307  -0.666339
     6  C    0.456134  -0.908436   0.488929  -0.414061  -0.145857  -0.217300
     7  C    6.923431   0.335401  -0.455547   0.156623  -0.190967  -0.252937
     8  C    0.335401   9.803550  -1.478211  -1.745500  -0.043012  -0.935857
     9  C   -0.455547  -1.478211  10.599422   0.459726   2.419247  -2.889193
    10  C    0.156623  -1.745500   0.459726  10.940155  -1.079412   2.870063
    11  C   -0.190967  -0.043012   2.419247  -1.079412  13.951282  -1.909763
    12  C   -0.252937  -0.935857  -2.889193   2.870063  -1.909763  15.317373
    13  C   -0.647457  -0.719817   2.472672  -1.059852  -0.123202  -4.204589
    14  C    0.730560  -2.045556  -2.705827   3.084334  -3.826541   1.691660
    15  H   -0.002141   0.009135   0.051019  -0.005938  -0.050656   0.027643
    16  H    0.000229   0.000281   0.003052  -0.016609   0.017566  -0.033936
    17  H   -0.000208  -0.001088  -0.000795   0.026009  -0.018831   0.082776
    18  H    0.000911   0.008786  -0.040335   0.035819  -0.024259  -0.050044
    19  H   -0.003475  -0.070427   0.116432   0.427336   0.079863  -0.068005
    20  H   -0.009645   0.063869  -0.036953   0.035701  -0.015168  -0.014449
    21  H   -0.017646  -0.039395  -0.000045   0.027592  -0.001901   0.005610
    22  H    0.377705  -0.014326   0.006283  -0.015645   0.001101  -0.009489
    23  H   -0.064512   0.339146   0.054971  -0.006062  -0.002306   0.009389
    24  H    0.026460   0.060604   0.375191  -0.007140  -0.024950  -0.083038
    25  H    0.019535   0.066854   0.365188  -0.009410  -0.002091  -0.065799
              13         14         15         16         17         18
     1  C   -0.055569  -1.140451   0.346457  -0.013521  -0.034924   0.059632
     2  C   -0.161459  -0.219904  -0.062810   0.379841  -0.014067  -0.011088
     3  C   -0.164053  -0.165243  -0.014351  -0.011744   0.390570  -0.089989
     4  C   -1.593302  -0.789259   0.025151   0.023019  -0.080838   0.468000
     5  C   -0.647949  -1.155049   0.006675  -0.001640  -0.000851   0.015738
     6  C    1.299492  -1.290081   0.000974  -0.000257   0.000316  -0.003861
     7  C   -0.647457   0.730560  -0.002141   0.000229  -0.000208   0.000911
     8  C   -0.719817  -2.045556   0.009135   0.000281  -0.001088   0.008786
     9  C    2.472672  -2.705827   0.051019   0.003052  -0.000795  -0.040335
    10  C   -1.059852   3.084334  -0.005938  -0.016609   0.026009   0.035819
    11  C   -0.123202  -3.826541  -0.050656   0.017566  -0.018831  -0.024259
    12  C   -4.204589   1.691660   0.027643  -0.033936   0.082776  -0.050044
    13  C   14.290744  -1.933524  -0.008140   0.001804  -0.002959  -0.016185
    14  C   -1.933524  15.260186   0.006838  -0.009028   0.006385  -0.021224
    15  H   -0.008140   0.006838   0.439526  -0.007810   0.001155   0.000447
    16  H    0.001804  -0.009028  -0.007810   0.418751  -0.007058   0.001597
    17  H   -0.002959   0.006385   0.001155  -0.007058   0.428699  -0.008845
    18  H   -0.016185  -0.021224   0.000447   0.001597  -0.008845   0.449612
    19  H    0.075396  -0.037966  -0.000029  -0.000590   0.001522  -0.004633
    20  H   -0.026299  -0.062633  -0.000096  -0.000000  -0.000113   0.001048
    21  H   -0.012857   0.084192   0.000009  -0.000004   0.000010  -0.000132
    22  H    0.021790  -0.036041  -0.000104   0.000003  -0.000004  -0.000003
    23  H   -0.052560   0.017901   0.000550  -0.000085   0.000012  -0.000099
    24  H    0.007053  -0.066099   0.000571   0.000479  -0.000172   0.000073
    25  H   -0.023035  -0.083824  -0.000909   0.000562  -0.000143   0.000692
              19         20         21         22         23         24
     1  C   -0.067765   0.008508  -0.001117   0.000288   0.009986   0.059707
     2  C   -0.006256   0.001325  -0.000213   0.000303  -0.001818   0.018340
     3  C    0.058217  -0.004087   0.000381  -0.000282   0.001191  -0.002615
     4  C   -0.090191   0.013888  -0.000811  -0.001911   0.007436  -0.017333
     5  C   -0.098987   0.460478  -0.086442   0.020776   0.023562  -0.013441
     6  C    0.056852  -0.089855   0.394215  -0.011971  -0.013643   0.001809
     7  C   -0.003475  -0.009645  -0.017646   0.377705  -0.064512   0.026460
     8  C   -0.070427   0.063869  -0.039395  -0.014326   0.339146   0.060604
     9  C    0.116432  -0.036953  -0.000045   0.006283   0.054971   0.375191
    10  C    0.427336   0.035701   0.027592  -0.015645  -0.006062  -0.007140
    11  C    0.079863  -0.015168  -0.001901   0.001101  -0.002306  -0.024950
    12  C   -0.068005  -0.014449   0.005610  -0.009489   0.009389  -0.083038
    13  C    0.075396  -0.026299  -0.012857   0.021790  -0.052560   0.007053
    14  C   -0.037966  -0.062633   0.084192  -0.036041   0.017901  -0.066099
    15  H   -0.000029  -0.000096   0.000009  -0.000104   0.000550   0.000571
    16  H   -0.000590  -0.000000  -0.000004   0.000003  -0.000085   0.000479
    17  H    0.001522  -0.000113   0.000010  -0.000004   0.000012  -0.000172
    18  H   -0.004633   0.001048  -0.000132  -0.000003  -0.000099   0.000073
    19  H    0.455634  -0.004995   0.001851  -0.000536   0.000001   0.000640
    20  H   -0.004995   0.443775  -0.008957   0.001646   0.000454   0.000459
    21  H    0.001851  -0.008957   0.427575  -0.006737   0.001040  -0.000074
    22  H   -0.000536   0.001646  -0.006737   0.415371  -0.007318   0.000538
    23  H    0.000001   0.000454   0.001040  -0.007318   0.433214  -0.000958
    24  H    0.000640   0.000459  -0.000074   0.000538  -0.000958   0.486270
    25  H    0.000134   0.000189  -0.000199   0.000653   0.000844  -0.053943
              25
     1  C    0.074481
     2  C    0.027934
     3  C   -0.001151
     4  C   -0.012926
     5  C   -0.015178
     6  C   -0.005034
     7  C    0.019535
     8  C    0.066854
     9  C    0.365188
    10  C   -0.009410
    11  C   -0.002091
    12  C   -0.065799
    13  C   -0.023035
    14  C   -0.083824
    15  H   -0.000909
    16  H    0.000562
    17  H   -0.000143
    18  H    0.000692
    19  H    0.000134
    20  H    0.000189
    21  H   -0.000199
    22  H    0.000653
    23  H    0.000844
    24  H   -0.053943
    25  H    0.486940
 Mulliken charges:
               1
     1  C    0.030087
     2  C   -0.432294
     3  C   -0.433943
     4  C    0.094671
     5  C    0.132135
     6  C   -0.441104
     7  C   -0.443949
     8  C    0.056098
     9  C   -0.243040
    10  C    0.112343
    11  C   -0.710472
    12  C    0.710972
    13  C   -0.716144
    14  C    0.706193
    15  H    0.236837
    16  H    0.255098
    17  H    0.233443
    18  H    0.228345
    19  H    0.179978
    20  H    0.241909
    21  H    0.234056
    22  H    0.257908
    23  H    0.249666
    24  H    0.231571
    25  H    0.229636
 Sum of Mulliken charges =   1.00000
 Mulliken charges with hydrogens summed into heavy atoms:
               1
     1  C    0.266924
     2  C   -0.177196
     3  C   -0.200499
     4  C    0.323016
     5  C    0.374044
     6  C   -0.207048
     7  C   -0.186042
     8  C    0.305764
     9  C    0.218167
    10  C    0.292321
    11  C   -0.710472
    12  C    0.710972
    13  C   -0.716144
    14  C    0.706193
 Electronic spatial extent (au):  <R**2>=           2827.6777
 Charge=              1.0000 electrons
 Dipole moment (field-independent basis, Debye):
    X=             -0.1197    Y=              0.2889    Z=             -0.0165  Tot=              0.3131
 Quadrupole moment (field-independent basis, Debye-Ang):
   XX=            -28.7967   YY=            -58.9879   ZZ=            -83.1975
   XY=              0.0721   XZ=             -0.3592   YZ=              0.0173
 Traceless Quadrupole moment (field-independent basis, Debye-Ang):
   XX=             28.1974   YY=             -1.9939   ZZ=            -26.2035
   XY=              0.0721   XZ=             -0.3592   YZ=              0.0173
 Octapole moment (field-independent basis, Debye-Ang**2):
  XXX=             -0.2576  YYY=              5.4028  ZZZ=              0.0883  XYY=             -1.3639
  XXY=             -0.9868  XXZ=             -1.4908  XZZ=              0.5745  YZZ=             -3.0503
  YYZ=              0.0331  XYZ=             -0.3070
 Hexadecapole moment (field-independent basis, Debye-Ang**3):
 XXXX=          -2063.2741 YYYY=           -598.5587 ZZZZ=            -96.9294 XXXY=              0.8342
 XXXZ=             -8.8216 YYYX=             -0.0081 YYYZ=              0.1305 ZZZX=             -0.3761
 ZZZY=             -0.0992 XXYY=           -510.0185 XXZZ=           -584.0625 YYZZ=           -139.4250
 XXYZ=              0.1416 YYXZ=             -0.8259 ZZXY=              0.0912
 N-N= 7.896866140542D+02 E-N=-2.816246456367D+03  KE= 5.383675892889D+02
 Unable to Open any file for archive entry.
 1\1\GINC-GADI-CPU-CLX-0072\SP\RM062X TD-FC\6-311++G(d,p)\C14H11(1+)\TS
 1578\26-Jul-2022\0\\#n M062X/6-311++G(d,p) TD(NStates=1) EmpiricalDisp
 ersion=GD3 SP\\SP_1\\1,1\C,0,2.4927,1.3081,0.002\C,0,3.7015,0.6207,-0.
 007\C,0,3.6839,-0.7271,-0.031\C,0,2.4632,-1.3269,-0.022\C,0,-2.4632,-1
 .3509,0.026\C,0,-3.6839,-0.7371,0.065\C,0,-3.7015,0.6327,0.041\C,0,-2.
 4927,1.3341,0.002\C,0,0.,1.4381,-0.015\C,0,0.,-1.3335,-0.015\C,0,1.262
 1,0.7097,0.02\C,0,1.2375,-0.6931,-0.016\C,0,-1.2621,0.7157,-0.046\C,0,
 -1.2375,-0.6971,-0.01\H,0,2.4881,2.4083,0.002\H,0,4.6368,1.1554,0.005\
 H,0,4.6093,-1.2567,0.02\H,0,2.4675,-2.4274,-0.022\H,0,0.,-2.4266,-0.01
 6\H,0,-2.4675,-2.4814,0.026\H,0,-4.6093,-1.2767,0.032\H,0,-4.6368,1.17
 74,0.047\H,0,-2.4881,2.4663,0.002\H,0,0.,2.0225,-0.8746\H,0,0.,2.0225,
 0.8446\\Version=ES64L-G16RevC.01\State=1-A\HF=-539.73672\RMSD=2.910e-0
 9\PG=C01 [X(C14H11)]\\@
 The archive entry for this job was punched.


 OLD AGE AND TREACHERY WILL ALWAYS PREVAIL OVER YOUTH AND SKILL.
 Job cpu time:       0 days  1 hours  6 minutes 33.1 seconds.
 Elapsed time:       0 days  0 hours  7 minutes  3.4 seconds.
 File lengths (MBytes):  RWF=    460 Int=      0 D2E=      0 Chk=     15 Scr=      1
 Normal termination of Gaussian 16 at Tue Jul 26 17:55:31 2022.
