 Entering Gaussian System, Link 0=g16
 Initial command:
 /apps/gaussian/g16c01/g16/l1.exe "/jobfs/52716446.gadi-pbs/Gau-1338593.inp" -scrdir="/jobfs/52716446.gadi-pbs/"
 Entering Link 1 = /apps/gaussian/g16c01/g16/l1.exe PID=   1338594.
  
 Copyright (c) 1988-2019, Gaussian, Inc.  All Rights Reserved.
  
 This is part of the Gaussian(R) 16 program.  It is based on
 the Gaussian(R) 09 system (copyright 2009, Gaussian, Inc.),
 the Gaussian(R) 03 system (copyright 2003, Gaussian, Inc.),
 the Gaussian(R) 98 system (copyright 1998, Gaussian, Inc.),
 the Gaussian(R) 94 system (copyright 1995, Gaussian, Inc.),
 the Gaussian 92(TM) system (copyright 1992, Gaussian, Inc.),
 the Gaussian 90(TM) system (copyright 1990, Gaussian, Inc.),
 the Gaussian 88(TM) system (copyright 1988, Gaussian, Inc.),
 the Gaussian 86(TM) system (copyright 1986, Carnegie Mellon
 University), and the Gaussian 82(TM) system (copyright 1983,
 Carnegie Mellon University). Gaussian is a federally registered
 trademark of Gaussian, Inc.
  
 This software contains proprietary and confidential information,
 including trade secrets, belonging to Gaussian, Inc.
  
 This software is provided under written license and may be
 used, copied, transmitted, or stored only in accord with that
 written license.
  
 The following legend is applicable only to US Government
 contracts under FAR:
  
                    RESTRICTED RIGHTS LEGEND
  
 Use, reproduction and disclosure by the US Government is
 subject to restrictions as set forth in subparagraphs (a)
 and (c) of the Commercial Computer Software - Restricted
 Rights clause in FAR 52.227-19.
  
 Gaussian, Inc.
 340 Quinnipiac St., Bldg. 40, Wallingford CT 06492
  
  
 ---------------------------------------------------------------
 Warning -- This program may not be used in any manner that
 competes with the business of Gaussian, Inc. or will provide
 assistance to any competitor of Gaussian, Inc.  The licensee
 of this program is prohibited from giving any competitor of
 Gaussian, Inc. access to this program.  By using this program,
 the user acknowledges that Gaussian, Inc. is engaged in the
 business of creating and licensing software in the field of
 computational chemistry and represents and warrants to the
 licensee that it is not a competitor of Gaussian, Inc. and that
 it will not use this program in any manner prohibited above.
 ---------------------------------------------------------------
  

 Cite this work as:
 Gaussian 16, Revision C.01,
 M. J. Frisch, G. W. Trucks, H. B. Schlegel, G. E. Scuseria, 
 M. A. Robb, J. R. Cheeseman, G. Scalmani, V. Barone, 
 G. A. Petersson, H. Nakatsuji, X. Li, M. Caricato, A. V. Marenich, 
 J. Bloino, B. G. Janesko, R. Gomperts, B. Mennucci, H. P. Hratchian, 
 J. V. Ortiz, A. F. Izmaylov, J. L. Sonnenberg, D. Williams-Young, 
 F. Ding, F. Lipparini, F. Egidi, J. Goings, B. Peng, A. Petrone, 
 T. Henderson, D. Ranasinghe, V. G. Zakrzewski, J. Gao, N. Rega, 
 G. Zheng, W. Liang, M. Hada, M. Ehara, K. Toyota, R. Fukuda, 
 J. Hasegawa, M. Ishida, T. Nakajima, Y. Honda, O. Kitao, H. Nakai, 
 T. Vreven, K. Throssell, J. A. Montgomery, Jr., J. E. Peralta, 
 F. Ogliaro, M. J. Bearpark, J. J. Heyd, E. N. Brothers, K. N. Kudin, 
 V. N. Staroverov, T. A. Keith, R. Kobayashi, J. Normand, 
 K. Raghavachari, A. P. Rendell, J. C. Burant, S. S. Iyengar, 
 J. Tomasi, M. Cossi, J. M. Millam, M. Klene, C. Adamo, R. Cammi, 
 J. W. Ochterski, R. L. Martin, K. Morokuma, O. Farkas, 
 J. B. Foresman, and D. J. Fox, Gaussian, Inc., Wallingford CT, 2019.
 
 ******************************************
 Gaussian 16:  ES64L-G16RevC.01  3-Jul-2019
                26-Jul-2022 
 ******************************************
 %NProcShared=16
 Will use up to   16 processors via shared memory.
 %mem = 64GB
 ---------------------------------------------------------------
 #n M062X/6-311++G(d,p) TD(NStates=1) EmpiricalDispersion=GD3 SP
 ---------------------------------------------------------------
 1/38=1,172=1/1;
 2/12=2,17=6,18=5,40=1/2;
 3/5=4,6=6,7=1111,11=9,25=1,30=1,74=-55,124=31/1,2,3,8;
 4//1;
 5/5=2,38=5/2;
 8/6=1,10=2,108=1/1;
 9/41=1,42=1,70=2/14;
 6/7=2,8=2,9=2,10=2/1;
 99/5=1,9=1/99;
 ----
 SP_5
 ----
 Symbolic Z-matrix:
 Charge =  1 Multiplicity = 1
 C                     2.4927    1.2401    0.01 
 C                     3.7015    0.5787    0.053 
 C                     3.6839   -0.7161    0.021 
 C                     2.4632   -1.2589   -0.022 
 C                    -2.4632   -1.3789    0.042 
 C                    -3.6839   -0.7661    0.149 
 C                    -3.7015    0.6387    0.117 
 C                    -2.4927    1.3701    0.01 
 C                     0.        1.4301   -0.075 
 C                     0.       -1.3045   -0.075 
 C                     1.2621    0.7067   -0.021 
 C                     1.2375   -0.6761   -0.069 
 C                    -1.2621    0.7367   -0.109 
 C                    -1.2375   -0.6961   -0.061 
 H                     2.4881    2.2873    0.01 
 H                     4.6368    1.0934    0.102 
 H                     4.6093   -1.2177    0.122 
 H                     2.4675   -2.3104   -0.022 
 H                     0.       -2.4016   -0.08 
 H                    -2.4675   -2.5804    0.042 
 H                    -4.6093   -1.3177    0.138 
 H                    -4.6368    1.2034    0.158 
 H                    -2.4881    2.5773    0.01 
 H                     0.        1.9785   -0.9346 
 H                     0.        1.9785    0.7846 
 
                          Input orientation:                          
 ---------------------------------------------------------------------
 Center     Atomic      Atomic             Coordinates (Angstroms)
 Number     Number       Type             X           Y           Z
 ---------------------------------------------------------------------
      1          6           0        2.492700    1.240100    0.010000
      2          6           0        3.701500    0.578700    0.053000
      3          6           0        3.683900   -0.716100    0.021000
      4          6           0        2.463200   -1.258900   -0.022000
      5          6           0       -2.463200   -1.378900    0.042000
      6          6           0       -3.683900   -0.766100    0.149000
      7          6           0       -3.701500    0.638700    0.117000
      8          6           0       -2.492700    1.370100    0.010000
      9          6           0        0.000000    1.430100   -0.075000
     10          6           0        0.000000   -1.304500   -0.075000
     11          6           0        1.262100    0.706700   -0.021000
     12          6           0        1.237500   -0.676100   -0.069000
     13          6           0       -1.262100    0.736700   -0.109000
     14          6           0       -1.237500   -0.696100   -0.061000
     15          1           0        2.488100    2.287300    0.010000
     16          1           0        4.636800    1.093400    0.102000
     17          1           0        4.609300   -1.217700    0.122000
     18          1           0        2.467500   -2.310400   -0.022000
     19          1           0        0.000000   -2.401600   -0.080000
     20          1           0       -2.467500   -2.580400    0.042000
     21          1           0       -4.609300   -1.317700    0.138000
     22          1           0       -4.636800    1.203400    0.158000
     23          1           0       -2.488100    2.577300    0.010000
     24          1           0        0.000000    1.978500   -0.934600
     25          1           0        0.000000    1.978500    0.784600
 ---------------------------------------------------------------------
                    Distance matrix (angstroms):
                    1          2          3          4          5
     1  C    0.000000
     2  C    1.378585   0.000000
     3  C    2.290370   1.295315   0.000000
     4  C    2.499379   2.217157   1.336634   0.000000
     5  C    5.605455   6.468063   6.182765   4.928277   0.000000
     6  C    6.495733   7.507452   7.369081   6.169192   1.370066
     7  C    6.224247   7.403520   7.509250   6.451646   2.368485
     8  C    4.987095   6.244700   6.519412   5.610135   2.749345
     9  C    2.501375   3.800312   4.264564   3.647038   3.737850
    10  C    3.563112   4.154988   3.731829   2.464192   2.467099
    11  C    1.341586   2.443877   2.809135   2.303525   4.269843
    12  C    2.292071   2.767798   2.448382   1.358015   3.768478
    13  C    3.790263   4.968756   5.156592   4.227038   2.437459
    14  C    4.203368   5.102140   4.922124   3.743454   1.406828
    15  H    1.047210   2.096068   3.232719   3.546432   6.160959
    16  H    2.151081   1.068692   2.046673   3.205188   7.518369
    17  H    3.245508   2.013930   1.057435   2.151320   7.074789
    18  H    3.550734   3.142496   2.005809   1.051509   5.018325
    19  H    4.414027   4.754049   4.052435   2.715968   2.669860
    20  H    6.261056   6.930844   6.427735   5.105121   1.201508
    21  H    7.549644   8.524843   8.315815   7.074554   2.149118
    22  H    7.131130   8.362328   8.540334   7.517002   3.377316
    23  H    5.157177   6.504414   6.995726   6.263611   3.956408
    24  H    2.766054   4.078713   4.663171   4.169047   4.277059
    25  H    2.712710   4.024398   4.627642   4.147134   4.229769
                    6          7          8          9         10
     6  C    0.000000
     7  C    1.405275   0.000000
     8  C    2.449822   1.416895   0.000000
     9  C    4.294716   3.790024   2.494870   0.000000
    10  C    3.729768   4.184972   3.657084   2.734600   0.000000
    11  C    5.163425   4.965984   3.813081   1.455720   2.375024
    12  C    4.927048   5.114393   4.255299   2.442851   1.387922
    13  C    2.861833   2.451806   1.389148   1.440436   2.400115
    14  C    2.456394   2.807966   2.418626   2.460148   1.379041
    15  H    6.887391   6.406284   5.064546   2.632994   4.370228
    16  H    8.526078   8.350702   7.135461   4.652377   5.223138
    17  H    8.305531   8.515612   7.559607   5.319333   4.614324
    18  H    6.344590   6.839084   6.176624   4.481373   2.665183
    19  H    4.037130   4.794094   4.521877   3.831703   1.097111
    20  H    2.186953   3.448331   3.950710   4.710239   2.780318
    21  H    1.077380   2.156859   3.423543   5.370421   4.614238
    22  H    2.187928   1.093322   2.155657   4.648182   5.276719
    23  H    3.553531   2.289532   1.207209   2.741156   4.611533
    24  H    4.719972   4.074559   2.734223   1.019635   3.393671
    25  H    4.637665   3.992725   2.680244   1.019635   3.393671
                   11         12         13         14         15
    11  C    0.000000
    12  C    1.383852   0.000000
    13  C    2.525912   2.871516   0.000000
    14  C    2.866609   2.475094   1.433815   0.000000
    15  H    2.000583   3.217449   4.059867   4.773449   0.000000
    16  H    3.399010   3.836093   5.913440   6.142986   2.459832
    17  H    3.863614   3.420358   6.192445   5.872872   4.098421
    18  H    3.248982   2.045983   4.816877   4.041598   4.597858
    19  H    3.355280   2.123412   3.382701   2.107249   5.308910
    20  H    4.971812   4.167218   3.532555   2.252575   6.946474
    21  H    6.212633   5.885539   3.935139   3.434388   7.961501
    22  H    5.922480   6.171827   3.417265   3.900167   7.208394
    23  H    4.190955   4.946812   2.214734   3.504881   4.984643
    24  H    2.011228   3.054107   1.953607   3.073771   2.679229
    25  H    1.964526   3.050728   1.983301   3.065931   2.624120
                   16         17         18         19         20
    16  H    0.000000
    17  H    2.311350   0.000000
    18  H    4.038204   2.408742   0.000000
    19  H    5.809308   4.763200   2.469866   0.000000
    20  H    7.998218   7.207250   4.942795   2.476976   0.000000
    21  H    9.555368   9.219156   7.147877   4.740043   2.488159
    22  H    9.274421   9.557897   7.927816   5.878145   4.363079
    23  H    7.278367   8.049078   6.960503   5.566703   5.157840
    24  H    4.832997   5.707692   5.031507   4.462692   5.275024
    25  H    4.769618   5.648042   5.013364   4.464617   5.236753
                   21         22         23         24         25
    21  H    0.000000
    22  H    2.521329   0.000000
    23  H    4.436992   2.554685   0.000000
    24  H    5.767240   4.826434   2.727906   0.000000
    25  H    5.703391   4.742712   2.673800   1.719200   0.000000
 Stoichiometry    C14H11(1+)
 Framework group  C1[X(C14H11)]
 Deg. of freedom    69
 Full point group                 C1      NOp   1
 Largest Abelian subgroup         C1      NOp   1
 Largest concise Abelian subgroup C1      NOp   1
                         Standard orientation:                         
 ---------------------------------------------------------------------
 Center     Atomic      Atomic             Coordinates (Angstroms)
 Number     Number       Type             X           Y           Z
 ---------------------------------------------------------------------
      1          6           0        2.491098   -1.235381   -0.032773
      2          6           0        3.700281   -0.575236   -0.083571
      3          6           0        3.684465    0.719474   -0.047304
      4          6           0        2.464796    1.263536    0.007426
      5          6           0       -2.461818    1.389397   -0.015819
      6          6           0       -3.684073    0.778345   -0.114763
      7          6           0       -3.703060   -0.626529   -0.087094
      8          6           0       -2.494284   -1.359655    0.007667
      9          6           0       -0.001044   -1.422789    0.072046
     10          6           0        0.002168    1.311795    0.080754
     11          6           0        1.261421   -0.700670    0.010009
     12          6           0        1.238839    0.681997    0.062612
     13          6           0       -1.262008   -0.728052    0.118595
     14          6           0       -1.236119    0.704865    0.074958
     15          1           0        2.485268   -2.282570   -0.036070
     16          1           0        4.634543   -1.090851   -0.141872
     17          1           0        4.609595    1.220331   -0.154286
     18          1           0        2.470331    2.315025    0.010739
     19          1           0        0.003498    2.408873    0.089248
     20          1           0       -2.464707    2.590895   -0.011958
     21          1           0       -4.608703    1.330969   -0.094423
     22          1           0       -4.639327   -1.190021   -0.122226
     23          1           0       -2.491102   -2.566853    0.003785
     24          1           0        0.005353   -1.973932    0.929866
     25          1           0       -0.008729   -1.968440   -0.789267
 ---------------------------------------------------------------------
 Rotational constants (GHZ):           2.2998733           0.4442380           0.3736307
 Standard basis: 6-311++G(d,p) (5D, 7F)
 There are   399 symmetry adapted cartesian basis functions of A   symmetry.
 There are   385 symmetry adapted basis functions of A   symmetry.
   385 basis functions,   603 primitive gaussians,   399 cartesian basis functions
    47 alpha electrons       47 beta electrons
       nuclear repulsion energy       792.2792465491 Hartrees.
 NAtoms=   25 NActive=   25 NUniq=   25 SFac= 1.00D+00 NAtFMM=   60 NAOKFM=F Big=F
 Integral buffers will be    131072 words long.
 Regular integral format.
 Two-electron integral symmetry is turned on.
 Nuclear repulsion after empirical dispersion term =      792.2782882028 Hartrees.
 One-electron integrals computed using PRISM.
 NBasis=   385 RedAO= T EigKep=  1.13D-06  NBF=   385
 NBsUse=   379 1.00D-06 EigRej=  8.62D-07 NBFU=   379
 ExpMin= 3.60D-02 ExpMax= 4.56D+03 ExpMxC= 6.82D+02 IAcc=3 IRadAn=         5 AccDes= 0.00D+00
 Harris functional with IExCor= 1009 and IRadAn=       5 diagonalized for initial guess.
 HarFok:  IExCor= 1009 AccDes= 0.00D+00 IRadAn=         5 IDoV= 1 UseB2=F ITyADJ=14
 ICtDFT=  3500011 ScaDFX=  1.000000  1.000000  1.000000  1.000000
 FoFCou: FMM=F IPFlag=           0 FMFlag=      100000 FMFlg1=           0
         NFxFlg=           0 DoJE=T BraDBF=F KetDBF=T FulRan=T
         wScrn=  0.000000 ICntrl=       500 IOpCl=  0 I1Cent=   200000004 NGrid=           0
         NMat0=    1 NMatS0=      1 NMatT0=    0 NMatD0=    1 NMtDS0=    0 NMtDT0=    0
 Petite list used in FoFCou.
 Requested convergence on RMS density matrix=1.00D-08 within 128 cycles.
 Requested convergence on MAX density matrix=1.00D-06.
 Requested convergence on             energy=1.00D-06.
 No special actions if energy rises.
 SCF Done:  E(RM062X) =  -539.686732335     A.U. after   15 cycles
            NFock= 15  Conv=0.77D-08     -V/T= 2.0018
 DoSCS=F DFT=T ScalE2(SS,OS)=  1.000000  1.000000
 ExpMin= 3.60D-02 ExpMax= 4.56D+03 ExpMxC= 6.82D+02 IAcc=3 IRadAn=         5 AccDes= 0.00D+00
 HarFok:  IExCor=  205 AccDes= 0.00D+00 IRadAn=         5 IDoV=-2 UseB2=F ITyADJ=14
 ICtDFT= 12500011 ScaDFX=  1.000000  1.000000  1.000000  1.000000
 Range of M.O.s used for correlation:    15   379
 NBasis=   385 NAE=    47 NBE=    47 NFC=    14 NFV=     0
 NROrb=    365 NOA=    33 NOB=    33 NVA=   332 NVB=   332

 **** Warning!!: The largest alpha MO coefficient is  0.13695154D+03

 Orbital symmetries:
       Occupied  (A) (A) (A) (A) (A) (A) (A) (A) (A) (A) (A) (A)
                 (A) (A) (A) (A) (A) (A) (A) (A) (A) (A) (A) (A)
                 (A) (A) (A) (A) (A) (A) (A) (A) (A) (A) (A) (A)
                 (A) (A) (A) (A) (A) (A) (A) (A) (A) (A) (A)
       Virtual   (A) (A) (A) (A) (A) (A) (A) (A) (A) (A) (A) (A)
                 (A) (A) (A) (A) (A) (A) (A) (A) (A) (A) (A) (A)
                 (A) (A) (A) (A) (A) (A) (A) (A) (A) (A) (A) (A)
                 (A) (A) (A) (A) (A) (A) (A) (A) (A) (A) (A) (A)
                 (A) (A) (A) (A) (A) (A) (A) (A) (A) (A) (A) (A)
                 (A) (A) (A) (A) (A) (A) (A) (A) (A) (A) (A) (A)
                 (A) (A) (A) (A) (A) (A) (A) (A) (A) (A) (A) (A)
                 (A) (A) (A) (A) (A) (A) (A) (A) (A) (A) (A) (A)
                 (A) (A) (A) (A) (A) (A) (A) (A) (A) (A) (A) (A)
                 (A) (A) (A) (A) (A) (A) (A) (A) (A) (A) (A) (A)
                 (A) (A) (A) (A) (A) (A) (A) (A) (A) (A) (A) (A)
                 (A) (A) (A) (A) (A) (A) (A) (A) (A) (A) (A) (A)
                 (A) (A) (A) (A) (A) (A) (A) (A) (A) (A) (A) (A)
                 (A) (A) (A) (A) (A) (A) (A) (A) (A) (A) (A) (A)
                 (A) (A) (A) (A) (A) (A) (A) (A) (A) (A) (A) (A)
                 (A) (A) (A) (A) (A) (A) (A) (A) (A) (A) (A) (A)
                 (A) (A) (A) (A) (A) (A) (A) (A) (A) (A) (A) (A)
                 (A) (A) (A) (A) (A) (A) (A) (A) (A) (A) (A) (A)
                 (A) (A) (A) (A) (A) (A) (A) (A) (A) (A) (A) (A)
                 (A) (A) (A) (A) (A) (A) (A) (A) (A) (A) (A) (A)
                 (A) (A) (A) (A) (A) (A) (A) (A) (A) (A) (A) (A)
                 (A) (A) (A) (A) (A) (A) (A) (A) (A) (A) (A) (A)
                 (A) (A) (A) (A) (A) (A) (A) (A) (A) (A) (A) (A)
                 (A) (A) (A) (A) (A) (A) (A) (A) (A) (A) (A) (A)
                 (A) (A) (A) (A) (A) (A) (A) (A) (A) (A) (A) (A)
                 (A) (A) (A) (A) (A) (A) (A) (A) (A) (A) (A) (A)
                 (A) (A) (A) (A) (A) (A) (A) (A) (A) (A) (A) (A)
                 (A) (A) (A) (A) (A) (A) (A) (A)
     4 initial guesses have been made.
 Convergence on wavefunction:    0.001000000000000
 Iteration     1 Dimension     4 NMult     0 NNew      4
 CISAX will form     4 AO SS matrices at one time.
 Iteration     2 Dimension     6 NMult     4 NNew      2
 Iteration     3 Dimension     8 NMult     6 NNew      2
 Iteration     4 Dimension    10 NMult     8 NNew      2
 Iteration     5 Dimension    12 NMult    10 NNew      2
 Iteration     6 Dimension    14 NMult    12 NNew      2
 ***********************************************************************
 Excited states from <AA,BB:AA,BB> singles matrix:
 ***********************************************************************
 
 Ground to excited state transition densities written to RWF  633
 Ground to excited state transition electric dipole moments (Au):
       state          X           Y           Z        Dip. S.      Osc.
         1        -0.3983     -0.5961      0.0274      0.5148      0.0390
 Ground to excited state transition velocity dipole moments (Au):
       state          X           Y           Z        Dip. S.      Osc.
         1         0.0459      0.0756     -0.0031      0.0078      0.0460
 Ground to excited state transition magnetic dipole moments (Au):
       state          X           Y           Z
         1         0.0497     -0.0103     -0.2796
 Ground to excited state transition velocity quadrupole moments (Au):
       state          XX          YY          ZZ          XY          XZ          YZ
         1         0.3136      0.0410     -0.0079     -0.0156      0.0034      0.0108
 <0|del|b> * <b|rxdel|0> + <0|del|b> * <b|delr+rdel|0>
 Rotatory Strengths (R) in cgs (10**-40 erg-esu-cm/Gauss)
       state          XX          YY          ZZ    R(velocity)    E-M Angle
         1        -0.3522     11.2135      3.9421      4.9345       84.57
 1/2[<0|r|b>*<b|rxdel|0> + (<0|rxdel|b>*<b|r|0>)*]
 Rotatory Strengths (R) in cgs (10**-40 erg-esu-cm/Gauss)
       state          XX          YY          ZZ     R(length)
         1        14.0115     -4.3272      5.4232      5.0358
  1/2[<0|del|b>*<b|r|0> + (<0|r|b>*<b|del|0>)*] (Au)
       state          X           Y           Z        Dip. S.   Osc.(frdel)
         1        -0.0183     -0.0451     -0.0001      0.0635      0.0423

 Excitation energies and oscillator strengths:
 
 Excited State   1:      Singlet-A      3.0935 eV  400.78 nm  f=0.0390  <S**2>=0.000
      46 -> 48         0.17576
      47 -> 48         0.68140
 This state for optimization and/or second-order correction.
 Total Energy, E(TD-HF/TD-DFT) =  -539.573046984    
 Copying the excited state density for this state as the 1-particle RhoCI density.
 SavETr:  write IOETrn=   770 NScale= 10 NData=  16 NLR=1 NState=    1 LETran=      28.

 **********************************************************************

            Population analysis using the SCF Density.

 **********************************************************************

 Orbital symmetries:
       Occupied  (A) (A) (A) (A) (A) (A) (A) (A) (A) (A) (A) (A)
                 (A) (A) (A) (A) (A) (A) (A) (A) (A) (A) (A) (A)
                 (A) (A) (A) (A) (A) (A) (A) (A) (A) (A) (A) (A)
                 (A) (A) (A) (A) (A) (A) (A) (A) (A) (A) (A)
       Virtual   (A) (A) (A) (A) (A) (A) (A) (A) (A) (A) (A) (A)
                 (A) (A) (A) (A) (A) (A) (A) (A) (A) (A) (A) (A)
                 (A) (A) (A) (A) (A) (A) (A) (A) (A) (A) (A) (A)
                 (A) (A) (A) (A) (A) (A) (A) (A) (A) (A) (A) (A)
                 (A) (A) (A) (A) (A) (A) (A) (A) (A) (A) (A) (A)
                 (A) (A) (A) (A) (A) (A) (A) (A) (A) (A) (A) (A)
                 (A) (A) (A) (A) (A) (A) (A) (A) (A) (A) (A) (A)
                 (A) (A) (A) (A) (A) (A) (A) (A) (A) (A) (A) (A)
                 (A) (A) (A) (A) (A) (A) (A) (A) (A) (A) (A) (A)
                 (A) (A) (A) (A) (A) (A) (A) (A) (A) (A) (A) (A)
                 (A) (A) (A) (A) (A) (A) (A) (A) (A) (A) (A) (A)
                 (A) (A) (A) (A) (A) (A) (A) (A) (A) (A) (A) (A)
                 (A) (A) (A) (A) (A) (A) (A) (A) (A) (A) (A) (A)
                 (A) (A) (A) (A) (A) (A) (A) (A) (A) (A) (A) (A)
                 (A) (A) (A) (A) (A) (A) (A) (A) (A) (A) (A) (A)
                 (A) (A) (A) (A) (A) (A) (A) (A) (A) (A) (A) (A)
                 (A) (A) (A) (A) (A) (A) (A) (A) (A) (A) (A) (A)
                 (A) (A) (A) (A) (A) (A) (A) (A) (A) (A) (A) (A)
                 (A) (A) (A) (A) (A) (A) (A) (A) (A) (A) (A) (A)
                 (A) (A) (A) (A) (A) (A) (A) (A) (A) (A) (A) (A)
                 (A) (A) (A) (A) (A) (A) (A) (A) (A) (A) (A) (A)
                 (A) (A) (A) (A) (A) (A) (A) (A) (A) (A) (A) (A)
                 (A) (A) (A) (A) (A) (A) (A) (A) (A) (A) (A) (A)
                 (A) (A) (A) (A) (A) (A) (A) (A) (A) (A) (A) (A)
                 (A) (A) (A) (A) (A) (A) (A) (A) (A) (A) (A) (A)
                 (A) (A) (A) (A) (A) (A) (A) (A) (A) (A) (A) (A)
                 (A) (A) (A) (A) (A) (A) (A) (A) (A) (A) (A) (A)
                 (A) (A) (A) (A) (A) (A) (A) (A)
 The electronic state is 1-A.
 Alpha  occ. eigenvalues --  -10.76586 -10.73549 -10.72775 -10.72612 -10.72521
 Alpha  occ. eigenvalues --  -10.71511 -10.71202 -10.70906 -10.70264 -10.69714
 Alpha  occ. eigenvalues --  -10.69367 -10.68975 -10.67895 -10.67534  -1.18232
 Alpha  occ. eigenvalues --   -1.14175  -1.08704  -1.06985  -1.02411  -1.01159
 Alpha  occ. eigenvalues --   -0.96488  -0.92678  -0.86941  -0.86135  -0.83556
 Alpha  occ. eigenvalues --   -0.79354  -0.77578  -0.74044  -0.71977  -0.71640
 Alpha  occ. eigenvalues --   -0.69362  -0.68342  -0.66785  -0.66111  -0.62904
 Alpha  occ. eigenvalues --   -0.62175  -0.62020  -0.61532  -0.60486  -0.59833
 Alpha  occ. eigenvalues --   -0.56890  -0.55285  -0.53278  -0.52498  -0.47801
 Alpha  occ. eigenvalues --   -0.46316  -0.45318
 Alpha virt. eigenvalues --   -0.25858  -0.14481  -0.13670  -0.11776  -0.11183
 Alpha virt. eigenvalues --   -0.09932  -0.09417  -0.08225  -0.07977  -0.07478
 Alpha virt. eigenvalues --   -0.07220  -0.06800  -0.05680  -0.05509  -0.05186
 Alpha virt. eigenvalues --   -0.04219  -0.03867  -0.03130  -0.03048  -0.02021
 Alpha virt. eigenvalues --   -0.01744  -0.00868   0.00316   0.00385   0.00635
 Alpha virt. eigenvalues --    0.01234   0.01318   0.02034   0.02102   0.02279
 Alpha virt. eigenvalues --    0.02618   0.02877   0.02997   0.03119   0.03454
 Alpha virt. eigenvalues --    0.04149   0.04281   0.04954   0.05274   0.05384
 Alpha virt. eigenvalues --    0.05679   0.06379   0.06838   0.06901   0.07442
 Alpha virt. eigenvalues --    0.07684   0.07950   0.08162   0.08819   0.09212
 Alpha virt. eigenvalues --    0.09388   0.09844   0.10016   0.10143   0.11410
 Alpha virt. eigenvalues --    0.11576   0.12026   0.12263   0.12733   0.12935
 Alpha virt. eigenvalues --    0.13356   0.13585   0.14771   0.15063   0.15743
 Alpha virt. eigenvalues --    0.16042   0.16654   0.17910   0.18147   0.18198
 Alpha virt. eigenvalues --    0.19074   0.19343   0.19693   0.20201   0.20556
 Alpha virt. eigenvalues --    0.20836   0.21827   0.22698   0.23012   0.23855
 Alpha virt. eigenvalues --    0.24781   0.25400   0.25995   0.27295   0.28262
 Alpha virt. eigenvalues --    0.29229   0.29409   0.31740   0.32409   0.37323
 Alpha virt. eigenvalues --    0.38039   0.38701   0.39154   0.40490   0.41429
 Alpha virt. eigenvalues --    0.41736   0.42570   0.43292   0.43943   0.44440
 Alpha virt. eigenvalues --    0.44880   0.45560   0.47685   0.47748   0.48109
 Alpha virt. eigenvalues --    0.48571   0.49099   0.49639   0.50463   0.50780
 Alpha virt. eigenvalues --    0.51168   0.51974   0.52481   0.52885   0.53688
 Alpha virt. eigenvalues --    0.54263   0.55957   0.56168   0.56480   0.58291
 Alpha virt. eigenvalues --    0.59872   0.59975   0.61518   0.61852   0.62912
 Alpha virt. eigenvalues --    0.63670   0.64178   0.64653   0.66735   0.67199
 Alpha virt. eigenvalues --    0.68288   0.70045   0.71136   0.72438   0.72975
 Alpha virt. eigenvalues --    0.74615   0.74709   0.75932   0.76374   0.77056
 Alpha virt. eigenvalues --    0.77861   0.78463   0.78696   0.79604   0.81228
 Alpha virt. eigenvalues --    0.81716   0.82439   0.82599   0.83460   0.84320
 Alpha virt. eigenvalues --    0.85315   0.87157   0.88162   0.88536   0.90514
 Alpha virt. eigenvalues --    0.91162   0.93405   0.94594   0.94881   0.96282
 Alpha virt. eigenvalues --    0.97675   0.98893   1.01847   1.02749   1.03642
 Alpha virt. eigenvalues --    1.04877   1.06703   1.08332   1.09793   1.11654
 Alpha virt. eigenvalues --    1.21774   1.22904   1.25561   1.29209   1.30257
 Alpha virt. eigenvalues --    1.31669   1.32712   1.33136   1.34519   1.36344
 Alpha virt. eigenvalues --    1.37416   1.41432   1.42815   1.43257   1.44286
 Alpha virt. eigenvalues --    1.44780   1.45893   1.47208   1.48648   1.49422
 Alpha virt. eigenvalues --    1.51431   1.51771   1.52060   1.54313   1.55771
 Alpha virt. eigenvalues --    1.57094   1.58778   1.60149   1.60846   1.61317
 Alpha virt. eigenvalues --    1.61559   1.62704   1.64897   1.66272   1.67823
 Alpha virt. eigenvalues --    1.68761   1.71023   1.71371   1.73158   1.76699
 Alpha virt. eigenvalues --    1.77261   1.78384   1.81449   1.82189   1.82315
 Alpha virt. eigenvalues --    1.82834   1.84351   1.84720   1.85835   1.86518
 Alpha virt. eigenvalues --    1.86674   1.87789   1.89901   1.91170   1.92825
 Alpha virt. eigenvalues --    1.93477   1.96358   1.97263   1.99016   2.02640
 Alpha virt. eigenvalues --    2.03964   2.05285   2.07494   2.09730   2.11521
 Alpha virt. eigenvalues --    2.14744   2.17360   2.17799   2.21708   2.23950
 Alpha virt. eigenvalues --    2.25213   2.28583   2.29384   2.34124   2.37259
 Alpha virt. eigenvalues --    2.39306   2.40251   2.41575   2.43786   2.44095
 Alpha virt. eigenvalues --    2.45474   2.51028   2.53518   2.56116   2.56443
 Alpha virt. eigenvalues --    2.57659   2.59100   2.59817   2.60280   2.61583
 Alpha virt. eigenvalues --    2.62421   2.62764   2.63188   2.64135   2.65092
 Alpha virt. eigenvalues --    2.66138   2.66921   2.68111   2.68500   2.69529
 Alpha virt. eigenvalues --    2.70678   2.71717   2.75337   2.76373   2.77049
 Alpha virt. eigenvalues --    2.77787   2.78765   2.81446   2.85321   2.89280
 Alpha virt. eigenvalues --    2.89635   2.94643   2.95336   2.99682   3.00334
 Alpha virt. eigenvalues --    3.05111   3.08500   3.10225   3.12242   3.24377
 Alpha virt. eigenvalues --    3.24938   3.25861   3.29750   3.31540   3.37059
 Alpha virt. eigenvalues --    3.38690   3.39529   3.41217   3.42694   3.52207
 Alpha virt. eigenvalues --    3.56501   3.58044   3.60177   3.63634   3.73407
 Alpha virt. eigenvalues --    3.86787   3.88829   3.96904   3.98241   3.99016
 Alpha virt. eigenvalues --    4.00472   4.03025   4.06445   4.12418   4.38770
 Alpha virt. eigenvalues --    4.66993   4.72134   4.73755  23.41838  23.59947
 Alpha virt. eigenvalues --   23.79110  23.84141  23.91551  23.95213  23.98351
 Alpha virt. eigenvalues --   24.00839  24.06403  24.08636  24.08889  24.19959
 Alpha virt. eigenvalues --   24.22538  24.41163
          Condensed to atoms (all electrons):
               1          2          3          4          5          6
     1  C    9.660585   0.478940  -0.389590   2.414033  -0.109283  -0.098578
     2  C    0.478940   7.143008   0.674456  -0.651249  -0.002603  -0.014924
     3  C   -0.389590   0.674456   7.191944  -0.030250  -0.159288   0.023453
     4  C    2.414033  -0.651249  -0.030250  11.951540  -0.122912  -0.090740
     5  C   -0.109283  -0.002603  -0.159288  -0.122912  11.153254  -0.028374
     6  C   -0.098578  -0.014924   0.023453  -0.090740  -0.028374   6.884409
     7  C   -0.030574   0.006763  -0.016888  -0.139168  -0.779637   0.391832
     8  C    0.565055   0.011588  -0.079993   0.110734   2.661764  -1.189183
     9  C   -1.437084  -0.665549   0.321349  -1.846246  -0.003867   0.460606
    10  C   -2.090190   0.050266  -0.714866  -2.932875  -2.258098  -0.324757
    11  C    0.233068  -1.385655   1.139850  -0.626348  -1.642600  -0.059747
    12  C   -2.055440   0.709168  -1.766379   0.313966  -0.467883  -0.314237
    13  C   -0.020583  -0.118287  -0.159132  -1.557566  -0.366038   1.371178
    14  C   -1.547308  -0.196417   0.027819  -1.197677  -2.346450  -0.916153
    15  H    0.344646  -0.046802  -0.025168   0.025552   0.004770   0.000614
    16  H   -0.024033   0.398770  -0.013597   0.022689  -0.001171  -0.000162
    17  H   -0.024307  -0.011698   0.400160  -0.073479  -0.001130   0.000135
    18  H    0.039815  -0.023926  -0.088898   0.472242   0.017741  -0.002733
    19  H   -0.054353  -0.011115   0.059040  -0.075325  -0.097235   0.055236
    20  H    0.005621   0.002098  -0.003384   0.011864   0.430149  -0.089878
    21  H   -0.000719  -0.000143   0.000444  -0.001007  -0.093052   0.414454
    22  H    0.000011   0.000325  -0.000291  -0.002392   0.014762  -0.017661
    23  H    0.012660  -0.000690   0.001736   0.007971   0.013927  -0.016572
    24  H    0.066233   0.016980   0.003702  -0.022412  -0.019704   0.006713
    25  H    0.105490   0.037311  -0.006781  -0.010048  -0.007268  -0.008752
               7          8          9         10         11         12
     1  C   -0.030574   0.565055  -1.437084  -2.090190   0.233068  -2.055440
     2  C    0.006763   0.011588  -0.665549   0.050266  -1.385655   0.709168
     3  C   -0.016888  -0.079993   0.321349  -0.714866   1.139850  -1.766379
     4  C   -0.139168   0.110734  -1.846246  -2.932875  -0.626348   0.313966
     5  C   -0.779637   2.661764  -0.003867  -2.258098  -1.642600  -0.467883
     6  C    0.391832  -1.189183   0.460606  -0.324757  -0.059747  -0.314237
     7  C    6.871200   0.080025  -0.264289   0.099506  -0.270358  -0.309521
     8  C    0.080025  10.095401  -0.988937  -1.448045  -0.034737  -0.438075
     9  C   -0.264289  -0.988937  10.878755   0.288010   2.024013  -3.271267
    10  C    0.099506  -1.448045   0.288010  11.139269  -1.381709   2.670816
    11  C   -0.270358  -0.034737   2.024013  -1.381709  13.368259  -1.415267
    12  C   -0.309521  -0.438075  -3.271267   2.670816  -1.415267  15.703768
    13  C   -0.191171  -1.407568   2.288232  -1.317285  -0.590440  -4.640460
    14  C    0.668023  -2.410661  -2.422883   3.613715  -2.597846   0.821603
    15  H   -0.001968   0.008878   0.039724   0.000496  -0.058818   0.068081
    16  H   -0.000034  -0.000118  -0.006900  -0.017745   0.003641  -0.016712
    17  H   -0.000103  -0.000489  -0.000704   0.018060  -0.021019   0.061720
    18  H    0.000291   0.006818  -0.040115   0.061106  -0.015272  -0.026139
    19  H    0.000654  -0.066998   0.099679   0.391804   0.087783  -0.124348
    20  H   -0.012729   0.061856  -0.023638   0.058914  -0.014988   0.000016
    21  H   -0.028697  -0.048683   0.002130   0.025508   0.002792   0.002451
    22  H    0.380832  -0.019118   0.010143  -0.012617  -0.002085  -0.008290
    23  H   -0.053750   0.311714   0.057881  -0.000703   0.008902   0.011494
    24  H    0.027842   0.038487   0.402918  -0.010675  -0.045209  -0.105859
    25  H    0.020344   0.090741   0.352399  -0.018573  -0.033404  -0.046988
              13         14         15         16         17         18
     1  C   -0.020583  -1.547308   0.344646  -0.024033  -0.024307   0.039815
     2  C   -0.118287  -0.196417  -0.046802   0.398770  -0.011698  -0.023926
     3  C   -0.159132   0.027819  -0.025168  -0.013597   0.400160  -0.088898
     4  C   -1.557566  -1.197677   0.025552   0.022689  -0.073479   0.472242
     5  C   -0.366038  -2.346450   0.004770  -0.001171  -0.001130   0.017741
     6  C    1.371178  -0.916153   0.000614  -0.000162   0.000135  -0.002733
     7  C   -0.191171   0.668023  -0.001968  -0.000034  -0.000103   0.000291
     8  C   -1.407568  -2.410661   0.008878  -0.000118  -0.000489   0.006818
     9  C    2.288232  -2.422883   0.039724  -0.006900  -0.000704  -0.040115
    10  C   -1.317285   3.613715   0.000496  -0.017745   0.018060   0.061106
    11  C   -0.590440  -2.597846  -0.058818   0.003641  -0.021019  -0.015272
    12  C   -4.640460   0.821603   0.068081  -0.016712   0.061720  -0.026139
    13  C   14.697570  -1.289061  -0.019147   0.001347  -0.001438  -0.020656
    14  C   -1.289061  15.351692   0.000559  -0.006887   0.006492  -0.036537
    15  H   -0.019147   0.000559   0.453374  -0.008663   0.001107   0.000484
    16  H    0.001347  -0.006887  -0.008663   0.428144  -0.008294   0.000859
    17  H   -0.001438   0.006492   0.001107  -0.008294   0.436229  -0.007872
    18  H   -0.020656  -0.036537   0.000484   0.000859  -0.007872   0.461633
    19  H    0.059865   0.037364  -0.000150  -0.000592   0.000836  -0.002780
    20  H   -0.027177  -0.090020  -0.000099   0.000003  -0.000059   0.000755
    21  H    0.005704   0.072013   0.000006  -0.000002   0.000008  -0.000147
    22  H    0.018875  -0.026090  -0.000113   0.000001  -0.000002  -0.000006
    23  H   -0.059165   0.010707   0.000424  -0.000034   0.000020  -0.000125
    24  H    0.032601  -0.063783   0.000184   0.000159   0.000012  -0.000220
    25  H   -0.046054  -0.093350  -0.000593   0.000470  -0.000386   0.001415
              19         20         21         22         23         24
     1  C   -0.054353   0.005621  -0.000719   0.000011   0.012660   0.066233
     2  C   -0.011115   0.002098  -0.000143   0.000325  -0.000690   0.016980
     3  C    0.059040  -0.003384   0.000444  -0.000291   0.001736   0.003702
     4  C   -0.075325   0.011864  -0.001007  -0.002392   0.007971  -0.022412
     5  C   -0.097235   0.430149  -0.093052   0.014762   0.013927  -0.019704
     6  C    0.055236  -0.089878   0.414454  -0.017661  -0.016572   0.006713
     7  C    0.000654  -0.012729  -0.028697   0.380832  -0.053750   0.027842
     8  C   -0.066998   0.061856  -0.048683  -0.019118   0.311714   0.038487
     9  C    0.099679  -0.023638   0.002130   0.010143   0.057881   0.402918
    10  C    0.391804   0.058914   0.025508  -0.012617  -0.000703  -0.010675
    11  C    0.087783  -0.014988   0.002792  -0.002085   0.008902  -0.045209
    12  C   -0.124348   0.000016   0.002451  -0.008290   0.011494  -0.105859
    13  C    0.059865  -0.027177   0.005704   0.018875  -0.059165   0.032601
    14  C    0.037364  -0.090020   0.072013  -0.026090   0.010707  -0.063783
    15  H   -0.000150  -0.000099   0.000006  -0.000113   0.000424   0.000184
    16  H   -0.000592   0.000003  -0.000002   0.000001  -0.000034   0.000159
    17  H    0.000836  -0.000059   0.000008  -0.000002   0.000020   0.000012
    18  H   -0.002780   0.000755  -0.000147  -0.000006  -0.000125  -0.000220
    19  H    0.460198  -0.004218   0.002270  -0.000405   0.000196   0.001636
    20  H   -0.004218   0.434421  -0.008125   0.001388   0.000345   0.000161
    21  H    0.002270  -0.008125   0.429734  -0.006342   0.000645  -0.000058
    22  H   -0.000405   0.001388  -0.006342   0.410448  -0.005737   0.000443
    23  H    0.000196   0.000345   0.000645  -0.005737   0.424159  -0.001254
    24  H    0.001636   0.000161  -0.000058   0.000443  -0.001254   0.480933
    25  H   -0.001262   0.000434  -0.000141   0.000868   0.001910  -0.039982
              25
     1  C    0.105490
     2  C    0.037311
     3  C   -0.006781
     4  C   -0.010048
     5  C   -0.007268
     6  C   -0.008752
     7  C    0.020344
     8  C    0.090741
     9  C    0.352399
    10  C   -0.018573
    11  C   -0.033404
    12  C   -0.046988
    13  C   -0.046054
    14  C   -0.093350
    15  H   -0.000593
    16  H    0.000470
    17  H   -0.000386
    18  H    0.001415
    19  H   -0.001262
    20  H    0.000434
    21  H   -0.000141
    22  H    0.000868
    23  H    0.001910
    24  H   -0.039982
    25  H    0.480535
 Mulliken charges:
               1
     1  C   -0.044116
     2  C   -0.400614
     3  C   -0.389448
     4  C    0.049102
     5  C    0.210227
     6  C   -0.436177
     7  C   -0.448425
     8  C    0.089544
     9  C   -0.254361
    10  C    0.110668
    11  C   -0.672806
    12  C    0.643782
    13  C   -0.644144
    14  C    0.631135
    15  H    0.212622
    16  H    0.248862
    17  H    0.226200
    18  H    0.202268
    19  H    0.182218
    20  H    0.266292
    21  H    0.228959
    22  H    0.263055
    23  H    0.273342
    24  H    0.230150
    25  H    0.221665
 Sum of Mulliken charges =   1.00000
 Mulliken charges with hydrogens summed into heavy atoms:
               1
     1  C    0.168505
     2  C   -0.151752
     3  C   -0.163248
     4  C    0.251370
     5  C    0.476519
     6  C   -0.207218
     7  C   -0.185370
     8  C    0.362886
     9  C    0.197454
    10  C    0.292886
    11  C   -0.672806
    12  C    0.643782
    13  C   -0.644144
    14  C    0.631135
 Electronic spatial extent (au):  <R**2>=           2820.7260
 Charge=              1.0000 electrons
 Dipole moment (field-independent basis, Debye):
    X=             -0.5970    Y=              0.3164    Z=             -0.0850  Tot=              0.6810
 Quadrupole moment (field-independent basis, Debye-Ang):
   XX=            -28.0332   YY=            -59.7316   ZZ=            -82.8675
   XY=              0.3505   XZ=             -0.4256   YZ=              0.0770
 Traceless Quadrupole moment (field-independent basis, Debye-Ang):
   XX=             28.8442   YY=             -2.8541   ZZ=            -25.9901
   XY=              0.3505   XZ=             -0.4256   YZ=              0.0770
 Octapole moment (field-independent basis, Debye-Ang**2):
  XXX=             -1.5975  YYY=              5.3754  ZZZ=              0.4369  XYY=             -6.7293
  XXY=              0.4674  XXZ=             -7.5027  XZZ=              2.9035  YZZ=             -3.0297
  YYZ=              0.1490  XYZ=             -0.4408
 Hexadecapole moment (field-independent basis, Debye-Ang**3):
 XXXX=          -2045.0340 YYYY=           -592.8427 ZZZZ=            -98.4070 XXXY=              3.8710
 XXXZ=            -10.6779 YYYX=             -0.0826 YYYZ=              0.6425 ZZZX=             -0.7871
 ZZZY=             -0.5302 XXYY=           -510.2413 XXZZ=           -581.4384 YYZZ=           -138.1276
 XXYZ=              0.6266 YYXZ=             -0.6899 ZZXY=              0.4717
 N-N= 7.922782882028D+02 E-N=-2.821587257737D+03  KE= 5.387017428954D+02
 Unable to Open any file for archive entry.
 1\1\GINC-GADI-CPU-CLX-0072\SP\RM062X TD-FC\6-311++G(d,p)\C14H11(1+)\TS
 1578\26-Jul-2022\0\\#n M062X/6-311++G(d,p) TD(NStates=1) EmpiricalDisp
 ersion=GD3 SP\\SP_5\\1,1\C,0,2.4927,1.2401,0.01\C,0,3.7015,0.5787,0.05
 3\C,0,3.6839,-0.7161,0.021\C,0,2.4632,-1.2589,-0.022\C,0,-2.4632,-1.37
 89,0.042\C,0,-3.6839,-0.7661,0.149\C,0,-3.7015,0.6387,0.117\C,0,-2.492
 7,1.3701,0.01\C,0,0.,1.4301,-0.075\C,0,0.,-1.3045,-0.075\C,0,1.2621,0.
 7067,-0.021\C,0,1.2375,-0.6761,-0.069\C,0,-1.2621,0.7367,-0.109\C,0,-1
 .2375,-0.6961,-0.061\H,0,2.4881,2.2873,0.01\H,0,4.6368,1.0934,0.102\H,
 0,4.6093,-1.2177,0.122\H,0,2.4675,-2.3104,-0.022\H,0,0.,-2.4016,-0.08\
 H,0,-2.4675,-2.5804,0.042\H,0,-4.6093,-1.3177,0.138\H,0,-4.6368,1.2034
 ,0.158\H,0,-2.4881,2.5773,0.01\H,0,0.,1.9785,-0.9346\H,0,0.,1.9785,0.7
 846\\Version=ES64L-G16RevC.01\State=1-A\HF=-539.6867323\RMSD=7.718e-09
 \PG=C01 [X(C14H11)]\\@
 The archive entry for this job was punched.


 IT MATTERS NOT HOW DEEP YOU PLOW,
 BUT HOW LONG YOU STAY IN THE FURROW.
 Job cpu time:       0 days  1 hours  5 minutes 53.8 seconds.
 Elapsed time:       0 days  0 hours  6 minutes 58.0 seconds.
 File lengths (MBytes):  RWF=    460 Int=      0 D2E=      0 Chk=     15 Scr=      1
 Normal termination of Gaussian 16 at Tue Jul 26 20:39:04 2022.
