 Entering Gaussian System, Link 0=g16
 Initial command:
 /apps/gaussian/g16c01/g16/l1.exe "/jobfs/52716446.gadi-pbs/Gau-1297093.inp" -scrdir="/jobfs/52716446.gadi-pbs/"
 Entering Link 1 = /apps/gaussian/g16c01/g16/l1.exe PID=   1297094.
  
 Copyright (c) 1988-2019, Gaussian, Inc.  All Rights Reserved.
  
 This is part of the Gaussian(R) 16 program.  It is based on
 the Gaussian(R) 09 system (copyright 2009, Gaussian, Inc.),
 the Gaussian(R) 03 system (copyright 2003, Gaussian, Inc.),
 the Gaussian(R) 98 system (copyright 1998, Gaussian, Inc.),
 the Gaussian(R) 94 system (copyright 1995, Gaussian, Inc.),
 the Gaussian 92(TM) system (copyright 1992, Gaussian, Inc.),
 the Gaussian 90(TM) system (copyright 1990, Gaussian, Inc.),
 the Gaussian 88(TM) system (copyright 1988, Gaussian, Inc.),
 the Gaussian 86(TM) system (copyright 1986, Carnegie Mellon
 University), and the Gaussian 82(TM) system (copyright 1983,
 Carnegie Mellon University). Gaussian is a federally registered
 trademark of Gaussian, Inc.
  
 This software contains proprietary and confidential information,
 including trade secrets, belonging to Gaussian, Inc.
  
 This software is provided under written license and may be
 used, copied, transmitted, or stored only in accord with that
 written license.
  
 The following legend is applicable only to US Government
 contracts under FAR:
  
                    RESTRICTED RIGHTS LEGEND
  
 Use, reproduction and disclosure by the US Government is
 subject to restrictions as set forth in subparagraphs (a)
 and (c) of the Commercial Computer Software - Restricted
 Rights clause in FAR 52.227-19.
  
 Gaussian, Inc.
 340 Quinnipiac St., Bldg. 40, Wallingford CT 06492
  
  
 ---------------------------------------------------------------
 Warning -- This program may not be used in any manner that
 competes with the business of Gaussian, Inc. or will provide
 assistance to any competitor of Gaussian, Inc.  The licensee
 of this program is prohibited from giving any competitor of
 Gaussian, Inc. access to this program.  By using this program,
 the user acknowledges that Gaussian, Inc. is engaged in the
 business of creating and licensing software in the field of
 computational chemistry and represents and warrants to the
 licensee that it is not a competitor of Gaussian, Inc. and that
 it will not use this program in any manner prohibited above.
 ---------------------------------------------------------------
  

 Cite this work as:
 Gaussian 16, Revision C.01,
 M. J. Frisch, G. W. Trucks, H. B. Schlegel, G. E. Scuseria, 
 M. A. Robb, J. R. Cheeseman, G. Scalmani, V. Barone, 
 G. A. Petersson, H. Nakatsuji, X. Li, M. Caricato, A. V. Marenich, 
 J. Bloino, B. G. Janesko, R. Gomperts, B. Mennucci, H. P. Hratchian, 
 J. V. Ortiz, A. F. Izmaylov, J. L. Sonnenberg, D. Williams-Young, 
 F. Ding, F. Lipparini, F. Egidi, J. Goings, B. Peng, A. Petrone, 
 T. Henderson, D. Ranasinghe, V. G. Zakrzewski, J. Gao, N. Rega, 
 G. Zheng, W. Liang, M. Hada, M. Ehara, K. Toyota, R. Fukuda, 
 J. Hasegawa, M. Ishida, T. Nakajima, Y. Honda, O. Kitao, H. Nakai, 
 T. Vreven, K. Throssell, J. A. Montgomery, Jr., J. E. Peralta, 
 F. Ogliaro, M. J. Bearpark, J. J. Heyd, E. N. Brothers, K. N. Kudin, 
 V. N. Staroverov, T. A. Keith, R. Kobayashi, J. Normand, 
 K. Raghavachari, A. P. Rendell, J. C. Burant, S. S. Iyengar, 
 J. Tomasi, M. Cossi, J. M. Millam, M. Klene, C. Adamo, R. Cammi, 
 J. W. Ochterski, R. L. Martin, K. Morokuma, O. Farkas, 
 J. B. Foresman, and D. J. Fox, Gaussian, Inc., Wallingford CT, 2019.
 
 ******************************************
 Gaussian 16:  ES64L-G16RevC.01  3-Jul-2019
                26-Jul-2022 
 ******************************************
 %NProcShared=16
 Will use up to   16 processors via shared memory.
 %mem = 64GB
 ---------------------------------------------------------------
 #n M062X/6-311++G(d,p) TD(NStates=1) EmpiricalDispersion=GD3 SP
 ---------------------------------------------------------------
 1/38=1,172=1/1;
 2/12=2,17=6,18=5,40=1/2;
 3/5=4,6=6,7=1111,11=9,25=1,30=1,74=-55,124=31/1,2,3,8;
 4//1;
 5/5=2,38=5/2;
 8/6=1,10=2,108=1/1;
 9/41=1,42=1,70=2/14;
 6/7=2,8=2,9=2,10=2/1;
 99/5=1,9=1/99;
 ----
 SP_3
 ----
 Symbolic Z-matrix:
 Charge =  1 Multiplicity = 1
 C                     2.4927    1.3301    0.006 
 C                     3.7015    0.6627    0.051 
 C                     3.6839   -0.6901    0.051 
 C                     2.4632   -1.3629    0.006 
 C                    -2.4632   -1.4349    0.006 
 C                    -3.6839   -0.7201    0.051 
 C                    -3.7015    0.6987    0.051 
 C                    -2.4927    1.4081    0.006 
 C                     0.        1.4621   -0.045 
 C                     0.       -1.4205   -0.045 
 C                     1.2621    0.6767   -0.039 
 C                     1.2375   -0.7161   -0.039 
 C                    -1.2621    0.6947   -0.039 
 C                    -1.2375   -0.7281   -0.039 
 H                     2.4881    2.3653    0.006 
 H                     4.6368    1.1874    0.078 
 H                     4.6093   -1.2337    0.078 
 H                     2.4675   -2.4004    0.006 
 H                     0.       -2.5016   -0.048 
 H                    -2.4675   -2.5624    0.006 
 H                    -4.6093   -1.2937    0.078 
 H                    -4.6368    1.2534    0.078 
 H                    -2.4881    2.5393    0.006 
 H                     0.        2.1545   -0.9046 
 H                     0.        2.1545    0.8146 
 
                          Input orientation:                          
 ---------------------------------------------------------------------
 Center     Atomic      Atomic             Coordinates (Angstroms)
 Number     Number       Type             X           Y           Z
 ---------------------------------------------------------------------
      1          6           0        2.492700    1.330100    0.006000
      2          6           0        3.701500    0.662700    0.051000
      3          6           0        3.683900   -0.690100    0.051000
      4          6           0        2.463200   -1.362900    0.006000
      5          6           0       -2.463200   -1.434900    0.006000
      6          6           0       -3.683900   -0.720100    0.051000
      7          6           0       -3.701500    0.698700    0.051000
      8          6           0       -2.492700    1.408100    0.006000
      9          6           0        0.000000    1.462100   -0.045000
     10          6           0        0.000000   -1.420500   -0.045000
     11          6           0        1.262100    0.676700   -0.039000
     12          6           0        1.237500   -0.716100   -0.039000
     13          6           0       -1.262100    0.694700   -0.039000
     14          6           0       -1.237500   -0.728100   -0.039000
     15          1           0        2.488100    2.365300    0.006000
     16          1           0        4.636800    1.187400    0.078000
     17          1           0        4.609300   -1.233700    0.078000
     18          1           0        2.467500   -2.400400    0.006000
     19          1           0        0.000000   -2.501600   -0.048000
     20          1           0       -2.467500   -2.562400    0.006000
     21          1           0       -4.609300   -1.293700    0.078000
     22          1           0       -4.636800    1.253400    0.078000
     23          1           0       -2.488100    2.539300    0.006000
     24          1           0        0.000000    2.154500   -0.904600
     25          1           0        0.000000    2.154500    0.814600
 ---------------------------------------------------------------------
                    Distance matrix (angstroms):
                    1          2          3          4          5
     1  C    0.000000
     2  C    1.381537   0.000000
     3  C    2.345675   1.352914   0.000000
     4  C    2.693162   2.374546   1.394558   0.000000
     5  C    5.675048   6.511949   6.192220   4.926926   0.000000
     6  C    6.508128   7.513739   7.367861   6.180781   1.415299
     7  C    6.226460   7.403088   7.514845   6.500442   2.467319
     8  C    4.986010   6.239051   6.523408   5.677974   2.843153
     9  C    2.496713   3.788055   4.267587   3.748410   3.802968
    10  C    3.712406   4.248534   3.756836   2.464401   2.463770
    11  C    1.394035   2.441100   2.782330   2.367411   4.282375
    12  C    2.400935   2.824975   2.448193   1.386620   3.770130
    13  C    3.808449   4.964519   5.136992   4.256008   2.445376
    14  C    4.260587   5.131875   4.922370   3.755020   1.415603
    15  H    1.035210   2.091222   3.281377   3.728283   6.241546
    16  H    2.150049   1.072765   2.105648   3.351679   7.569124
    17  H    3.325395   2.102656   1.073590   2.151191   7.075728
    18  H    3.730585   3.302630   2.099233   1.037509   5.024340
    19  H    4.571476   4.870698   4.106392   2.714205   2.684794
    20  H    6.305168   6.961311   6.430183   5.074505   1.127508
    21  H    7.571520   8.538011   8.315181   7.073205   2.151945
    22  H    7.130276   8.359241   8.544704   7.567048   3.457843
    23  H    5.125479   6.467983   6.965962   6.304168   3.974278
    24  H    2.778917   4.103625   4.751425   4.389607   4.447509
    25  H    2.747184   4.063207   4.716562   4.369587   4.427751
                    6          7          8          9         10
     6  C    0.000000
     7  C    1.418909   0.000000
     8  C    2.439307   1.402309   0.000000
     9  C    4.282795   3.780621   2.493806   0.000000
    10  C    3.751119   4.266301   3.770561   2.882600   0.000000
    11  C    5.140240   4.964465   3.825636   1.486535   2.447689
    12  C    4.922224   5.138432   4.292859   2.505194   1.423946
    13  C    2.806221   2.441063   1.423145   1.477104   2.463129
    14  C    2.448068   2.848711   2.478084   2.515635   1.418048
    15  H    6.900384   6.410205   5.071942   2.647454   4.530510
    16  H    8.536588   8.352652   7.133279   4.646558   5.321295
    17  H    8.309132   8.532543   7.577776   5.341172   4.614723
    18  H    6.376924   6.903840   6.253659   4.583674   2.655440
    19  H    4.093246   4.894162   4.637049   3.963701   1.081104
    20  H    2.208104   3.487055   3.970580   4.720991   2.719392
    21  H    1.089087   2.189632   3.432915   5.371704   4.612684
    22  H    2.191677   1.087753   2.150879   4.643124   5.353950
    23  H    3.472125   2.205034   1.131209   2.711753   4.676886
    24  H    4.769446   4.090676   2.756784   1.103780   3.676892
    25  H    4.734715   4.050128   2.724794   1.103780   3.676892
                   11         12         13         14         15
    11  C    0.000000
    12  C    1.393017   0.000000
    13  C    2.524264   2.870254   0.000000
    14  C    2.867309   2.475029   1.423013   0.000000
    15  H    2.087216   3.325816   4.105719   4.842648   0.000000
    16  H    3.415129   3.897723   5.920597   6.179824   2.451437
    17  H    3.855783   3.413303   6.181080   5.869786   4.178214
    18  H    3.305081   2.086095   4.846812   4.065174   4.765745
    19  H    3.419732   2.172440   3.436468   2.162589   5.466285
    20  H    4.940011   4.139792   3.473286   2.208977   6.988576
    21  H    6.194312   5.876426   3.895019   3.420910   7.985396
    22  H    5.928178   6.196775   3.422636   3.936403   7.211498
    23  H    4.187518   4.947701   2.215322   3.498847   4.979241
    24  H    2.127452   3.243611   2.114988   3.254236   2.657870
    25  H    2.122598   3.240430   2.110106   3.251065   2.624674
                   16         17         18         19         20
    16  H    0.000000
    17  H    2.421256   0.000000
    18  H    4.193251   2.440016   0.000000
    19  H    5.926594   4.782164   2.470165   0.000000
    20  H    8.033509   7.200814   4.937658   2.468840   0.000000
    21  H    9.573203   9.218795   7.163174   4.766607   2.490400
    22  H    9.273835   9.574760   7.989150   5.967899   4.389918
    23  H    7.252380   8.038271   6.997043   5.621764   5.101742
    24  H    4.837427   5.804399   5.259740   4.734240   5.400638
    25  H    4.793514   5.767853   5.243043   4.735330   5.384379
                   21         22         23         24         25
    21  H    0.000000
    22  H    2.547248   0.000000
    23  H    4.381388   2.505122   0.000000
    24  H    5.839626   4.824666   2.677294   0.000000
    25  H    5.803302   4.780635   2.644342   1.719200   0.000000
 Stoichiometry    C14H11(1+)
 Framework group  C1[X(C14H11)]
 Deg. of freedom    69
 Full point group                 C1      NOp   1
 Largest Abelian subgroup         C1      NOp   1
 Largest concise Abelian subgroup C1      NOp   1
                         Standard orientation:                         
 ---------------------------------------------------------------------
 Center     Atomic      Atomic             Coordinates (Angstroms)
 Number     Number       Type             X           Y           Z
 ---------------------------------------------------------------------
      1          6           0        2.491743   -1.323217   -0.005939
      2          6           0        3.701026   -0.656662   -0.050492
      3          6           0        3.684405    0.696150   -0.049586
      4          6           0        2.464192    1.369804   -0.004135
      5          6           0       -2.462154    1.445370   -0.004085
      6          6           0       -3.683371    0.731485   -0.049563
      7          6           0       -3.701999   -0.687302   -0.050513
      8          6           0       -2.493713   -1.397607   -0.005989
      9          6           0       -0.001052   -1.453446    0.044974
     10          6           0        0.001035    1.429153    0.046905
     11          6           0        1.261616   -0.668956    0.039499
     12          6           0        1.238024    0.723861    0.040432
     13          6           0       -1.262596   -0.685128    0.039488
     14          6           0       -1.236966    0.737653    0.040441
     15          1           0        2.486393   -2.358413   -0.006632
     16          1           0        4.635945   -1.182021   -0.077844
     17          1           0        4.610198    1.239098   -0.076222
     18          1           0        2.469244    2.407300   -0.003440
     19          1           0        0.001817    2.510250    0.050629
     20          1           0       -2.465638    2.572873   -0.003330
     21          1           0       -4.608356    1.305772   -0.076179
     22          1           0       -4.637700   -1.241306   -0.077885
     23          1           0       -2.489932   -2.528810   -0.006747
     24          1           0       -0.001554   -2.146421    0.904110
     25          1           0       -0.001554   -2.145270   -0.815090
 ---------------------------------------------------------------------
 Rotational constants (GHZ):           2.1326558           0.4445088           0.3687895
 Standard basis: 6-311++G(d,p) (5D, 7F)
 There are   399 symmetry adapted cartesian basis functions of A   symmetry.
 There are   385 symmetry adapted basis functions of A   symmetry.
   385 basis functions,   603 primitive gaussians,   399 cartesian basis functions
    47 alpha electrons       47 beta electrons
       nuclear repulsion energy       781.1088934758 Hartrees.
 NAtoms=   25 NActive=   25 NUniq=   25 SFac= 1.00D+00 NAtFMM=   60 NAOKFM=F Big=F
 Integral buffers will be    131072 words long.
 Regular integral format.
 Two-electron integral symmetry is turned on.
 Nuclear repulsion after empirical dispersion term =      781.1079138854 Hartrees.
 One-electron integrals computed using PRISM.
 NBasis=   385 RedAO= T EigKep=  1.13D-06  NBF=   385
 NBsUse=   379 1.00D-06 EigRej=  8.55D-07 NBFU=   379
 ExpMin= 3.60D-02 ExpMax= 4.56D+03 ExpMxC= 6.82D+02 IAcc=3 IRadAn=         5 AccDes= 0.00D+00
 Harris functional with IExCor= 1009 and IRadAn=       5 diagonalized for initial guess.
 HarFok:  IExCor= 1009 AccDes= 0.00D+00 IRadAn=         5 IDoV= 1 UseB2=F ITyADJ=14
 ICtDFT=  3500011 ScaDFX=  1.000000  1.000000  1.000000  1.000000
 FoFCou: FMM=F IPFlag=           0 FMFlag=      100000 FMFlg1=           0
         NFxFlg=           0 DoJE=T BraDBF=F KetDBF=T FulRan=T
         wScrn=  0.000000 ICntrl=       500 IOpCl=  0 I1Cent=   200000004 NGrid=           0
         NMat0=    1 NMatS0=      1 NMatT0=    0 NMatD0=    1 NMtDS0=    0 NMtDT0=    0
 Petite list used in FoFCou.
 Requested convergence on RMS density matrix=1.00D-08 within 128 cycles.
 Requested convergence on MAX density matrix=1.00D-06.
 Requested convergence on             energy=1.00D-06.
 No special actions if energy rises.
 SCF Done:  E(RM062X) =  -539.748903996     A.U. after   15 cycles
            NFock= 15  Conv=0.10D-07     -V/T= 2.0041
 DoSCS=F DFT=T ScalE2(SS,OS)=  1.000000  1.000000
 ExpMin= 3.60D-02 ExpMax= 4.56D+03 ExpMxC= 6.82D+02 IAcc=3 IRadAn=         5 AccDes= 0.00D+00
 HarFok:  IExCor=  205 AccDes= 0.00D+00 IRadAn=         5 IDoV=-2 UseB2=F ITyADJ=14
 ICtDFT= 12500011 ScaDFX=  1.000000  1.000000  1.000000  1.000000
 Range of M.O.s used for correlation:    15   379
 NBasis=   385 NAE=    47 NBE=    47 NFC=    14 NFV=     0
 NROrb=    365 NOA=    33 NOB=    33 NVA=   332 NVB=   332

 **** Warning!!: The largest alpha MO coefficient is  0.13967218D+03

 Orbital symmetries:
       Occupied  (A) (A) (A) (A) (A) (A) (A) (A) (A) (A) (A) (A)
                 (A) (A) (A) (A) (A) (A) (A) (A) (A) (A) (A) (A)
                 (A) (A) (A) (A) (A) (A) (A) (A) (A) (A) (A) (A)
                 (A) (A) (A) (A) (A) (A) (A) (A) (A) (A) (A)
       Virtual   (A) (A) (A) (A) (A) (A) (A) (A) (A) (A) (A) (A)
                 (A) (A) (A) (A) (A) (A) (A) (A) (A) (A) (A) (A)
                 (A) (A) (A) (A) (A) (A) (A) (A) (A) (A) (A) (A)
                 (A) (A) (A) (A) (A) (A) (A) (A) (A) (A) (A) (A)
                 (A) (A) (A) (A) (A) (A) (A) (A) (A) (A) (A) (A)
                 (A) (A) (A) (A) (A) (A) (A) (A) (A) (A) (A) (A)
                 (A) (A) (A) (A) (A) (A) (A) (A) (A) (A) (A) (A)
                 (A) (A) (A) (A) (A) (A) (A) (A) (A) (A) (A) (A)
                 (A) (A) (A) (A) (A) (A) (A) (A) (A) (A) (A) (A)
                 (A) (A) (A) (A) (A) (A) (A) (A) (A) (A) (A) (A)
                 (A) (A) (A) (A) (A) (A) (A) (A) (A) (A) (A) (A)
                 (A) (A) (A) (A) (A) (A) (A) (A) (A) (A) (A) (A)
                 (A) (A) (A) (A) (A) (A) (A) (A) (A) (A) (A) (A)
                 (A) (A) (A) (A) (A) (A) (A) (A) (A) (A) (A) (A)
                 (A) (A) (A) (A) (A) (A) (A) (A) (A) (A) (A) (A)
                 (A) (A) (A) (A) (A) (A) (A) (A) (A) (A) (A) (A)
                 (A) (A) (A) (A) (A) (A) (A) (A) (A) (A) (A) (A)
                 (A) (A) (A) (A) (A) (A) (A) (A) (A) (A) (A) (A)
                 (A) (A) (A) (A) (A) (A) (A) (A) (A) (A) (A) (A)
                 (A) (A) (A) (A) (A) (A) (A) (A) (A) (A) (A) (A)
                 (A) (A) (A) (A) (A) (A) (A) (A) (A) (A) (A) (A)
                 (A) (A) (A) (A) (A) (A) (A) (A) (A) (A) (A) (A)
                 (A) (A) (A) (A) (A) (A) (A) (A) (A) (A) (A) (A)
                 (A) (A) (A) (A) (A) (A) (A) (A) (A) (A) (A) (A)
                 (A) (A) (A) (A) (A) (A) (A) (A) (A) (A) (A) (A)
                 (A) (A) (A) (A) (A) (A) (A) (A) (A) (A) (A) (A)
                 (A) (A) (A) (A) (A) (A) (A) (A) (A) (A) (A) (A)
                 (A) (A) (A) (A) (A) (A) (A) (A)
     4 initial guesses have been made.
 Convergence on wavefunction:    0.001000000000000
 Iteration     1 Dimension     4 NMult     0 NNew      4
 CISAX will form     4 AO SS matrices at one time.
 Iteration     2 Dimension     6 NMult     4 NNew      2
 Iteration     3 Dimension     8 NMult     6 NNew      2
 Iteration     4 Dimension    10 NMult     8 NNew      2
 Iteration     5 Dimension    12 NMult    10 NNew      2
 Iteration     6 Dimension    14 NMult    12 NNew      2
 ***********************************************************************
 Excited states from <AA,BB:AA,BB> singles matrix:
 ***********************************************************************
 
 Ground to excited state transition densities written to RWF  633
 Ground to excited state transition electric dipole moments (Au):
       state          X           Y           Z        Dip. S.      Osc.
         1        -0.1588     -0.6442      0.0143      0.4404      0.0304
 Ground to excited state transition velocity dipole moments (Au):
       state          X           Y           Z        Dip. S.      Osc.
         1         0.0165      0.0743     -0.0016      0.0058      0.0374
 Ground to excited state transition magnetic dipole moments (Au):
       state          X           Y           Z
         1         0.0267      0.0018     -0.1451
 Ground to excited state transition velocity quadrupole moments (Au):
       state          XX          YY          ZZ          XY          XZ          YZ
         1         0.2966      0.0338     -0.0099     -0.0106     -0.0007      0.0064
 <0|del|b> * <b|rxdel|0> + <0|del|b> * <b|delr+rdel|0>
 Rotatory Strengths (R) in cgs (10**-40 erg-esu-cm/Gauss)
       state          XX          YY          ZZ    R(velocity)    E-M Angle
         1         1.4916      2.6013      1.4227      1.8386       85.88
 1/2[<0|r|b>*<b|rxdel|0> + (<0|rxdel|b>*<b|r|0>)*]
 Rotatory Strengths (R) in cgs (10**-40 erg-esu-cm/Gauss)
       state          XX          YY          ZZ     R(length)
         1         2.9977      0.8219      1.4725      1.7641
  1/2[<0|del|b>*<b|r|0> + (<0|r|b>*<b|del|0>)*] (Au)
       state          X           Y           Z        Dip. S.   Osc.(frdel)
         1        -0.0026     -0.0479     -0.0000      0.0505      0.0337

 Excitation energies and oscillator strengths:
 
 Excited State   1:      Singlet-A      2.8136 eV  440.65 nm  f=0.0304  <S**2>=0.000
      47 -> 48         0.70302
 This state for optimization and/or second-order correction.
 Total Energy, E(TD-HF/TD-DFT) =  -539.645504701    
 Copying the excited state density for this state as the 1-particle RhoCI density.
 SavETr:  write IOETrn=   770 NScale= 10 NData=  16 NLR=1 NState=    1 LETran=      28.

 **********************************************************************

            Population analysis using the SCF Density.

 **********************************************************************

 Orbital symmetries:
       Occupied  (A) (A) (A) (A) (A) (A) (A) (A) (A) (A) (A) (A)
                 (A) (A) (A) (A) (A) (A) (A) (A) (A) (A) (A) (A)
                 (A) (A) (A) (A) (A) (A) (A) (A) (A) (A) (A) (A)
                 (A) (A) (A) (A) (A) (A) (A) (A) (A) (A) (A)
       Virtual   (A) (A) (A) (A) (A) (A) (A) (A) (A) (A) (A) (A)
                 (A) (A) (A) (A) (A) (A) (A) (A) (A) (A) (A) (A)
                 (A) (A) (A) (A) (A) (A) (A) (A) (A) (A) (A) (A)
                 (A) (A) (A) (A) (A) (A) (A) (A) (A) (A) (A) (A)
                 (A) (A) (A) (A) (A) (A) (A) (A) (A) (A) (A) (A)
                 (A) (A) (A) (A) (A) (A) (A) (A) (A) (A) (A) (A)
                 (A) (A) (A) (A) (A) (A) (A) (A) (A) (A) (A) (A)
                 (A) (A) (A) (A) (A) (A) (A) (A) (A) (A) (A) (A)
                 (A) (A) (A) (A) (A) (A) (A) (A) (A) (A) (A) (A)
                 (A) (A) (A) (A) (A) (A) (A) (A) (A) (A) (A) (A)
                 (A) (A) (A) (A) (A) (A) (A) (A) (A) (A) (A) (A)
                 (A) (A) (A) (A) (A) (A) (A) (A) (A) (A) (A) (A)
                 (A) (A) (A) (A) (A) (A) (A) (A) (A) (A) (A) (A)
                 (A) (A) (A) (A) (A) (A) (A) (A) (A) (A) (A) (A)
                 (A) (A) (A) (A) (A) (A) (A) (A) (A) (A) (A) (A)
                 (A) (A) (A) (A) (A) (A) (A) (A) (A) (A) (A) (A)
                 (A) (A) (A) (A) (A) (A) (A) (A) (A) (A) (A) (A)
                 (A) (A) (A) (A) (A) (A) (A) (A) (A) (A) (A) (A)
                 (A) (A) (A) (A) (A) (A) (A) (A) (A) (A) (A) (A)
                 (A) (A) (A) (A) (A) (A) (A) (A) (A) (A) (A) (A)
                 (A) (A) (A) (A) (A) (A) (A) (A) (A) (A) (A) (A)
                 (A) (A) (A) (A) (A) (A) (A) (A) (A) (A) (A) (A)
                 (A) (A) (A) (A) (A) (A) (A) (A) (A) (A) (A) (A)
                 (A) (A) (A) (A) (A) (A) (A) (A) (A) (A) (A) (A)
                 (A) (A) (A) (A) (A) (A) (A) (A) (A) (A) (A) (A)
                 (A) (A) (A) (A) (A) (A) (A) (A) (A) (A) (A) (A)
                 (A) (A) (A) (A) (A) (A) (A) (A) (A) (A) (A) (A)
                 (A) (A) (A) (A) (A) (A) (A) (A)
 The electronic state is 1-A.
 Alpha  occ. eigenvalues --  -10.77655 -10.73959 -10.72927 -10.72542 -10.72297
 Alpha  occ. eigenvalues --  -10.71958 -10.71951 -10.71043 -10.70981 -10.70447
 Alpha  occ. eigenvalues --  -10.70430 -10.70050 -10.68889 -10.68815  -1.16485
 Alpha  occ. eigenvalues --   -1.12457  -1.06922  -1.05717  -1.01312  -1.00194
 Alpha  occ. eigenvalues --   -0.95763  -0.91039  -0.86534  -0.85866  -0.83750
 Alpha  occ. eigenvalues --   -0.78372  -0.76154  -0.74290  -0.69622  -0.69223
 Alpha  occ. eigenvalues --   -0.68525  -0.68170  -0.68098  -0.64684  -0.64203
 Alpha  occ. eigenvalues --   -0.63007  -0.61849  -0.60173  -0.59489  -0.59061
 Alpha  occ. eigenvalues --   -0.56889  -0.55188  -0.54808  -0.52434  -0.46594
 Alpha  occ. eigenvalues --   -0.46088  -0.44452
 Alpha virt. eigenvalues --   -0.26088  -0.14790  -0.14081  -0.12715  -0.11180
 Alpha virt. eigenvalues --   -0.10101  -0.09247  -0.07982  -0.07948  -0.07491
 Alpha virt. eigenvalues --   -0.07222  -0.07136  -0.05660  -0.05583  -0.05343
 Alpha virt. eigenvalues --   -0.03912  -0.03615  -0.03257  -0.03153  -0.02159
 Alpha virt. eigenvalues --   -0.01383  -0.00931   0.00176   0.00564   0.00633
 Alpha virt. eigenvalues --    0.01045   0.01483   0.01892   0.02120   0.02327
 Alpha virt. eigenvalues --    0.02439   0.02656   0.02711   0.03330   0.03361
 Alpha virt. eigenvalues --    0.04187   0.04406   0.04829   0.05027   0.05414
 Alpha virt. eigenvalues --    0.05826   0.06203   0.06803   0.07023   0.07246
 Alpha virt. eigenvalues --    0.07862   0.07982   0.08295   0.08762   0.08879
 Alpha virt. eigenvalues --    0.09451   0.09539   0.09967   0.10806   0.11016
 Alpha virt. eigenvalues --    0.11172   0.12053   0.12248   0.12855   0.13044
 Alpha virt. eigenvalues --    0.13257   0.13460   0.14212   0.14483   0.16018
 Alpha virt. eigenvalues --    0.16089   0.16415   0.17355   0.17557   0.17769
 Alpha virt. eigenvalues --    0.18094   0.18862   0.19093   0.19551   0.20316
 Alpha virt. eigenvalues --    0.21273   0.21618   0.22160   0.23365   0.23832
 Alpha virt. eigenvalues --    0.24105   0.24515   0.25366   0.26796   0.27608
 Alpha virt. eigenvalues --    0.28809   0.29053   0.29942   0.31264   0.35643
 Alpha virt. eigenvalues --    0.36382   0.38047   0.39024   0.41091   0.41473
 Alpha virt. eigenvalues --    0.41933   0.42216   0.42982   0.43651   0.44302
 Alpha virt. eigenvalues --    0.44343   0.44846   0.46093   0.46907   0.47935
 Alpha virt. eigenvalues --    0.48571   0.48632   0.48987   0.50382   0.50722
 Alpha virt. eigenvalues --    0.51407   0.52038   0.52202   0.52864   0.54055
 Alpha virt. eigenvalues --    0.54113   0.54529   0.55456   0.56174   0.57588
 Alpha virt. eigenvalues --    0.58182   0.58849   0.61453   0.61598   0.62577
 Alpha virt. eigenvalues --    0.63052   0.63514   0.65046   0.65469   0.66882
 Alpha virt. eigenvalues --    0.70109   0.70383   0.71144   0.72384   0.72804
 Alpha virt. eigenvalues --    0.75296   0.75844   0.76259   0.76768   0.76942
 Alpha virt. eigenvalues --    0.77780   0.78165   0.78254   0.80227   0.80704
 Alpha virt. eigenvalues --    0.81213   0.81546   0.82278   0.83296   0.85076
 Alpha virt. eigenvalues --    0.86574   0.87822   0.88219   0.89485   0.90583
 Alpha virt. eigenvalues --    0.90768   0.91798   0.93197   0.94009   0.95895
 Alpha virt. eigenvalues --    0.96863   1.00216   1.00833   1.01955   1.02590
 Alpha virt. eigenvalues --    1.02744   1.04479   1.05735   1.06309   1.08669
 Alpha virt. eigenvalues --    1.19323   1.21948   1.25119   1.25166   1.28035
 Alpha virt. eigenvalues --    1.29372   1.32126   1.33997   1.35653   1.36061
 Alpha virt. eigenvalues --    1.38723   1.39606   1.41346   1.42781   1.43015
 Alpha virt. eigenvalues --    1.43490   1.43664   1.45281   1.46866   1.47753
 Alpha virt. eigenvalues --    1.48067   1.48510   1.51253   1.53713   1.54971
 Alpha virt. eigenvalues --    1.55703   1.55893   1.57471   1.58953   1.61308
 Alpha virt. eigenvalues --    1.62493   1.63015   1.64685   1.65717   1.67898
 Alpha virt. eigenvalues --    1.68464   1.68623   1.70190   1.74294   1.76023
 Alpha virt. eigenvalues --    1.76957   1.77851   1.78589   1.80051   1.82085
 Alpha virt. eigenvalues --    1.82513   1.82828   1.82961   1.84111   1.84601
 Alpha virt. eigenvalues --    1.84984   1.85671   1.86111   1.88716   1.91303
 Alpha virt. eigenvalues --    1.91630   1.94792   1.95201   1.96531   1.99695
 Alpha virt. eigenvalues --    1.99836   2.02225   2.04646   2.06542   2.11310
 Alpha virt. eigenvalues --    2.11611   2.14349   2.15694   2.17951   2.21345
 Alpha virt. eigenvalues --    2.23933   2.26497   2.28523   2.33116   2.34955
 Alpha virt. eigenvalues --    2.36362   2.38036   2.40923   2.41988   2.44360
 Alpha virt. eigenvalues --    2.45260   2.46311   2.46834   2.53141   2.54128
 Alpha virt. eigenvalues --    2.54715   2.56663   2.58110   2.59011   2.59613
 Alpha virt. eigenvalues --    2.60741   2.61639   2.62213   2.63311   2.64407
 Alpha virt. eigenvalues --    2.64728   2.64802   2.65254   2.66782   2.67822
 Alpha virt. eigenvalues --    2.68463   2.70175   2.70785   2.73458   2.74956
 Alpha virt. eigenvalues --    2.76303   2.77583   2.79777   2.83145   2.85328
 Alpha virt. eigenvalues --    2.86392   2.88756   2.92134   2.96643   2.98080
 Alpha virt. eigenvalues --    3.01554   3.05068   3.08085   3.10958   3.15842
 Alpha virt. eigenvalues --    3.19960   3.22914   3.24316   3.29043   3.31671
 Alpha virt. eigenvalues --    3.32344   3.34393   3.39980   3.41451   3.47873
 Alpha virt. eigenvalues --    3.49015   3.54996   3.57315   3.64074   3.65949
 Alpha virt. eigenvalues --    3.70523   3.91153   3.91558   3.97355   4.00137
 Alpha virt. eigenvalues --    4.03486   4.04798   4.10302   4.13652   4.35364
 Alpha virt. eigenvalues --    4.61180   4.67206   4.73244  23.45099  23.60628
 Alpha virt. eigenvalues --   23.80748  23.83038  23.85943  23.88491  23.92026
 Alpha virt. eigenvalues --   23.92552  23.93964  23.96380  24.02272  24.06057
 Alpha virt. eigenvalues --   24.06351  24.19761
          Condensed to atoms (all electrons):
               1          2          3          4          5          6
     1  C    8.854483   0.175129  -0.417958   1.986439  -0.119871  -0.101281
     2  C    0.175129   7.346376   0.387183  -1.135470   0.017810  -0.015119
     3  C   -0.417958   0.387183   6.724391   0.780009  -0.157342   0.017444
     4  C    1.986439  -1.135470   0.780009  10.789908  -0.405155  -0.093469
     5  C   -0.119871   0.017810  -0.157342  -0.405155  11.443470   0.691931
     6  C   -0.101281  -0.015119   0.017444  -0.093469   0.691931   6.505301
     7  C   -0.004011  -0.000548  -0.014001  -0.042108  -1.048814   0.312153
     8  C    0.392939  -0.028030  -0.093251   0.004325   1.918903  -0.637263
     9  C   -1.032098  -0.911583   0.295216  -0.344266   0.075573   0.268766
    10  C   -1.394356   0.258797  -0.422290  -2.494851  -2.530093  -0.261398
    11  C    0.699897  -1.148360   0.982963  -0.185940  -1.524918  -0.157746
    12  C   -2.631373   1.593922  -1.639728  -1.424252  -0.295455  -0.215512
    13  C    0.411884  -0.273454  -0.165886  -1.429500  -0.280471   1.014063
    14  C   -1.317233  -0.156900  -0.175563  -0.342850  -2.146380  -1.200100
    15  H    0.374841  -0.114385  -0.003641   0.025074   0.004180   0.001093
    16  H   -0.017737   0.388160  -0.020821   0.014263  -0.001277  -0.000297
    17  H   -0.027892  -0.014446   0.380895  -0.065752  -0.000099   0.000328
    18  H    0.049398  -0.001643  -0.090524   0.468842   0.009361  -0.004759
    19  H   -0.039791  -0.009876   0.054942  -0.046487  -0.087389   0.049385
    20  H    0.005643   0.002506  -0.005362   0.002767   0.446087  -0.080643
    21  H   -0.001276  -0.000370   0.000437   0.000554  -0.069638   0.375714
    22  H    0.000785   0.000380  -0.000321  -0.001659   0.008181  -0.016360
    23  H    0.005858  -0.002860   0.001180   0.006708   0.027434  -0.002585
    24  H    0.016511   0.011280   0.001862  -0.011631  -0.010050   0.001912
    25  H    0.053137   0.017982  -0.006000  -0.014943  -0.011785  -0.003957
               7          8          9         10         11         12
     1  C   -0.004011   0.392939  -1.032098  -1.394356   0.699897  -2.631373
     2  C   -0.000548  -0.028030  -0.911583   0.258797  -1.148360   1.593922
     3  C   -0.014001  -0.093251   0.295216  -0.422290   0.982963  -1.639728
     4  C   -0.042108   0.004325  -0.344266  -2.494851  -0.185940  -1.424252
     5  C   -1.048814   1.918903   0.075573  -2.530093  -1.524918  -0.295455
     6  C    0.312153  -0.637263   0.268766  -0.261398  -0.157746  -0.215512
     7  C    7.018945   0.394901  -0.755479   0.217399  -0.256388  -0.201512
     8  C    0.394901   8.393094  -1.157069  -1.129618   0.139262  -0.899604
     9  C   -0.755479  -1.157069   9.559666   0.219156   1.456559  -1.891665
    10  C    0.217399  -1.129618   0.219156   8.995829  -0.527551   2.376590
    11  C   -0.256388   0.139262   1.456559  -0.527551  13.935191  -3.449002
    12  C   -0.201512  -0.899604  -1.891665   2.376590  -3.449002  16.138894
    13  C   -0.746951  -0.026562   1.593671  -0.415287   1.070301  -5.029095
    14  C    1.261524  -1.766579  -1.951475   2.551137  -4.517427   3.141135
    15  H   -0.002114   0.005534   0.092736  -0.006012  -0.019961  -0.020517
    16  H    0.000261   0.000756  -0.000271  -0.010017   0.014681  -0.024747
    17  H   -0.000362  -0.001386  -0.005742   0.018214  -0.024018   0.084305
    18  H    0.001912   0.008033  -0.025560   0.013854  -0.002305  -0.047529
    19  H   -0.006806  -0.048067   0.070955   0.414497   0.078908  -0.084623
    20  H    0.003889   0.047873  -0.020129   0.016603  -0.011730  -0.008937
    21  H   -0.021915  -0.023884  -0.004582   0.020564  -0.004950   0.004227
    22  H    0.377138  -0.023388   0.004494  -0.007633   0.002351  -0.008489
    23  H   -0.098331   0.356998   0.095329  -0.010123   0.004725   0.007188
    24  H    0.011541   0.012170   0.365949   0.007931   0.004239  -0.044723
    25  H    0.016700   0.050024   0.348329   0.002355   0.008693  -0.071200
              13         14         15         16         17         18
     1  C    0.411884  -1.317233   0.374841  -0.017737  -0.027892   0.049398
     2  C   -0.273454  -0.156900  -0.114385   0.388160  -0.014446  -0.001643
     3  C   -0.165886  -0.175563  -0.003641  -0.020821   0.380895  -0.090524
     4  C   -1.429500  -0.342850   0.025074   0.014263  -0.065752   0.468842
     5  C   -0.280471  -2.146380   0.004180  -0.001277  -0.000099   0.009361
     6  C    1.014063  -1.200100   0.001093  -0.000297   0.000328  -0.004759
     7  C   -0.746951   1.261524  -0.002114   0.000261  -0.000362   0.001912
     8  C   -0.026562  -1.766579   0.005534   0.000756  -0.001386   0.008033
     9  C    1.593671  -1.951475   0.092736  -0.000271  -0.005742  -0.025560
    10  C   -0.415287   2.551137  -0.006012  -0.010017   0.018214   0.013854
    11  C    1.070301  -4.517427  -0.019961   0.014681  -0.024018  -0.002305
    12  C   -5.029095   3.141135  -0.020517  -0.024747   0.084305  -0.047529
    13  C   15.037673  -4.148410   0.000146   0.002920  -0.006414  -0.011411
    14  C   -4.148410  16.289314   0.004610  -0.008198   0.005154  -0.018455
    15  H    0.000146   0.004610   0.451305  -0.009591   0.001312   0.000060
    16  H    0.002920  -0.008198  -0.009591   0.424627  -0.007316   0.001848
    17  H   -0.006414   0.005154   0.001312  -0.007316   0.426692  -0.010627
    18  H   -0.011411  -0.018455   0.000060   0.001848  -0.010627   0.465774
    19  H    0.073365  -0.045190   0.000473  -0.000596   0.001211  -0.006105
    20  H   -0.008918  -0.063348  -0.000126   0.000018  -0.000128   0.001230
    21  H   -0.021676   0.088749   0.000011  -0.000006   0.000010  -0.000161
    22  H    0.032109  -0.031003  -0.000143   0.000007  -0.000006   0.000017
    23  H   -0.040758  -0.028433   0.000531  -0.000104   0.000016  -0.000108
    24  H    0.016639  -0.046729  -0.000806   0.000335  -0.000069   0.000049
    25  H    0.023449  -0.078305  -0.001778   0.000800  -0.000251   0.000457
              19         20         21         22         23         24
     1  C   -0.039791   0.005643  -0.001276   0.000785   0.005858   0.016511
     2  C   -0.009876   0.002506  -0.000370   0.000380  -0.002860   0.011280
     3  C    0.054942  -0.005362   0.000437  -0.000321   0.001180   0.001862
     4  C   -0.046487   0.002767   0.000554  -0.001659   0.006708  -0.011631
     5  C   -0.087389   0.446087  -0.069638   0.008181   0.027434  -0.010050
     6  C    0.049385  -0.080643   0.375714  -0.016360  -0.002585   0.001912
     7  C   -0.006806   0.003889  -0.021915   0.377138  -0.098331   0.011541
     8  C   -0.048067   0.047873  -0.023884  -0.023388   0.356998   0.012170
     9  C    0.070955  -0.020129  -0.004582   0.004494   0.095329   0.365949
    10  C    0.414497   0.016603   0.020564  -0.007633  -0.010123   0.007931
    11  C    0.078908  -0.011730  -0.004950   0.002351   0.004725   0.004239
    12  C   -0.084623  -0.008937   0.004227  -0.008489   0.007188  -0.044723
    13  C    0.073365  -0.008918  -0.021676   0.032109  -0.040758   0.016639
    14  C   -0.045190  -0.063348   0.088749  -0.031003  -0.028433  -0.046729
    15  H    0.000473  -0.000126   0.000011  -0.000143   0.000531  -0.000806
    16  H   -0.000596   0.000018  -0.000006   0.000007  -0.000104   0.000335
    17  H    0.001211  -0.000128   0.000010  -0.000006   0.000016  -0.000069
    18  H   -0.006105   0.001230  -0.000161   0.000017  -0.000108   0.000049
    19  H    0.443029  -0.006277   0.001664  -0.000468   0.000230   0.000949
    20  H   -0.006277   0.442623  -0.009630   0.001722   0.000274  -0.000006
    21  H    0.001664  -0.009630   0.419781  -0.006068   0.001335  -0.000065
    22  H   -0.000468   0.001722  -0.006068   0.415595  -0.008282   0.000464
    23  H    0.000230   0.000274   0.001335  -0.008282   0.427953  -0.000304
    24  H    0.000949  -0.000006  -0.000065   0.000464  -0.000304   0.487900
    25  H    0.000183   0.000270  -0.000171   0.000937  -0.000974  -0.078854
              25
     1  C    0.053137
     2  C    0.017982
     3  C   -0.006000
     4  C   -0.014943
     5  C   -0.011785
     6  C   -0.003957
     7  C    0.016700
     8  C    0.050024
     9  C    0.348329
    10  C    0.002355
    11  C    0.008693
    12  C   -0.071200
    13  C    0.023449
    14  C   -0.078305
    15  H   -0.001778
    16  H    0.000800
    17  H   -0.000251
    18  H    0.000457
    19  H    0.000183
    20  H    0.000270
    21  H   -0.000171
    22  H    0.000937
    23  H   -0.000974
    24  H   -0.078854
    25  H    0.498022
 Mulliken charges:
               1
     1  C    0.077934
     2  C   -0.386481
     3  C   -0.413834
     4  C   -0.040555
     5  C    0.045804
     6  C   -0.447602
     7  C   -0.417021
     8  C    0.109891
     9  C   -0.346481
    10  C    0.096303
    11  C   -0.567474
    12  C    0.641703
    13  C   -0.671427
    14  C    0.700956
    15  H    0.217168
    16  H    0.252300
    17  H    0.246371
    18  H    0.198353
    19  H    0.191886
    20  H    0.243730
    21  H    0.251345
    22  H    0.259640
    23  H    0.257101
    24  H    0.253507
    25  H    0.246881
 Sum of Mulliken charges =   1.00000
 Mulliken charges with hydrogens summed into heavy atoms:
               1
     1  C    0.295102
     2  C   -0.134181
     3  C   -0.167462
     4  C    0.157799
     5  C    0.289534
     6  C   -0.196257
     7  C   -0.157381
     8  C    0.366992
     9  C    0.153908
    10  C    0.288188
    11  C   -0.567474
    12  C    0.641703
    13  C   -0.671427
    14  C    0.700956
 Electronic spatial extent (au):  <R**2>=           2856.7212
 Charge=              1.0000 electrons
 Dipole moment (field-independent basis, Debye):
    X=             -0.3535    Y=              0.1837    Z=             -0.0470  Tot=              0.4011
 Quadrupole moment (field-independent basis, Debye-Ang):
   XX=            -31.1163   YY=            -56.1938   ZZ=            -84.1325
   XY=              0.2329   XZ=              0.0125   YZ=              0.0637
 Traceless Quadrupole moment (field-independent basis, Debye-Ang):
   XX=             26.0313   YY=              0.9538   ZZ=            -26.9850
   XY=              0.2329   XZ=              0.0125   YZ=              0.0637
 Octapole moment (field-independent basis, Debye-Ang**2):
  XXX=             -0.1658  YYY=              5.1883  ZZZ=              0.2587  XYY=             -4.2773
  XXY=             -5.1896  XXZ=             -4.3937  XZZ=              1.6505  YZZ=             -3.0948
  YYZ=              0.1233  XYZ=             -0.0065
 Hexadecapole moment (field-independent basis, Debye-Ang**3):
 XXXX=          -2122.7101 YYYY=           -608.2123 ZZZZ=           -100.1590 XXXY=              2.9966
 XXXZ=              0.2380 YYYX=              0.0824 YYYZ=              0.3949 ZZZX=             -0.1202
 ZZZY=             -0.2406 XXYY=           -507.3787 XXZZ=           -590.6021 YYZZ=           -145.9346
 XXYZ=              0.5507 YYXZ=              0.1473 ZZXY=              0.2560
 N-N= 7.811079138854D+02 E-N=-2.798557478579D+03  KE= 5.375205301477D+02
 Unable to Open any file for archive entry.
 1\1\GINC-GADI-CPU-CLX-0072\SP\RM062X TD-FC\6-311++G(d,p)\C14H11(1+)\TS
 1578\26-Jul-2022\0\\#n M062X/6-311++G(d,p) TD(NStates=1) EmpiricalDisp
 ersion=GD3 SP\\SP_3\\1,1\C,0,2.4927,1.3301,0.006\C,0,3.7015,0.6627,0.0
 51\C,0,3.6839,-0.6901,0.051\C,0,2.4632,-1.3629,0.006\C,0,-2.4632,-1.43
 49,0.006\C,0,-3.6839,-0.7201,0.051\C,0,-3.7015,0.6987,0.051\C,0,-2.492
 7,1.4081,0.006\C,0,0.,1.4621,-0.045\C,0,0.,-1.4205,-0.045\C,0,1.2621,0
 .6767,-0.039\C,0,1.2375,-0.7161,-0.039\C,0,-1.2621,0.6947,-0.039\C,0,-
 1.2375,-0.7281,-0.039\H,0,2.4881,2.3653,0.006\H,0,4.6368,1.1874,0.078\
 H,0,4.6093,-1.2337,0.078\H,0,2.4675,-2.4004,0.006\H,0,0.,-2.5016,-0.04
 8\H,0,-2.4675,-2.5624,0.006\H,0,-4.6093,-1.2937,0.078\H,0,-4.6368,1.25
 34,0.078\H,0,-2.4881,2.5393,0.006\H,0,0.,2.1545,-0.9046\H,0,0.,2.1545,
 0.8146\\Version=ES64L-G16RevC.01\State=1-A\HF=-539.748904\RMSD=9.952e-
 09\PG=C01 [X(C14H11)]\\@
 The archive entry for this job was punched.


 ... FOR AFTERWARDS A MAN FINDS PLEASURE IN HIS PAINS,
 WHEN HE HAS SUFFERED LONG AND WANDERED FAR.

                                    -- HOMER
 Job cpu time:       0 days  1 hours  2 minutes 32.4 seconds.
 Elapsed time:       0 days  0 hours  6 minutes 34.4 seconds.
 File lengths (MBytes):  RWF=    460 Int=      0 D2E=      0 Chk=     15 Scr=      1
 Normal termination of Gaussian 16 at Tue Jul 26 18:52:41 2022.
