 Entering Gaussian System, Link 0=g16
 Initial command:
 /apps/gaussian/g16c01/g16/l1.exe "/jobfs/52716446.gadi-pbs/Gau-1293605.inp" -scrdir="/jobfs/52716446.gadi-pbs/"
 Entering Link 1 = /apps/gaussian/g16c01/g16/l1.exe PID=   1293606.
  
 Copyright (c) 1988-2019, Gaussian, Inc.  All Rights Reserved.
  
 This is part of the Gaussian(R) 16 program.  It is based on
 the Gaussian(R) 09 system (copyright 2009, Gaussian, Inc.),
 the Gaussian(R) 03 system (copyright 2003, Gaussian, Inc.),
 the Gaussian(R) 98 system (copyright 1998, Gaussian, Inc.),
 the Gaussian(R) 94 system (copyright 1995, Gaussian, Inc.),
 the Gaussian 92(TM) system (copyright 1992, Gaussian, Inc.),
 the Gaussian 90(TM) system (copyright 1990, Gaussian, Inc.),
 the Gaussian 88(TM) system (copyright 1988, Gaussian, Inc.),
 the Gaussian 86(TM) system (copyright 1986, Carnegie Mellon
 University), and the Gaussian 82(TM) system (copyright 1983,
 Carnegie Mellon University). Gaussian is a federally registered
 trademark of Gaussian, Inc.
  
 This software contains proprietary and confidential information,
 including trade secrets, belonging to Gaussian, Inc.
  
 This software is provided under written license and may be
 used, copied, transmitted, or stored only in accord with that
 written license.
  
 The following legend is applicable only to US Government
 contracts under FAR:
  
                    RESTRICTED RIGHTS LEGEND
  
 Use, reproduction and disclosure by the US Government is
 subject to restrictions as set forth in subparagraphs (a)
 and (c) of the Commercial Computer Software - Restricted
 Rights clause in FAR 52.227-19.
  
 Gaussian, Inc.
 340 Quinnipiac St., Bldg. 40, Wallingford CT 06492
  
  
 ---------------------------------------------------------------
 Warning -- This program may not be used in any manner that
 competes with the business of Gaussian, Inc. or will provide
 assistance to any competitor of Gaussian, Inc.  The licensee
 of this program is prohibited from giving any competitor of
 Gaussian, Inc. access to this program.  By using this program,
 the user acknowledges that Gaussian, Inc. is engaged in the
 business of creating and licensing software in the field of
 computational chemistry and represents and warrants to the
 licensee that it is not a competitor of Gaussian, Inc. and that
 it will not use this program in any manner prohibited above.
 ---------------------------------------------------------------
  

 Cite this work as:
 Gaussian 16, Revision C.01,
 M. J. Frisch, G. W. Trucks, H. B. Schlegel, G. E. Scuseria, 
 M. A. Robb, J. R. Cheeseman, G. Scalmani, V. Barone, 
 G. A. Petersson, H. Nakatsuji, X. Li, M. Caricato, A. V. Marenich, 
 J. Bloino, B. G. Janesko, R. Gomperts, B. Mennucci, H. P. Hratchian, 
 J. V. Ortiz, A. F. Izmaylov, J. L. Sonnenberg, D. Williams-Young, 
 F. Ding, F. Lipparini, F. Egidi, J. Goings, B. Peng, A. Petrone, 
 T. Henderson, D. Ranasinghe, V. G. Zakrzewski, J. Gao, N. Rega, 
 G. Zheng, W. Liang, M. Hada, M. Ehara, K. Toyota, R. Fukuda, 
 J. Hasegawa, M. Ishida, T. Nakajima, Y. Honda, O. Kitao, H. Nakai, 
 T. Vreven, K. Throssell, J. A. Montgomery, Jr., J. E. Peralta, 
 F. Ogliaro, M. J. Bearpark, J. J. Heyd, E. N. Brothers, K. N. Kudin, 
 V. N. Staroverov, T. A. Keith, R. Kobayashi, J. Normand, 
 K. Raghavachari, A. P. Rendell, J. C. Burant, S. S. Iyengar, 
 J. Tomasi, M. Cossi, J. M. Millam, M. Klene, C. Adamo, R. Cammi, 
 J. W. Ochterski, R. L. Martin, K. Morokuma, O. Farkas, 
 J. B. Foresman, and D. J. Fox, Gaussian, Inc., Wallingford CT, 2019.
 
 ******************************************
 Gaussian 16:  ES64L-G16RevC.01  3-Jul-2019
                26-Jul-2022 
 ******************************************
 %NProcShared=16
 Will use up to   16 processors via shared memory.
 %mem = 64GB
 ---------------------------------------------------------------
 #n M062X/6-311++G(d,p) TD(NStates=1) EmpiricalDispersion=GD3 SP
 ---------------------------------------------------------------
 1/38=1,172=1/1;
 2/12=2,17=6,18=5,40=1/2;
 3/5=4,6=6,7=1111,11=9,25=1,30=1,74=-55,124=31/1,2,3,8;
 4//1;
 5/5=2,38=5/2;
 8/6=1,10=2,108=1/1;
 9/41=1,42=1,70=2/14;
 6/7=2,8=2,9=2,10=2/1;
 99/5=1,9=1/99;
 ----
 SP_2
 ----
 Symbolic Z-matrix:
 Charge =  1 Multiplicity = 1
 C                     2.4927    1.3431    0.004 
 C                     3.7015    0.6687    0.034 
 C                     3.6839   -0.6951    0.034 
 C                     2.4632   -1.3749    0.004 
 C                    -2.4632   -1.4229    0.004 
 C                    -3.6839   -0.7151    0.034 
 C                    -3.7015    0.6927    0.034 
 C                    -2.4927    1.3951    0.004 
 C                     0.        1.4621   -0.03 
 C                     0.       -1.4205   -0.03 
 C                     1.2621    0.6797   -0.026 
 C                     1.2375   -0.7181   -0.026 
 C                    -1.2621    0.6917   -0.026 
 C                    -1.2375   -0.7261   -0.026 
 H                     2.4881    2.3943    0.004 
 H                     4.6368    1.1984    0.052 
 H                     4.6093   -1.2437    0.052 
 H                     2.4675   -2.4274    0.004 
 H                     0.       -2.5016   -0.032 
 H                    -2.4675   -2.5354    0.004 
 H                    -4.6093   -1.2837    0.052 
 H                    -4.6368    1.2424    0.052 
 H                    -2.4881    2.5103    0.004 
 H                     0.        2.1545   -0.8896 
 H                     0.        2.1545    0.8296 
 
                          Input orientation:                          
 ---------------------------------------------------------------------
 Center     Atomic      Atomic             Coordinates (Angstroms)
 Number     Number       Type             X           Y           Z
 ---------------------------------------------------------------------
      1          6           0        2.492700    1.343100    0.004000
      2          6           0        3.701500    0.668700    0.034000
      3          6           0        3.683900   -0.695100    0.034000
      4          6           0        2.463200   -1.374900    0.004000
      5          6           0       -2.463200   -1.422900    0.004000
      6          6           0       -3.683900   -0.715100    0.034000
      7          6           0       -3.701500    0.692700    0.034000
      8          6           0       -2.492700    1.395100    0.004000
      9          6           0        0.000000    1.462100   -0.030000
     10          6           0        0.000000   -1.420500   -0.030000
     11          6           0        1.262100    0.679700   -0.026000
     12          6           0        1.237500   -0.718100   -0.026000
     13          6           0       -1.262100    0.691700   -0.026000
     14          6           0       -1.237500   -0.726100   -0.026000
     15          1           0        2.488100    2.394300    0.004000
     16          1           0        4.636800    1.198400    0.052000
     17          1           0        4.609300   -1.243700    0.052000
     18          1           0        2.467500   -2.427400    0.004000
     19          1           0        0.000000   -2.501600   -0.032000
     20          1           0       -2.467500   -2.535400    0.004000
     21          1           0       -4.609300   -1.283700    0.052000
     22          1           0       -4.636800    1.242400    0.052000
     23          1           0       -2.488100    2.510300    0.004000
     24          1           0        0.000000    2.154500   -0.889600
     25          1           0        0.000000    2.154500    0.829600
 ---------------------------------------------------------------------
                    Distance matrix (angstroms):
                    1          2          3          4          5
     1  C    0.000000
     2  C    1.384526   0.000000
     3  C    2.360957   1.363914   0.000000
     4  C    2.718160   2.389684   1.397547   0.000000
     5  C    5.675535   6.509932   6.190108   4.926634   0.000000
     6  C    6.510566   7.513923   7.367827   6.182481   1.411379
     7  C    6.228325   7.403039   7.514660   6.502261   2.451540
     8  C    4.985671   6.236720   6.520753   5.677486   2.818154
     9  C    2.495770   3.786117   4.269511   3.757270   3.793644
    10  C    3.721854   4.250877   3.755186   2.463857   2.463436
    11  C    1.398348   2.440163   2.785461   2.380110   4.277813
    12  C    2.413498   2.828093   2.447244   1.390909   3.767336
    13  C    3.811003   4.964016   5.137094   4.260234   2.432093
    14  C    4.265780   5.132523   4.921863   3.757263   1.410238
    15  H    1.051210   2.109724   3.312888   3.769282   6.251911
    16  H    2.149513   1.075031   2.119831   3.368785   7.568588
    17  H    3.342728   2.117002   1.075942   2.150642   7.074933
    18  H    3.770584   3.333090   2.116930   1.052509   5.031980
    19  H    4.582201   4.874039   4.103525   2.708893   2.689283
    20  H    6.296534   6.951526   6.420851   5.065428   1.112508
    21  H    7.572370   8.537071   8.314081   7.073251   2.151145
    22  H    7.130373   8.358032   8.543318   7.567203   3.439573
    23  H    5.115733   6.457828   6.954788   6.293660   3.933279
    24  H    2.769557   4.094111   4.748092   4.395741   4.434373
    25  H    2.748370   4.067147   4.724862   4.382423   4.421172
                    6          7          8          9         10
     6  C    0.000000
     7  C    1.407910   0.000000
     8  C    2.423386   1.398379   0.000000
     9  C    4.279651   3.781160   2.493832   0.000000
    10  C    3.751374   4.262724   3.760627   2.882600   0.000000
    11  C    5.139259   4.963980   3.822463   1.484945   2.450256
    12  C    4.921767   5.136894   4.287296   2.506929   1.422950
    13  C    2.801393   2.440138   1.417762   1.478658   2.460549
    14  C    2.447160   2.843921   2.464937   2.513890   1.419019
    15  H    6.911067   6.419306   5.080036   2.657216   4.554613
    16  H    8.537907   8.353640   7.132374   4.645016   5.325906
    17  H    8.310049   8.533426   7.576541   5.345440   4.613418
    18  H    6.385342   6.913211   6.262195   4.606292   2.665250
    19  H    4.094760   4.889684   4.625918   3.963701   1.081102
    20  H    2.189525   3.456051   3.930581   4.697842   2.707898
    21  H    1.086276   2.174990   3.414421   5.365798   4.612059
    22  H    2.177188   1.085025   2.150067   4.642726   5.347679
    23  H    3.440064   2.185614   1.115209   2.700096   4.652202
    24  H    4.760122   4.085462   2.754771   1.103780   3.676892
    25  H    4.736951   4.058441   2.733470   1.103780   3.676892
                   11         12         13         14         15
    11  C    0.000000
    12  C    1.398016   0.000000
    13  C    2.524229   2.869762   0.000000
    14  C    2.867799   2.475013   1.418013   0.000000
    15  H    2.108039   3.354390   4.118707   4.859824   0.000000
    16  H    3.415221   3.903114   5.921136   6.182005   2.459551
    17  H    3.861256   3.413411   6.182653   5.870184   4.211512
    18  H    3.332861   2.106064   4.862057   4.077051   4.821744
    19  H    3.422514   2.170787   3.433671   2.164219   5.491974
    20  H    4.924194   4.126803   3.445006   2.188005   6.989987
    21  H    6.191475   5.874611   3.887420   3.418485   7.993940
    22  H    5.926191   6.193306   3.420227   3.928908   7.217574
    23  H    4.173248   4.929864   2.193463   3.469753   4.977552
    24  H    2.124556   3.244849   2.116243   3.251933   2.654556
    25  H    2.121316   3.242729   2.112991   3.249818   2.632444
                   16         17         18         19         20
    16  H    0.000000
    17  H    2.442255   0.000000
    18  H    4.225469   2.447602   0.000000
    19  H    5.932703   4.778600   2.468878   0.000000
    20  H    8.025873   7.193879   4.936182   2.467994   0.000000
    21  H    9.573463   9.218687   7.168783   4.768226   2.481202
    22  H    9.273704   9.574500   7.996300   5.960244   4.356597
    23  H    7.244832   8.029191   6.995631   5.595630   5.045742
    24  H    4.827075   5.803449   5.280235   4.734421   5.374220
    25  H    4.797781   5.779106   5.269154   4.735147   5.363332
                   21         22         23         24         25
    21  H    0.000000
    22  H    2.526250   0.000000
    23  H    4.346979   2.495353   0.000000
    24  H    5.826961   4.818553   2.667537   0.000000
    25  H    5.802717   4.789207   2.645534   1.719200   0.000000
 Stoichiometry    C14H11(1+)
 Framework group  C1[X(C14H11)]
 Deg. of freedom    69
 Full point group                 C1      NOp   1
 Largest Abelian subgroup         C1      NOp   1
 Largest concise Abelian subgroup C1      NOp   1
                         Standard orientation:                         
 ---------------------------------------------------------------------
 Center     Atomic      Atomic             Coordinates (Angstroms)
 Number     Number       Type             X           Y           Z
 ---------------------------------------------------------------------
      1          6           0        2.492056   -1.335617   -0.003965
      2          6           0        3.701181   -0.661787   -0.033664
      3          6           0        3.684239    0.702021   -0.033055
      4          6           0        2.463867    1.382397   -0.002751
      5          6           0       -2.462509    1.432774   -0.002729
      6          6           0       -3.683550    0.725577   -0.033045
      7          6           0       -3.701830   -0.682214   -0.033673
      8          6           0       -2.493369   -1.385211   -0.003987
      9          6           0       -0.000701   -1.453429    0.029983
     10          6           0        0.000690    1.429170    0.031270
     11          6           0        1.261776   -0.671637    0.026332
     12          6           0        1.237851    0.726175    0.026956
     13          6           0       -1.262430   -0.682418    0.026327
     14          6           0       -1.237145    0.735369    0.026960
     15          1           0        2.486948   -2.386815   -0.004434
     16          1           0        4.636225   -1.191931   -0.051900
     17          1           0        4.609904    1.250182   -0.050810
     18          1           0        2.468675    2.434894   -0.002281
     19          1           0        0.001212    2.510269    0.033752
     20          1           0       -2.466272    2.545276   -0.002232
     21          1           0       -4.608676    1.294631   -0.050791
     22          1           0       -4.637395   -1.231455   -0.051918
     23          1           0       -2.489307   -2.500413   -0.004485
     24          1           0       -0.001036   -2.146213    0.889274
     25          1           0       -0.001036   -2.145445   -0.829926
 ---------------------------------------------------------------------
 Rotational constants (GHZ):           2.1346321           0.4445696           0.3688069
 Standard basis: 6-311++G(d,p) (5D, 7F)
 There are   399 symmetry adapted cartesian basis functions of A   symmetry.
 There are   385 symmetry adapted basis functions of A   symmetry.
   385 basis functions,   603 primitive gaussians,   399 cartesian basis functions
    47 alpha electrons       47 beta electrons
       nuclear repulsion energy       781.1553293765 Hartrees.
 NAtoms=   25 NActive=   25 NUniq=   25 SFac= 1.00D+00 NAtFMM=   60 NAOKFM=F Big=F
 Integral buffers will be    131072 words long.
 Regular integral format.
 Two-electron integral symmetry is turned on.
 Nuclear repulsion after empirical dispersion term =      781.1543498373 Hartrees.
 One-electron integrals computed using PRISM.
 NBasis=   385 RedAO= T EigKep=  1.13D-06  NBF=   385
 NBsUse=   379 1.00D-06 EigRej=  8.46D-07 NBFU=   379
 ExpMin= 3.60D-02 ExpMax= 4.56D+03 ExpMxC= 6.82D+02 IAcc=3 IRadAn=         5 AccDes= 0.00D+00
 Harris functional with IExCor= 1009 and IRadAn=       5 diagonalized for initial guess.
 HarFok:  IExCor= 1009 AccDes= 0.00D+00 IRadAn=         5 IDoV= 1 UseB2=F ITyADJ=14
 ICtDFT=  3500011 ScaDFX=  1.000000  1.000000  1.000000  1.000000
 FoFCou: FMM=F IPFlag=           0 FMFlag=      100000 FMFlg1=           0
         NFxFlg=           0 DoJE=T BraDBF=F KetDBF=T FulRan=T
         wScrn=  0.000000 ICntrl=       500 IOpCl=  0 I1Cent=   200000004 NGrid=           0
         NMat0=    1 NMatS0=      1 NMatT0=    0 NMatD0=    1 NMtDS0=    0 NMtDT0=    0
 Petite list used in FoFCou.
 Requested convergence on RMS density matrix=1.00D-08 within 128 cycles.
 Requested convergence on MAX density matrix=1.00D-06.
 Requested convergence on             energy=1.00D-06.
 No special actions if energy rises.
 SCF Done:  E(RM062X) =  -539.755205848     A.U. after   15 cycles
            NFock= 15  Conv=0.78D-08     -V/T= 2.0042
 DoSCS=F DFT=T ScalE2(SS,OS)=  1.000000  1.000000
 ExpMin= 3.60D-02 ExpMax= 4.56D+03 ExpMxC= 6.82D+02 IAcc=3 IRadAn=         5 AccDes= 0.00D+00
 HarFok:  IExCor=  205 AccDes= 0.00D+00 IRadAn=         5 IDoV=-2 UseB2=F ITyADJ=14
 ICtDFT= 12500011 ScaDFX=  1.000000  1.000000  1.000000  1.000000
 Range of M.O.s used for correlation:    15   379
 NBasis=   385 NAE=    47 NBE=    47 NFC=    14 NFV=     0
 NROrb=    365 NOA=    33 NOB=    33 NVA=   332 NVB=   332

 **** Warning!!: The largest alpha MO coefficient is  0.14508999D+03

 Orbital symmetries:
       Occupied  (A) (A) (A) (A) (A) (A) (A) (A) (A) (A) (A) (A)
                 (A) (A) (A) (A) (A) (A) (A) (A) (A) (A) (A) (A)
                 (A) (A) (A) (A) (A) (A) (A) (A) (A) (A) (A) (A)
                 (A) (A) (A) (A) (A) (A) (A) (A) (A) (A) (A)
       Virtual   (A) (A) (A) (A) (A) (A) (A) (A) (A) (A) (A) (A)
                 (A) (A) (A) (A) (A) (A) (A) (A) (A) (A) (A) (A)
                 (A) (A) (A) (A) (A) (A) (A) (A) (A) (A) (A) (A)
                 (A) (A) (A) (A) (A) (A) (A) (A) (A) (A) (A) (A)
                 (A) (A) (A) (A) (A) (A) (A) (A) (A) (A) (A) (A)
                 (A) (A) (A) (A) (A) (A) (A) (A) (A) (A) (A) (A)
                 (A) (A) (A) (A) (A) (A) (A) (A) (A) (A) (A) (A)
                 (A) (A) (A) (A) (A) (A) (A) (A) (A) (A) (A) (A)
                 (A) (A) (A) (A) (A) (A) (A) (A) (A) (A) (A) (A)
                 (A) (A) (A) (A) (A) (A) (A) (A) (A) (A) (A) (A)
                 (A) (A) (A) (A) (A) (A) (A) (A) (A) (A) (A) (A)
                 (A) (A) (A) (A) (A) (A) (A) (A) (A) (A) (A) (A)
                 (A) (A) (A) (A) (A) (A) (A) (A) (A) (A) (A) (A)
                 (A) (A) (A) (A) (A) (A) (A) (A) (A) (A) (A) (A)
                 (A) (A) (A) (A) (A) (A) (A) (A) (A) (A) (A) (A)
                 (A) (A) (A) (A) (A) (A) (A) (A) (A) (A) (A) (A)
                 (A) (A) (A) (A) (A) (A) (A) (A) (A) (A) (A) (A)
                 (A) (A) (A) (A) (A) (A) (A) (A) (A) (A) (A) (A)
                 (A) (A) (A) (A) (A) (A) (A) (A) (A) (A) (A) (A)
                 (A) (A) (A) (A) (A) (A) (A) (A) (A) (A) (A) (A)
                 (A) (A) (A) (A) (A) (A) (A) (A) (A) (A) (A) (A)
                 (A) (A) (A) (A) (A) (A) (A) (A) (A) (A) (A) (A)
                 (A) (A) (A) (A) (A) (A) (A) (A) (A) (A) (A) (A)
                 (A) (A) (A) (A) (A) (A) (A) (A) (A) (A) (A) (A)
                 (A) (A) (A) (A) (A) (A) (A) (A) (A) (A) (A) (A)
                 (A) (A) (A) (A) (A) (A) (A) (A) (A) (A) (A) (A)
                 (A) (A) (A) (A) (A) (A) (A) (A) (A) (A) (A) (A)
                 (A) (A) (A) (A) (A) (A) (A) (A)
     4 initial guesses have been made.
 Convergence on wavefunction:    0.001000000000000
 Iteration     1 Dimension     4 NMult     0 NNew      4
 CISAX will form     4 AO SS matrices at one time.
 Iteration     2 Dimension     6 NMult     4 NNew      2
 Iteration     3 Dimension     8 NMult     6 NNew      2
 Iteration     4 Dimension    10 NMult     8 NNew      2
 Iteration     5 Dimension    12 NMult    10 NNew      2
 Iteration     6 Dimension    14 NMult    12 NNew      2
 ***********************************************************************
 Excited states from <AA,BB:AA,BB> singles matrix:
 ***********************************************************************
 
 Ground to excited state transition densities written to RWF  633
 Ground to excited state transition electric dipole moments (Au):
       state          X           Y           Z        Dip. S.      Osc.
         1        -0.1067     -0.6442      0.0096      0.4265      0.0295
 Ground to excited state transition velocity dipole moments (Au):
       state          X           Y           Z        Dip. S.      Osc.
         1         0.0111      0.0744     -0.0011      0.0057      0.0365
 Ground to excited state transition magnetic dipole moments (Au):
       state          X           Y           Z
         1         0.0179      0.0008     -0.0973
 Ground to excited state transition velocity quadrupole moments (Au):
       state          XX          YY          ZZ          XY          XZ          YZ
         1         0.2971      0.0346     -0.0099     -0.0071     -0.0003      0.0043
 <0|del|b> * <b|rxdel|0> + <0|del|b> * <b|delr+rdel|0>
 Rotatory Strengths (R) in cgs (10**-40 erg-esu-cm/Gauss)
       state          XX          YY          ZZ    R(velocity)    E-M Angle
         1         0.6561      1.1684      0.6419      0.8222       87.22
 1/2[<0|r|b>*<b|rxdel|0> + (<0|rxdel|b>*<b|r|0>)*]
 Rotatory Strengths (R) in cgs (10**-40 erg-esu-cm/Gauss)
       state          XX          YY          ZZ     R(length)
         1         1.3494      0.3594      0.6593      0.7894
  1/2[<0|del|b>*<b|r|0> + (<0|r|b>*<b|del|0>)*] (Au)
       state          X           Y           Z        Dip. S.   Osc.(frdel)
         1        -0.0012     -0.0480     -0.0000      0.0492      0.0328

 Excitation energies and oscillator strengths:
 
 Excited State   1:      Singlet-A      2.8187 eV  439.87 nm  f=0.0295  <S**2>=0.000
      47 -> 48         0.70367
 This state for optimization and/or second-order correction.
 Total Energy, E(TD-HF/TD-DFT) =  -539.651621873    
 Copying the excited state density for this state as the 1-particle RhoCI density.
 SavETr:  write IOETrn=   770 NScale= 10 NData=  16 NLR=1 NState=    1 LETran=      28.

 **********************************************************************

            Population analysis using the SCF Density.

 **********************************************************************

 Orbital symmetries:
       Occupied  (A) (A) (A) (A) (A) (A) (A) (A) (A) (A) (A) (A)
                 (A) (A) (A) (A) (A) (A) (A) (A) (A) (A) (A) (A)
                 (A) (A) (A) (A) (A) (A) (A) (A) (A) (A) (A) (A)
                 (A) (A) (A) (A) (A) (A) (A) (A) (A) (A) (A)
       Virtual   (A) (A) (A) (A) (A) (A) (A) (A) (A) (A) (A) (A)
                 (A) (A) (A) (A) (A) (A) (A) (A) (A) (A) (A) (A)
                 (A) (A) (A) (A) (A) (A) (A) (A) (A) (A) (A) (A)
                 (A) (A) (A) (A) (A) (A) (A) (A) (A) (A) (A) (A)
                 (A) (A) (A) (A) (A) (A) (A) (A) (A) (A) (A) (A)
                 (A) (A) (A) (A) (A) (A) (A) (A) (A) (A) (A) (A)
                 (A) (A) (A) (A) (A) (A) (A) (A) (A) (A) (A) (A)
                 (A) (A) (A) (A) (A) (A) (A) (A) (A) (A) (A) (A)
                 (A) (A) (A) (A) (A) (A) (A) (A) (A) (A) (A) (A)
                 (A) (A) (A) (A) (A) (A) (A) (A) (A) (A) (A) (A)
                 (A) (A) (A) (A) (A) (A) (A) (A) (A) (A) (A) (A)
                 (A) (A) (A) (A) (A) (A) (A) (A) (A) (A) (A) (A)
                 (A) (A) (A) (A) (A) (A) (A) (A) (A) (A) (A) (A)
                 (A) (A) (A) (A) (A) (A) (A) (A) (A) (A) (A) (A)
                 (A) (A) (A) (A) (A) (A) (A) (A) (A) (A) (A) (A)
                 (A) (A) (A) (A) (A) (A) (A) (A) (A) (A) (A) (A)
                 (A) (A) (A) (A) (A) (A) (A) (A) (A) (A) (A) (A)
                 (A) (A) (A) (A) (A) (A) (A) (A) (A) (A) (A) (A)
                 (A) (A) (A) (A) (A) (A) (A) (A) (A) (A) (A) (A)
                 (A) (A) (A) (A) (A) (A) (A) (A) (A) (A) (A) (A)
                 (A) (A) (A) (A) (A) (A) (A) (A) (A) (A) (A) (A)
                 (A) (A) (A) (A) (A) (A) (A) (A) (A) (A) (A) (A)
                 (A) (A) (A) (A) (A) (A) (A) (A) (A) (A) (A) (A)
                 (A) (A) (A) (A) (A) (A) (A) (A) (A) (A) (A) (A)
                 (A) (A) (A) (A) (A) (A) (A) (A) (A) (A) (A) (A)
                 (A) (A) (A) (A) (A) (A) (A) (A) (A) (A) (A) (A)
                 (A) (A) (A) (A) (A) (A) (A) (A) (A) (A) (A) (A)
                 (A) (A) (A) (A) (A) (A) (A) (A)
 The electronic state is 1-A.
 Alpha  occ. eigenvalues --  -10.77662 -10.73718 -10.72772 -10.72763 -10.72111
 Alpha  occ. eigenvalues --  -10.71989 -10.71641 -10.70980 -10.70744 -10.70688
 Alpha  occ. eigenvalues --  -10.70368 -10.70175 -10.69250 -10.69086  -1.16461
 Alpha  occ. eigenvalues --   -1.12462  -1.06935  -1.05723  -1.01313  -1.00188
 Alpha  occ. eigenvalues --   -0.95773  -0.91048  -0.86471  -0.85885  -0.83787
 Alpha  occ. eigenvalues --   -0.78387  -0.76086  -0.74359  -0.69589  -0.69234
 Alpha  occ. eigenvalues --   -0.68514  -0.68183  -0.68100  -0.64715  -0.64248
 Alpha  occ. eigenvalues --   -0.63038  -0.61859  -0.60094  -0.59579  -0.59078
 Alpha  occ. eigenvalues --   -0.56894  -0.55203  -0.54824  -0.52436  -0.46611
 Alpha  occ. eigenvalues --   -0.46071  -0.44479
 Alpha virt. eigenvalues --   -0.26088  -0.14726  -0.14088  -0.12747  -0.11180
 Alpha virt. eigenvalues --   -0.10093  -0.09237  -0.07983  -0.07960  -0.07482
 Alpha virt. eigenvalues --   -0.07212  -0.07141  -0.05651  -0.05582  -0.05337
 Alpha virt. eigenvalues --   -0.03869  -0.03628  -0.03267  -0.03144  -0.02163
 Alpha virt. eigenvalues --   -0.01375  -0.00930   0.00185   0.00580   0.00649
 Alpha virt. eigenvalues --    0.01051   0.01500   0.01919   0.02165   0.02314
 Alpha virt. eigenvalues --    0.02446   0.02663   0.02730   0.03324   0.03365
 Alpha virt. eigenvalues --    0.04216   0.04449   0.04768   0.05028   0.05388
 Alpha virt. eigenvalues --    0.05929   0.06248   0.06709   0.07035   0.07249
 Alpha virt. eigenvalues --    0.07881   0.08063   0.08331   0.08660   0.08904
 Alpha virt. eigenvalues --    0.09509   0.09544   0.10002   0.10840   0.11027
 Alpha virt. eigenvalues --    0.11142   0.12117   0.12246   0.12881   0.13013
 Alpha virt. eigenvalues --    0.13376   0.13436   0.14135   0.14424   0.16139
 Alpha virt. eigenvalues --    0.16189   0.16370   0.17417   0.17598   0.17726
 Alpha virt. eigenvalues --    0.18109   0.18960   0.19147   0.19559   0.20083
 Alpha virt. eigenvalues --    0.21404   0.21629   0.22369   0.23418   0.23568
 Alpha virt. eigenvalues --    0.23970   0.24540   0.25348   0.26859   0.27609
 Alpha virt. eigenvalues --    0.28831   0.29178   0.29904   0.31315   0.35740
 Alpha virt. eigenvalues --    0.36409   0.38121   0.39158   0.41126   0.41440
 Alpha virt. eigenvalues --    0.41951   0.42209   0.42983   0.43670   0.44297
 Alpha virt. eigenvalues --    0.44621   0.44939   0.46068   0.46584   0.47942
 Alpha virt. eigenvalues --    0.48549   0.48759   0.49009   0.50411   0.50879
 Alpha virt. eigenvalues --    0.51524   0.51910   0.52141   0.52880   0.54012
 Alpha virt. eigenvalues --    0.54099   0.54591   0.55517   0.56013   0.57525
 Alpha virt. eigenvalues --    0.58213   0.58829   0.61460   0.61805   0.62612
 Alpha virt. eigenvalues --    0.63062   0.63501   0.65092   0.65232   0.67079
 Alpha virt. eigenvalues --    0.70335   0.70429   0.71089   0.72407   0.72840
 Alpha virt. eigenvalues --    0.75612   0.75927   0.76212   0.76822   0.77013
 Alpha virt. eigenvalues --    0.77790   0.78093   0.78158   0.80178   0.80519
 Alpha virt. eigenvalues --    0.81229   0.81573   0.82191   0.83135   0.85135
 Alpha virt. eigenvalues --    0.86885   0.88127   0.88197   0.89406   0.90581
 Alpha virt. eigenvalues --    0.90779   0.91591   0.93182   0.94319   0.96186
 Alpha virt. eigenvalues --    0.96753   1.00313   1.01074   1.01894   1.02667
 Alpha virt. eigenvalues --    1.02823   1.04180   1.05283   1.05785   1.08721
 Alpha virt. eigenvalues --    1.19446   1.22513   1.24697   1.25224   1.28013
 Alpha virt. eigenvalues --    1.29534   1.31940   1.34163   1.35705   1.36046
 Alpha virt. eigenvalues --    1.39061   1.39844   1.41213   1.42923   1.43288
 Alpha virt. eigenvalues --    1.43513   1.43968   1.45740   1.46804   1.46947
 Alpha virt. eigenvalues --    1.48001   1.48126   1.51503   1.53668   1.55304
 Alpha virt. eigenvalues --    1.55818   1.56017   1.57054   1.58424   1.61381
 Alpha virt. eigenvalues --    1.62813   1.63241   1.64311   1.65909   1.68226
 Alpha virt. eigenvalues --    1.68418   1.68550   1.69943   1.74348   1.76023
 Alpha virt. eigenvalues --    1.77071   1.77969   1.79125   1.80040   1.81745
 Alpha virt. eigenvalues --    1.82640   1.83037   1.83277   1.83943   1.84431
 Alpha virt. eigenvalues --    1.84729   1.85720   1.86058   1.88496   1.91337
 Alpha virt. eigenvalues --    1.91820   1.94474   1.95196   1.96900   1.99176
 Alpha virt. eigenvalues --    1.99719   2.02331   2.04513   2.06922   2.11559
 Alpha virt. eigenvalues --    2.11867   2.14233   2.15438   2.18521   2.21297
 Alpha virt. eigenvalues --    2.23369   2.27544   2.29562   2.33566   2.34795
 Alpha virt. eigenvalues --    2.36852   2.38157   2.40516   2.42038   2.44537
 Alpha virt. eigenvalues --    2.46199   2.46533   2.47244   2.53426   2.54186
 Alpha virt. eigenvalues --    2.54379   2.56715   2.57976   2.58820   2.59733
 Alpha virt. eigenvalues --    2.60054   2.61538   2.62083   2.63504   2.63802
 Alpha virt. eigenvalues --    2.64757   2.64800   2.65173   2.66705   2.67920
 Alpha virt. eigenvalues --    2.68386   2.70274   2.70873   2.73401   2.74881
 Alpha virt. eigenvalues --    2.76311   2.78441   2.79747   2.83088   2.83652
 Alpha virt. eigenvalues --    2.86319   2.87043   2.92121   2.96843   2.98615
 Alpha virt. eigenvalues --    3.00982   3.05087   3.09402   3.11094   3.14767
 Alpha virt. eigenvalues --    3.20537   3.23509   3.24928   3.29734   3.30430
 Alpha virt. eigenvalues --    3.33015   3.33705   3.41449   3.43355   3.47579
 Alpha virt. eigenvalues --    3.48487   3.53105   3.56838   3.65010   3.65930
 Alpha virt. eigenvalues --    3.69375   3.92382   3.92687   3.96574   3.98531
 Alpha virt. eigenvalues --    4.03866   4.05293   4.09460   4.12911   4.35451
 Alpha virt. eigenvalues --    4.61284   4.68373   4.72632  23.45232  23.60574
 Alpha virt. eigenvalues --   23.81585  23.84429  23.86684  23.88566  23.91969
 Alpha virt. eigenvalues --   23.92913  23.95443  23.96041  24.03700  24.03964
 Alpha virt. eigenvalues --   24.05008  24.16595
          Condensed to atoms (all electrons):
               1          2          3          4          5          6
     1  C    8.747081   0.236790  -0.465718   1.984754  -0.082410  -0.099281
     2  C    0.236790   7.261016   0.378963  -1.109933   0.004185  -0.014865
     3  C   -0.465718   0.378963   6.672037   0.777555  -0.145898   0.017151
     4  C    1.984754  -1.109933   0.777555  10.840245  -0.382947  -0.103511
     5  C   -0.082410   0.004185  -0.145898  -0.382947  11.274294   0.725151
     6  C   -0.099281  -0.014865   0.017151  -0.103511   0.725151   6.528538
     7  C   -0.009325   0.000629  -0.014194  -0.035361  -1.057728   0.325972
     8  C    0.399541  -0.025347  -0.093564  -0.001544   1.947598  -0.609324
     9  C   -1.092130  -0.868825   0.297422  -0.318802  -0.042248   0.280680
    10  C   -1.359572   0.256985  -0.401646  -2.530859  -2.566325  -0.294928
    11  C    0.564099  -1.066567   0.996505  -0.218516  -1.522648  -0.165832
    12  C   -2.414867   1.492833  -1.550826  -1.445163  -0.311732  -0.210972
    13  C    0.325693  -0.256814  -0.171675  -1.460126  -0.280538   1.015604
    14  C   -1.232390  -0.172792  -0.185117  -0.343878  -1.922762  -1.266097
    15  H    0.372452  -0.111417  -0.002473   0.025938   0.004771   0.001091
    16  H   -0.017695   0.384027  -0.018926   0.014595  -0.001389  -0.000311
    17  H   -0.026668  -0.014674   0.377898  -0.066291   0.000071   0.000354
    18  H    0.049934   0.000376  -0.088346   0.465344   0.008404  -0.004873
    19  H   -0.042750  -0.009022   0.053516  -0.054937  -0.082048   0.049781
    20  H    0.006268   0.002317  -0.005270   0.004033   0.449755  -0.081885
    21  H   -0.001285  -0.000386   0.000428   0.000484  -0.069334   0.374970
    22  H    0.000745   0.000385  -0.000328  -0.001631   0.010459  -0.016172
    23  H    0.005818  -0.002816   0.001147   0.006448   0.027722  -0.001914
    24  H    0.021817   0.012371   0.000653  -0.011846  -0.010658   0.000899
    25  H    0.046552   0.016766  -0.004432  -0.014022  -0.012126  -0.003282
               7          8          9         10         11         12
     1  C   -0.009325   0.399541  -1.092130  -1.359572   0.564099  -2.414867
     2  C    0.000629  -0.025347  -0.868825   0.256985  -1.066567   1.492833
     3  C   -0.014194  -0.093564   0.297422  -0.401646   0.996505  -1.550826
     4  C   -0.035361  -0.001544  -0.318802  -2.530859  -0.218516  -1.445163
     5  C   -1.057728   1.947598  -0.042248  -2.566325  -1.522648  -0.311732
     6  C    0.325972  -0.609324   0.280680  -0.294928  -0.165832  -0.210972
     7  C    7.053343   0.372169  -0.765591   0.230746  -0.248653  -0.203762
     8  C    0.372169   8.460919  -1.177849  -1.185727   0.152201  -0.953190
     9  C   -0.765591  -1.177849   9.578826   0.239656   1.525453  -1.914947
    10  C    0.230746  -1.185727   0.239656   9.088597  -0.503728   2.386754
    11  C   -0.248653   0.152201   1.525453  -0.503728  14.127877  -3.556868
    12  C   -0.203762  -0.953190  -1.914947   2.386754  -3.556868  16.086970
    13  C   -0.794470   0.069386   1.626657  -0.425160   1.084122  -4.960232
    14  C    1.279629  -1.851424  -1.947765   2.509732  -4.624895   3.112072
    15  H   -0.002347   0.005615   0.091802  -0.007508  -0.023257  -0.021748
    16  H    0.000305   0.000737   0.001268  -0.009972   0.019405  -0.028895
    17  H   -0.000382  -0.001361  -0.005881   0.019237  -0.026233   0.088143
    18  H    0.001921   0.007849  -0.025799   0.012893  -0.004044  -0.049807
    19  H   -0.006968  -0.048238   0.073544   0.418591   0.078649  -0.078173
    20  H    0.003883   0.048954  -0.022115   0.014988  -0.011823  -0.010621
    21  H   -0.019780  -0.023997  -0.005066   0.020762  -0.005504   0.004698
    22  H    0.377224  -0.021983   0.004450  -0.008318   0.002646  -0.008834
    23  H   -0.100967   0.360744   0.093593  -0.010271   0.003591   0.007166
    24  H    0.012431   0.019007   0.362576   0.007061   0.007071  -0.049474
    25  H    0.016129   0.044261   0.350713   0.003412   0.010564  -0.067941
              13         14         15         16         17         18
     1  C    0.325693  -1.232390   0.372452  -0.017695  -0.026668   0.049934
     2  C   -0.256814  -0.172792  -0.111417   0.384027  -0.014674   0.000376
     3  C   -0.171675  -0.185117  -0.002473  -0.018926   0.377898  -0.088346
     4  C   -1.460126  -0.343878   0.025938   0.014595  -0.066291   0.465344
     5  C   -0.280538  -1.922762   0.004771  -0.001389   0.000071   0.008404
     6  C    1.015604  -1.266097   0.001091  -0.000311   0.000354  -0.004873
     7  C   -0.794470   1.279629  -0.002347   0.000305  -0.000382   0.001921
     8  C    0.069386  -1.851424   0.005615   0.000737  -0.001361   0.007849
     9  C    1.626657  -1.947765   0.091802   0.001268  -0.005881  -0.025799
    10  C   -0.425160   2.509732  -0.007508  -0.009972   0.019237   0.012893
    11  C    1.084122  -4.624895  -0.023257   0.019405  -0.026233  -0.004044
    12  C   -4.960232   3.112072  -0.021748  -0.028895   0.088143  -0.049807
    13  C   14.854872  -4.019923   0.000295   0.003110  -0.006537  -0.011612
    14  C   -4.019923  16.185084   0.005353  -0.008665   0.005354  -0.017044
    15  H    0.000295   0.005353   0.447120  -0.009418   0.001403   0.000092
    16  H    0.003110  -0.008665  -0.009418   0.422765  -0.007072   0.001907
    17  H   -0.006537   0.005354   0.001403  -0.007072   0.425102  -0.010531
    18  H   -0.011612  -0.017044   0.000092   0.001907  -0.010531   0.461650
    19  H    0.075006  -0.052080   0.000412  -0.000580   0.001270  -0.006148
    20  H   -0.008626  -0.059950  -0.000121   0.000017  -0.000133   0.001250
    21  H   -0.024478   0.090977   0.000012  -0.000006   0.000010  -0.000155
    22  H    0.031088  -0.032823  -0.000139   0.000007  -0.000007   0.000016
    23  H   -0.037316  -0.027302   0.000557  -0.000112   0.000015  -0.000108
    24  H    0.015721  -0.051212  -0.000840   0.000429  -0.000097   0.000100
    25  H    0.020246  -0.071993  -0.001462   0.000744  -0.000212   0.000355
              19         20         21         22         23         24
     1  C   -0.042750   0.006268  -0.001285   0.000745   0.005818   0.021817
     2  C   -0.009022   0.002317  -0.000386   0.000385  -0.002816   0.012371
     3  C    0.053516  -0.005270   0.000428  -0.000328   0.001147   0.000653
     4  C   -0.054937   0.004033   0.000484  -0.001631   0.006448  -0.011846
     5  C   -0.082048   0.449755  -0.069334   0.010459   0.027722  -0.010658
     6  C    0.049781  -0.081885   0.374970  -0.016172  -0.001914   0.000899
     7  C   -0.006968   0.003883  -0.019780   0.377224  -0.100967   0.012431
     8  C   -0.048238   0.048954  -0.023997  -0.021983   0.360744   0.019007
     9  C    0.073544  -0.022115  -0.005066   0.004450   0.093593   0.362576
    10  C    0.418591   0.014988   0.020762  -0.008318  -0.010271   0.007061
    11  C    0.078649  -0.011823  -0.005504   0.002646   0.003591   0.007071
    12  C   -0.078173  -0.010621   0.004698  -0.008834   0.007166  -0.049474
    13  C    0.075006  -0.008626  -0.024478   0.031088  -0.037316   0.015721
    14  C   -0.052080  -0.059950   0.090977  -0.032823  -0.027302  -0.051212
    15  H    0.000412  -0.000121   0.000012  -0.000139   0.000557  -0.000840
    16  H   -0.000580   0.000017  -0.000006   0.000007  -0.000112   0.000429
    17  H    0.001270  -0.000133   0.000010  -0.000007   0.000015  -0.000097
    18  H   -0.006148   0.001250  -0.000155   0.000016  -0.000108   0.000100
    19  H    0.442852  -0.006246   0.001583  -0.000494   0.000244   0.000834
    20  H   -0.006246   0.446087  -0.009878   0.001814   0.000249   0.000047
    21  H    0.001583  -0.009878   0.420504  -0.006250   0.001403  -0.000087
    22  H   -0.000494   0.001814  -0.006250   0.416735  -0.008542   0.000519
    23  H    0.000244   0.000249   0.001403  -0.008542   0.431456  -0.000472
    24  H    0.000834   0.000047  -0.000087   0.000519  -0.000472   0.490103
    25  H    0.000328   0.000243  -0.000167   0.000837  -0.000961  -0.079297
              25
     1  C    0.046552
     2  C    0.016766
     3  C   -0.004432
     4  C   -0.014022
     5  C   -0.012126
     6  C   -0.003282
     7  C    0.016129
     8  C    0.044261
     9  C    0.350713
    10  C    0.003412
    11  C    0.010564
    12  C   -0.067941
    13  C    0.020246
    14  C   -0.071993
    15  H   -0.001462
    16  H    0.000744
    17  H   -0.000212
    18  H    0.000355
    19  H    0.000328
    20  H    0.000243
    21  H   -0.000167
    22  H    0.000837
    23  H   -0.000961
    24  H   -0.079297
    25  H    0.496863
 Mulliken charges:
               1
     1  C    0.082550
     2  C   -0.394185
     3  C   -0.424863
     4  C   -0.020027
     5  C    0.038377
     6  C   -0.446944
     7  C   -0.414851
     8  C    0.104566
     9  C   -0.339621
    10  C    0.094603
    11  C   -0.593614
    12  C    0.659414
    13  C   -0.664292
    14  C    0.699910
    15  H    0.223817
    16  H    0.253727
    17  H    0.247221
    18  H    0.206378
    19  H    0.191074
    20  H    0.236767
    21  H    0.250543
    22  H    0.258596
    23  H    0.250628
    24  H    0.252345
    25  H    0.247883
 Sum of Mulliken charges =   1.00000
 Mulliken charges with hydrogens summed into heavy atoms:
               1
     1  C    0.306367
     2  C   -0.140458
     3  C   -0.177642
     4  C    0.186351
     5  C    0.275145
     6  C   -0.196402
     7  C   -0.156255
     8  C    0.355193
     9  C    0.160607
    10  C    0.285677
    11  C   -0.593614
    12  C    0.659414
    13  C   -0.664292
    14  C    0.699910
 Electronic spatial extent (au):  <R**2>=           2856.2996
 Charge=              1.0000 electrons
 Dipole moment (field-independent basis, Debye):
    X=             -0.2360    Y=              0.1860    Z=             -0.0313  Tot=              0.3021
 Quadrupole moment (field-independent basis, Debye-Ang):
   XX=            -31.1170   YY=            -56.2314   ZZ=            -84.1379
   XY=              0.1554   XZ=              0.0055   YZ=              0.0425
 Traceless Quadrupole moment (field-independent basis, Debye-Ang):
   XX=             26.0451   YY=              0.9307   ZZ=            -26.9758
   XY=              0.1554   XZ=              0.0055   YZ=              0.0425
 Octapole moment (field-independent basis, Debye-Ang**2):
  XXX=             -0.1130  YYY=              5.2021  ZZZ=              0.1729  XYY=             -2.8501
  XXY=             -5.1820  XXZ=             -2.9283  XZZ=              1.1007  YZZ=             -3.0915
  YYZ=              0.0826  XYZ=             -0.0029
 Hexadecapole moment (field-independent basis, Debye-Ang**3):
 XXXX=          -2122.6115 YYYY=           -608.7815 ZZZZ=            -99.6987 XXXY=              1.9996
 XXXZ=              0.1055 YYYX=              0.0539 YYYZ=              0.2632 ZZZX=             -0.0534
 ZZZY=             -0.1603 XXYY=           -507.5662 XXZZ=           -590.6931 YYZZ=           -145.8067
 XXYZ=              0.3671 YYXZ=              0.0654 ZZXY=              0.1706
 N-N= 7.811543498373D+02 E-N=-2.798650327476D+03  KE= 5.375120636809D+02
 Unable to Open any file for archive entry.
 1\1\GINC-GADI-CPU-CLX-0072\SP\RM062X TD-FC\6-311++G(d,p)\C14H11(1+)\TS
 1578\26-Jul-2022\0\\#n M062X/6-311++G(d,p) TD(NStates=1) EmpiricalDisp
 ersion=GD3 SP\\SP_2\\1,1\C,0,2.4927,1.3431,0.004\C,0,3.7015,0.6687,0.0
 34\C,0,3.6839,-0.6951,0.034\C,0,2.4632,-1.3749,0.004\C,0,-2.4632,-1.42
 29,0.004\C,0,-3.6839,-0.7151,0.034\C,0,-3.7015,0.6927,0.034\C,0,-2.492
 7,1.3951,0.004\C,0,0.,1.4621,-0.03\C,0,0.,-1.4205,-0.03\C,0,1.2621,0.6
 797,-0.026\C,0,1.2375,-0.7181,-0.026\C,0,-1.2621,0.6917,-0.026\C,0,-1.
 2375,-0.7261,-0.026\H,0,2.4881,2.3943,0.004\H,0,4.6368,1.1984,0.052\H,
 0,4.6093,-1.2437,0.052\H,0,2.4675,-2.4274,0.004\H,0,0.,-2.5016,-0.032\
 H,0,-2.4675,-2.5354,0.004\H,0,-4.6093,-1.2837,0.052\H,0,-4.6368,1.2424
 ,0.052\H,0,-2.4881,2.5103,0.004\H,0,0.,2.1545,-0.8896\H,0,0.,2.1545,0.
 8296\\Version=ES64L-G16RevC.01\State=1-A\HF=-539.7552058\RMSD=7.753e-0
 9\PG=C01 [X(C14H11)]\\@
 The archive entry for this job was punched.


 I DON'T EXACTLY UNDERSTAND WHAT YOU ARE SAYING,
 BUT YOU ARE ABSOLUTELY RIGHT.
     M.S.GORDON, IN A NDSU FACULTY MEETING
 Job cpu time:       0 days  1 hours  4 minutes 10.9 seconds.
 Elapsed time:       0 days  0 hours  6 minutes  4.5 seconds.
 File lengths (MBytes):  RWF=    460 Int=      0 D2E=      0 Chk=     15 Scr=      1
 Normal termination of Gaussian 16 at Tue Jul 26 18:12:46 2022.
