 Entering Gaussian System, Link 0=g16
 Initial command:
 /apps/gaussian/g16c01/g16/l1.exe "/jobfs/52716446.gadi-pbs/Gau-1296126.inp" -scrdir="/jobfs/52716446.gadi-pbs/"
 Entering Link 1 = /apps/gaussian/g16c01/g16/l1.exe PID=   1296127.
  
 Copyright (c) 1988-2019, Gaussian, Inc.  All Rights Reserved.
  
 This is part of the Gaussian(R) 16 program.  It is based on
 the Gaussian(R) 09 system (copyright 2009, Gaussian, Inc.),
 the Gaussian(R) 03 system (copyright 2003, Gaussian, Inc.),
 the Gaussian(R) 98 system (copyright 1998, Gaussian, Inc.),
 the Gaussian(R) 94 system (copyright 1995, Gaussian, Inc.),
 the Gaussian 92(TM) system (copyright 1992, Gaussian, Inc.),
 the Gaussian 90(TM) system (copyright 1990, Gaussian, Inc.),
 the Gaussian 88(TM) system (copyright 1988, Gaussian, Inc.),
 the Gaussian 86(TM) system (copyright 1986, Carnegie Mellon
 University), and the Gaussian 82(TM) system (copyright 1983,
 Carnegie Mellon University). Gaussian is a federally registered
 trademark of Gaussian, Inc.
  
 This software contains proprietary and confidential information,
 including trade secrets, belonging to Gaussian, Inc.
  
 This software is provided under written license and may be
 used, copied, transmitted, or stored only in accord with that
 written license.
  
 The following legend is applicable only to US Government
 contracts under FAR:
  
                    RESTRICTED RIGHTS LEGEND
  
 Use, reproduction and disclosure by the US Government is
 subject to restrictions as set forth in subparagraphs (a)
 and (c) of the Commercial Computer Software - Restricted
 Rights clause in FAR 52.227-19.
  
 Gaussian, Inc.
 340 Quinnipiac St., Bldg. 40, Wallingford CT 06492
  
  
 ---------------------------------------------------------------
 Warning -- This program may not be used in any manner that
 competes with the business of Gaussian, Inc. or will provide
 assistance to any competitor of Gaussian, Inc.  The licensee
 of this program is prohibited from giving any competitor of
 Gaussian, Inc. access to this program.  By using this program,
 the user acknowledges that Gaussian, Inc. is engaged in the
 business of creating and licensing software in the field of
 computational chemistry and represents and warrants to the
 licensee that it is not a competitor of Gaussian, Inc. and that
 it will not use this program in any manner prohibited above.
 ---------------------------------------------------------------
  

 Cite this work as:
 Gaussian 16, Revision C.01,
 M. J. Frisch, G. W. Trucks, H. B. Schlegel, G. E. Scuseria, 
 M. A. Robb, J. R. Cheeseman, G. Scalmani, V. Barone, 
 G. A. Petersson, H. Nakatsuji, X. Li, M. Caricato, A. V. Marenich, 
 J. Bloino, B. G. Janesko, R. Gomperts, B. Mennucci, H. P. Hratchian, 
 J. V. Ortiz, A. F. Izmaylov, J. L. Sonnenberg, D. Williams-Young, 
 F. Ding, F. Lipparini, F. Egidi, J. Goings, B. Peng, A. Petrone, 
 T. Henderson, D. Ranasinghe, V. G. Zakrzewski, J. Gao, N. Rega, 
 G. Zheng, W. Liang, M. Hada, M. Ehara, K. Toyota, R. Fukuda, 
 J. Hasegawa, M. Ishida, T. Nakajima, Y. Honda, O. Kitao, H. Nakai, 
 T. Vreven, K. Throssell, J. A. Montgomery, Jr., J. E. Peralta, 
 F. Ogliaro, M. J. Bearpark, J. J. Heyd, E. N. Brothers, K. N. Kudin, 
 V. N. Staroverov, T. A. Keith, R. Kobayashi, J. Normand, 
 K. Raghavachari, A. P. Rendell, J. C. Burant, S. S. Iyengar, 
 J. Tomasi, M. Cossi, J. M. Millam, M. Klene, C. Adamo, R. Cammi, 
 J. W. Ochterski, R. L. Martin, K. Morokuma, O. Farkas, 
 J. B. Foresman, and D. J. Fox, Gaussian, Inc., Wallingford CT, 2019.
 
 ******************************************
 Gaussian 16:  ES64L-G16RevC.01  3-Jul-2019
                26-Jul-2022 
 ******************************************
 %NProcShared=16
 Will use up to   16 processors via shared memory.
 %mem = 64GB
 ---------------------------------------------------------------
 #n M062X/6-311++G(d,p) TD(NStates=1) EmpiricalDispersion=GD3 SP
 ---------------------------------------------------------------
 1/38=1,172=1/1;
 2/12=2,17=6,18=5,40=1/2;
 3/5=4,6=6,7=1111,11=9,25=1,30=1,74=-55,124=31/1,2,3,8;
 4//1;
 5/5=2,38=5/2;
 8/6=1,10=2,108=1/1;
 9/41=1,42=1,70=2/14;
 6/7=2,8=2,9=2,10=2/1;
 99/5=1,9=1/99;
 ----
 SP_2
 ----
 Symbolic Z-matrix:
 Charge =  1 Multiplicity = 1
 C                     2.4927    1.2631    0.004 
 C                     3.7015    0.5787   -0.006 
 C                     3.6839   -0.7401   -0.046 
 C                     2.4632   -1.2749   -0.036 
 C                    -2.4632   -1.3229    0.044 
 C                    -3.6839   -0.7601    0.114 
 C                    -3.7015    0.6027    0.074 
 C                    -2.4927    1.3151    0.004 
 C                     0.        1.4221   -0.03 
 C                     0.       -1.2755   -0.03 
 C                     1.2621    0.7247    0.029 
 C                     1.2375   -0.6731   -0.031 
 C                    -1.2621    0.7367   -0.081 
 C                    -1.2375   -0.6811   -0.021 
 H                     2.4881    2.3693    0.004 
 H                     4.6368    1.1084    0.017 
 H                     4.6093   -1.2487    0.042 
 H                     2.4675   -2.3824   -0.036 
 H                     0.       -2.3766   -0.032 
 H                    -2.4675   -2.4904    0.044 
 H                    -4.6093   -1.2887    0.062 
 H                    -4.6368    1.1524    0.087 
 H                    -2.4881    2.4853    0.004 
 H                     0.        1.9345   -0.8896 
 H                     0.        1.9345    0.8296 
 
                          Input orientation:                          
 ---------------------------------------------------------------------
 Center     Atomic      Atomic             Coordinates (Angstroms)
 Number     Number       Type             X           Y           Z
 ---------------------------------------------------------------------
      1          6           0        2.492700    1.263100    0.004000
      2          6           0        3.701500    0.578700   -0.006000
      3          6           0        3.683900   -0.740100   -0.046000
      4          6           0        2.463200   -1.274900   -0.036000
      5          6           0       -2.463200   -1.322900    0.044000
      6          6           0       -3.683900   -0.760100    0.114000
      7          6           0       -3.701500    0.602700    0.074000
      8          6           0       -2.492700    1.315100    0.004000
      9          6           0        0.000000    1.422100   -0.030000
     10          6           0        0.000000   -1.275500   -0.030000
     11          6           0        1.262100    0.724700    0.029000
     12          6           0        1.237500   -0.673100   -0.031000
     13          6           0       -1.262100    0.736700   -0.081000
     14          6           0       -1.237500   -0.681100   -0.021000
     15          1           0        2.488100    2.369300    0.004000
     16          1           0        4.636800    1.108400    0.017000
     17          1           0        4.609300   -1.248700    0.042000
     18          1           0        2.467500   -2.382400   -0.036000
     19          1           0        0.000000   -2.376600   -0.032000
     20          1           0       -2.467500   -2.490400    0.044000
     21          1           0       -4.609300   -1.288700    0.062000
     22          1           0       -4.636800    1.152400    0.087000
     23          1           0       -2.488100    2.485300    0.004000
     24          1           0        0.000000    1.934500   -0.889600
     25          1           0        0.000000    1.934500    0.829600
 ---------------------------------------------------------------------
                    Distance matrix (angstroms):
                    1          2          3          4          5
     1  C    0.000000
     2  C    1.389137   0.000000
     3  C    2.331152   1.319524   0.000000
     4  C    2.538487   2.229377   1.332749   0.000000
     5  C    5.590165   6.451520   6.175321   4.927283   0.000000
     6  C    6.500448   7.506725   7.369564   6.170442   1.346013
     7  C    6.229698   7.403471   7.507439   6.445231   2.289590
     8  C    4.985671   6.237828   6.509742   5.592016   2.638468
     9  C    2.497997   3.796446   4.271590   3.652561   3.688883
    10  C    3.557977   4.140016   3.722637   2.463207   2.464767
    11  C    1.343457   2.444016   2.831321   2.333509   4.250971
    12  C    2.307731   2.763860   2.447363   1.365477   3.758064
    13  C    3.792472   4.966680   5.161887   4.233960   2.387513
    14  C    4.206534   5.097160   4.921817   3.748067   1.385089
    15  H    1.106210   2.163027   3.331787   3.644505   6.176513
    16  H    2.149713   1.075127   2.080610   3.226060   7.504795
    17  H    3.284902   2.041028   1.059615   2.147677   7.072890
    18  H    3.645807   3.208079   2.043741   1.107508   5.043882
    19  H    4.411606   4.736621   4.031060   2.698354   2.680189
    20  H    6.220446   6.890460   6.396200   5.078941   1.167508
    21  H    7.546751   8.518286   8.312027   7.073192   2.146448
    22  H    7.130842   8.358530   8.534242   7.504460   3.294464
    23  H    5.128561   6.476602   6.964143   6.217401   3.808491
    24  H    2.731822   4.039808   4.629931   4.134759   4.189226
    25  H    2.710341   4.029581   4.635869   4.137253   4.158747
                    6          7          8          9         10
     6  C    0.000000
     7  C    1.363500   0.000000
     8  C    2.395311   1.404853   0.000000
     9  C    4.284140   3.792537   2.495227   0.000000
    10  C    3.722565   4.152054   3.595263   2.697600   0.000000
    11  C    5.164763   4.965303   3.801016   1.443172   2.365835
    12  C    4.924304   5.102197   4.227122   2.433366   1.376333
    13  C    2.853691   2.447990   1.362405   1.437105   2.375804
    14  C    2.451395   2.780011   2.358170   2.440274   1.372880
    15  H    6.920898   6.437152   5.091140   2.662515   4.413203
    16  H    8.528467   8.353815   7.132508   4.647637   5.213933
    17  H    8.307893   8.514582   7.550690   5.327664   4.609940
    18  H    6.363496   6.854158   6.186816   4.534624   2.704407
    19  H    4.025606   4.752743   4.454604   3.798701   1.101102
    20  H    2.116239   3.330304   3.805794   4.626196   2.751366
    21  H    1.066999   2.098008   3.356059   5.348135   4.610237
    22  H    2.136915   1.084954   2.151865   4.646110   5.235294
    23  H    3.460442   2.240853   1.170209   2.705955   4.509480
    24  H    4.673243   4.050101   2.719509   1.000733   3.323103
    25  H    4.619964   4.005712   2.697930   1.000733   3.323103
                   11         12         13         14         15
    11  C    0.000000
    12  C    1.399303   0.000000
    13  C    2.526624   2.870198   0.000000
    14  C    2.868235   2.475033   1.419282   0.000000
    15  H    2.051441   3.289593   4.091040   4.815149   0.000000
    16  H    3.396464   3.838136   5.911412   6.140941   2.491375
    17  H    3.885643   3.421356   6.199216   5.874624   4.194146
    18  H    3.333359   2.105856   4.862173   4.076968   4.751913
    19  H    3.348832   2.105545   3.359752   2.099106   5.358685
    20  H    4.924125   4.127376   3.447142   2.188765   6.940912
    21  H    6.207109   5.879854   3.914900   3.427113   7.984824
    22  H    5.914669   6.152542   3.404355   3.863758   7.228550
    23  H    4.142987   4.884343   2.137265   3.404514   4.977552
    24  H    1.974927   3.011342   1.918712   3.021132   2.679219
    25  H    1.922881   3.011912   1.963877   3.016006   2.657312
                   16         17         18         19         20
    16  H    0.000000
    17  H    2.357393   0.000000
    18  H    4.110274   2.424596   0.000000
    19  H    5.800650   4.745870   2.467510   0.000000
    20  H    7.963866   7.184909   4.936830   2.471292   0.000000
    21  H    9.551884   9.218708   7.161486   4.736878   2.455955
    22  H    9.273969   9.552888   7.936058   5.828200   4.240012
    23  H    7.256736   8.019806   6.946515   5.461686   4.975903
    24  H    4.796278   5.678581   5.045078   4.395573   5.151690
    25  H    4.779401   5.656741   5.047122   4.396355   5.126935
                   21         22         23         24         25
    21  H    0.000000
    22  H    2.441383   0.000000
    23  H    4.329657   2.529906   0.000000
    24  H    5.704402   4.802639   2.700471   0.000000
    25  H    5.676608   4.760572   2.678738   1.719200   0.000000
 Stoichiometry    C14H11(1+)
 Framework group  C1[X(C14H11)]
 Deg. of freedom    69
 Full point group                 C1      NOp   1
 Largest Abelian subgroup         C1      NOp   1
 Largest concise Abelian subgroup C1      NOp   1
                         Standard orientation:                         
 ---------------------------------------------------------------------
 Center     Atomic      Atomic             Coordinates (Angstroms)
 Number     Number       Type             X           Y           Z
 ---------------------------------------------------------------------
      1          6           0        2.491949   -1.256954   -0.030762
      2          6           0        3.701107   -0.573115   -0.032109
      3          6           0        3.684532    0.745632    0.010045
      4          6           0        2.464043    1.280996    0.013341
      5          6           0       -2.462895    1.331337   -0.016163
      6          6           0       -3.684509    0.769193   -0.074509
      7          6           0       -3.702334   -0.593657   -0.036373
      8          6           0       -2.493213   -1.306707    0.020184
      9          6           0       -0.000346   -1.414881    0.028510
     10          6           0        0.000911    1.282716    0.032552
     11          6           0        1.261409   -0.717962   -0.042359
     12          6           0        1.238076    0.679757    0.019984
     13          6           0       -1.261538   -0.728990    0.093451
     14          6           0       -1.236893    0.688888    0.035327
     15          1           0        2.486834   -2.363150   -0.032373
     16          1           0        4.635876   -1.103201   -0.065474
     17          1           0        4.609220    1.253946   -0.086659
     18          1           0        2.468859    2.388493    0.014956
     19          1           0        0.001445    2.383811    0.036202
     20          1           0       -2.466650    2.498838   -0.014369
     21          1           0       -4.609082    1.298131   -0.012248
     22          1           0       -4.637974   -1.142916   -0.040624
     23          1           0       -2.489159   -2.476907    0.018383
     24          1           0        0.008212   -1.928573    0.887296
     25          1           0       -0.009382   -1.925988   -0.831812
 ---------------------------------------------------------------------
 Rotational constants (GHZ):           2.3549602           0.4444488           0.3748806
 Standard basis: 6-311++G(d,p) (5D, 7F)
 There are   399 symmetry adapted cartesian basis functions of A   symmetry.
 There are   385 symmetry adapted basis functions of A   symmetry.
   385 basis functions,   603 primitive gaussians,   399 cartesian basis functions
    47 alpha electrons       47 beta electrons
       nuclear repulsion energy       795.2881024784 Hartrees.
 NAtoms=   25 NActive=   25 NUniq=   25 SFac= 1.00D+00 NAtFMM=   60 NAOKFM=F Big=F
 Integral buffers will be    131072 words long.
 Regular integral format.
 Two-electron integral symmetry is turned on.
 Nuclear repulsion after empirical dispersion term =      795.2871494057 Hartrees.
 One-electron integrals computed using PRISM.
 NBasis=   385 RedAO= T EigKep=  1.11D-06  NBF=   385
 NBsUse=   380 1.00D-06 EigRej=  7.06D-07 NBFU=   380
 ExpMin= 3.60D-02 ExpMax= 4.56D+03 ExpMxC= 6.82D+02 IAcc=3 IRadAn=         5 AccDes= 0.00D+00
 Harris functional with IExCor= 1009 and IRadAn=       5 diagonalized for initial guess.
 HarFok:  IExCor= 1009 AccDes= 0.00D+00 IRadAn=         5 IDoV= 1 UseB2=F ITyADJ=14
 ICtDFT=  3500011 ScaDFX=  1.000000  1.000000  1.000000  1.000000
 FoFCou: FMM=F IPFlag=           0 FMFlag=      100000 FMFlg1=           0
         NFxFlg=           0 DoJE=T BraDBF=F KetDBF=T FulRan=T
         wScrn=  0.000000 ICntrl=       500 IOpCl=  0 I1Cent=   200000004 NGrid=           0
         NMat0=    1 NMatS0=      1 NMatT0=    0 NMatD0=    1 NMtDS0=    0 NMtDT0=    0
 Petite list used in FoFCou.
 Requested convergence on RMS density matrix=1.00D-08 within 128 cycles.
 Requested convergence on MAX density matrix=1.00D-06.
 Requested convergence on             energy=1.00D-06.
 No special actions if energy rises.
 SCF Done:  E(RM062X) =  -539.684375662     A.U. after   15 cycles
            NFock= 15  Conv=0.99D-08     -V/T= 2.0013
 DoSCS=F DFT=T ScalE2(SS,OS)=  1.000000  1.000000
 ExpMin= 3.60D-02 ExpMax= 4.56D+03 ExpMxC= 6.82D+02 IAcc=3 IRadAn=         5 AccDes= 0.00D+00
 HarFok:  IExCor=  205 AccDes= 0.00D+00 IRadAn=         5 IDoV=-2 UseB2=F ITyADJ=14
 ICtDFT= 12500011 ScaDFX=  1.000000  1.000000  1.000000  1.000000
 Range of M.O.s used for correlation:    15   380
 NBasis=   385 NAE=    47 NBE=    47 NFC=    14 NFV=     0
 NROrb=    366 NOA=    33 NOB=    33 NVA=   333 NVB=   333

 **** Warning!!: The largest alpha MO coefficient is  0.17472560D+03

 Orbital symmetries:
       Occupied  (A) (A) (A) (A) (A) (A) (A) (A) (A) (A) (A) (A)
                 (A) (A) (A) (A) (A) (A) (A) (A) (A) (A) (A) (A)
                 (A) (A) (A) (A) (A) (A) (A) (A) (A) (A) (A) (A)
                 (A) (A) (A) (A) (A) (A) (A) (A) (A) (A) (A)
       Virtual   (A) (A) (A) (A) (A) (A) (A) (A) (A) (A) (A) (A)
                 (A) (A) (A) (A) (A) (A) (A) (A) (A) (A) (A) (A)
                 (A) (A) (A) (A) (A) (A) (A) (A) (A) (A) (A) (A)
                 (A) (A) (A) (A) (A) (A) (A) (A) (A) (A) (A) (A)
                 (A) (A) (A) (A) (A) (A) (A) (A) (A) (A) (A) (A)
                 (A) (A) (A) (A) (A) (A) (A) (A) (A) (A) (A) (A)
                 (A) (A) (A) (A) (A) (A) (A) (A) (A) (A) (A) (A)
                 (A) (A) (A) (A) (A) (A) (A) (A) (A) (A) (A) (A)
                 (A) (A) (A) (A) (A) (A) (A) (A) (A) (A) (A) (A)
                 (A) (A) (A) (A) (A) (A) (A) (A) (A) (A) (A) (A)
                 (A) (A) (A) (A) (A) (A) (A) (A) (A) (A) (A) (A)
                 (A) (A) (A) (A) (A) (A) (A) (A) (A) (A) (A) (A)
                 (A) (A) (A) (A) (A) (A) (A) (A) (A) (A) (A) (A)
                 (A) (A) (A) (A) (A) (A) (A) (A) (A) (A) (A) (A)
                 (A) (A) (A) (A) (A) (A) (A) (A) (A) (A) (A) (A)
                 (A) (A) (A) (A) (A) (A) (A) (A) (A) (A) (A) (A)
                 (A) (A) (A) (A) (A) (A) (A) (A) (A) (A) (A) (A)
                 (A) (A) (A) (A) (A) (A) (A) (A) (A) (A) (A) (A)
                 (A) (A) (A) (A) (A) (A) (A) (A) (A) (A) (A) (A)
                 (A) (A) (A) (A) (A) (A) (A) (A) (A) (A) (A) (A)
                 (A) (A) (A) (A) (A) (A) (A) (A) (A) (A) (A) (A)
                 (A) (A) (A) (A) (A) (A) (A) (A) (A) (A) (A) (A)
                 (A) (A) (A) (A) (A) (A) (A) (A) (A) (A) (A) (A)
                 (A) (A) (A) (A) (A) (A) (A) (A) (A) (A) (A) (A)
                 (A) (A) (A) (A) (A) (A) (A) (A) (A) (A) (A) (A)
                 (A) (A) (A) (A) (A) (A) (A) (A) (A) (A) (A) (A)
                 (A) (A) (A) (A) (A) (A) (A) (A) (A) (A) (A) (A)
                 (A) (A) (A) (A) (A) (A) (A) (A) (A)
     4 initial guesses have been made.
 Convergence on wavefunction:    0.001000000000000
 Iteration     1 Dimension     4 NMult     0 NNew      4
 CISAX will form     4 AO SS matrices at one time.
 Iteration     2 Dimension     6 NMult     4 NNew      2
 Iteration     3 Dimension     8 NMult     6 NNew      2
 Iteration     4 Dimension    10 NMult     8 NNew      2
 Iteration     5 Dimension    12 NMult    10 NNew      2
 Iteration     6 Dimension    14 NMult    12 NNew      2
 ***********************************************************************
 Excited states from <AA,BB:AA,BB> singles matrix:
 ***********************************************************************
 
 Ground to excited state transition densities written to RWF  633
 Ground to excited state transition electric dipole moments (Au):
       state          X           Y           Z        Dip. S.      Osc.
         1        -0.1971     -0.5834      0.0119      0.3793      0.0296
 Ground to excited state transition velocity dipole moments (Au):
       state          X           Y           Z        Dip. S.      Osc.
         1         0.0234      0.0763     -0.0014      0.0064      0.0363
 Ground to excited state transition magnetic dipole moments (Au):
       state          X           Y           Z
         1         0.0218     -0.0247     -0.1246
 Ground to excited state transition velocity quadrupole moments (Au):
       state          XX          YY          ZZ          XY          XZ          YZ
         1         0.3298      0.0481     -0.0076     -0.0062      0.0081      0.0046
 <0|del|b> * <b|rxdel|0> + <0|del|b> * <b|delr+rdel|0>
 Rotatory Strengths (R) in cgs (10**-40 erg-esu-cm/Gauss)
       state          XX          YY          ZZ    R(velocity)    E-M Angle
         1        -7.0010      2.3610     -2.6074     -2.4158       96.70
 1/2[<0|r|b>*<b|rxdel|0> + (<0|rxdel|b>*<b|r|0>)*]
 Rotatory Strengths (R) in cgs (10**-40 erg-esu-cm/Gauss)
       state          XX          YY          ZZ     R(length)
         1         3.0441    -10.1710      1.0472     -2.0266
  1/2[<0|del|b>*<b|r|0> + (<0|r|b>*<b|del|0>)*] (Au)
       state          X           Y           Z        Dip. S.   Osc.(frdel)
         1        -0.0046     -0.0445     -0.0000      0.0492      0.0328

 Excitation energies and oscillator strengths:
 
 Excited State   1:      Singlet-A      3.1867 eV  389.07 nm  f=0.0296  <S**2>=0.000
      46 -> 48        -0.17652
      47 -> 48         0.68095
 This state for optimization and/or second-order correction.
 Total Energy, E(TD-HF/TD-DFT) =  -539.567268112    
 Copying the excited state density for this state as the 1-particle RhoCI density.
 SavETr:  write IOETrn=   770 NScale= 10 NData=  16 NLR=1 NState=    1 LETran=      28.

 **********************************************************************

            Population analysis using the SCF Density.

 **********************************************************************

 Orbital symmetries:
       Occupied  (A) (A) (A) (A) (A) (A) (A) (A) (A) (A) (A) (A)
                 (A) (A) (A) (A) (A) (A) (A) (A) (A) (A) (A) (A)
                 (A) (A) (A) (A) (A) (A) (A) (A) (A) (A) (A) (A)
                 (A) (A) (A) (A) (A) (A) (A) (A) (A) (A) (A)
       Virtual   (A) (A) (A) (A) (A) (A) (A) (A) (A) (A) (A) (A)
                 (A) (A) (A) (A) (A) (A) (A) (A) (A) (A) (A) (A)
                 (A) (A) (A) (A) (A) (A) (A) (A) (A) (A) (A) (A)
                 (A) (A) (A) (A) (A) (A) (A) (A) (A) (A) (A) (A)
                 (A) (A) (A) (A) (A) (A) (A) (A) (A) (A) (A) (A)
                 (A) (A) (A) (A) (A) (A) (A) (A) (A) (A) (A) (A)
                 (A) (A) (A) (A) (A) (A) (A) (A) (A) (A) (A) (A)
                 (A) (A) (A) (A) (A) (A) (A) (A) (A) (A) (A) (A)
                 (A) (A) (A) (A) (A) (A) (A) (A) (A) (A) (A) (A)
                 (A) (A) (A) (A) (A) (A) (A) (A) (A) (A) (A) (A)
                 (A) (A) (A) (A) (A) (A) (A) (A) (A) (A) (A) (A)
                 (A) (A) (A) (A) (A) (A) (A) (A) (A) (A) (A) (A)
                 (A) (A) (A) (A) (A) (A) (A) (A) (A) (A) (A) (A)
                 (A) (A) (A) (A) (A) (A) (A) (A) (A) (A) (A) (A)
                 (A) (A) (A) (A) (A) (A) (A) (A) (A) (A) (A) (A)
                 (A) (A) (A) (A) (A) (A) (A) (A) (A) (A) (A) (A)
                 (A) (A) (A) (A) (A) (A) (A) (A) (A) (A) (A) (A)
                 (A) (A) (A) (A) (A) (A) (A) (A) (A) (A) (A) (A)
                 (A) (A) (A) (A) (A) (A) (A) (A) (A) (A) (A) (A)
                 (A) (A) (A) (A) (A) (A) (A) (A) (A) (A) (A) (A)
                 (A) (A) (A) (A) (A) (A) (A) (A) (A) (A) (A) (A)
                 (A) (A) (A) (A) (A) (A) (A) (A) (A) (A) (A) (A)
                 (A) (A) (A) (A) (A) (A) (A) (A) (A) (A) (A) (A)
                 (A) (A) (A) (A) (A) (A) (A) (A) (A) (A) (A) (A)
                 (A) (A) (A) (A) (A) (A) (A) (A) (A) (A) (A) (A)
                 (A) (A) (A) (A) (A) (A) (A) (A) (A) (A) (A) (A)
                 (A) (A) (A) (A) (A) (A) (A) (A) (A) (A) (A) (A)
                 (A) (A) (A) (A) (A) (A) (A) (A) (A)
 The electronic state is 1-A.
 Alpha  occ. eigenvalues --  -10.76364 -10.72625 -10.71910 -10.71830 -10.71684
 Alpha  occ. eigenvalues --  -10.71658 -10.71227 -10.70645 -10.70403 -10.70350
 Alpha  occ. eigenvalues --  -10.69293 -10.68952 -10.68524 -10.68198  -1.18533
 Alpha  occ. eigenvalues --   -1.14638  -1.09397  -1.07244  -1.02879  -1.01208
 Alpha  occ. eigenvalues --   -0.96760  -0.93119  -0.87252  -0.85815  -0.83751
 Alpha  occ. eigenvalues --   -0.79683  -0.77653  -0.74194  -0.73073  -0.72000
 Alpha  occ. eigenvalues --   -0.69515  -0.68567  -0.67035  -0.66255  -0.62588
 Alpha  occ. eigenvalues --   -0.62221  -0.61798  -0.61580  -0.60922  -0.59934
 Alpha  occ. eigenvalues --   -0.57417  -0.54940  -0.53429  -0.51877  -0.48212
 Alpha  occ. eigenvalues --   -0.46211  -0.45732
 Alpha virt. eigenvalues --   -0.25817  -0.14488  -0.13153  -0.11829  -0.11171
 Alpha virt. eigenvalues --   -0.09848  -0.09424  -0.08294  -0.08125  -0.07435
 Alpha virt. eigenvalues --   -0.07178  -0.06784  -0.05653  -0.05491  -0.05148
 Alpha virt. eigenvalues --   -0.04167  -0.04034  -0.03113  -0.02954  -0.01985
 Alpha virt. eigenvalues --   -0.01863  -0.00849   0.00279   0.00496   0.00598
 Alpha virt. eigenvalues --    0.01287   0.01343   0.01972   0.02183   0.02329
 Alpha virt. eigenvalues --    0.02618   0.02943   0.03080   0.03179   0.03369
 Alpha virt. eigenvalues --    0.04209   0.04405   0.04658   0.05100   0.05354
 Alpha virt. eigenvalues --    0.05944   0.06283   0.06464   0.06539   0.07424
 Alpha virt. eigenvalues --    0.07577   0.08193   0.08477   0.08841   0.09213
 Alpha virt. eigenvalues --    0.09481   0.09645   0.10088   0.10113   0.10785
 Alpha virt. eigenvalues --    0.11547   0.11839   0.12279   0.12427   0.12737
 Alpha virt. eigenvalues --    0.13098   0.13690   0.13857   0.14888   0.14940
 Alpha virt. eigenvalues --    0.15949   0.16471   0.17797   0.18041   0.18388
 Alpha virt. eigenvalues --    0.18846   0.19301   0.19697   0.19963   0.20156
 Alpha virt. eigenvalues --    0.20879   0.21708   0.21977   0.23164   0.23498
 Alpha virt. eigenvalues --    0.24270   0.24646   0.25473   0.26168   0.28313
 Alpha virt. eigenvalues --    0.28751   0.29513   0.29557   0.32705   0.33009
 Alpha virt. eigenvalues --    0.38179   0.38558   0.39016   0.39397   0.40459
 Alpha virt. eigenvalues --    0.41473   0.42120   0.42417   0.43683   0.44125
 Alpha virt. eigenvalues --    0.44801   0.45224   0.45954   0.47344   0.47723
 Alpha virt. eigenvalues --    0.48117   0.48520   0.49218   0.50258   0.50877
 Alpha virt. eigenvalues --    0.50986   0.51445   0.52134   0.52871   0.53168
 Alpha virt. eigenvalues --    0.53503   0.53889   0.56110   0.56335   0.56460
 Alpha virt. eigenvalues --    0.58470   0.59061   0.60232   0.61813   0.62232
 Alpha virt. eigenvalues --    0.63672   0.64070   0.64241   0.66250   0.67345
 Alpha virt. eigenvalues --    0.67577   0.68516   0.70496   0.71614   0.71932
 Alpha virt. eigenvalues --    0.72998   0.74325   0.75456   0.76160   0.76346
 Alpha virt. eigenvalues --    0.77279   0.77440   0.78461   0.78574   0.79314
 Alpha virt. eigenvalues --    0.81050   0.82157   0.82326   0.82780   0.83904
 Alpha virt. eigenvalues --    0.84410   0.85293   0.86176   0.88206   0.88315
 Alpha virt. eigenvalues --    0.89801   0.91910   0.93549   0.95621   0.96074
 Alpha virt. eigenvalues --    0.97349   0.98215   0.99351   1.01068   1.03340
 Alpha virt. eigenvalues --    1.04287   1.04836   1.06383   1.07830   1.08696
 Alpha virt. eigenvalues --    1.12568   1.22740   1.23948   1.25270   1.29128
 Alpha virt. eigenvalues --    1.30692   1.31554   1.33576   1.33738   1.35280
 Alpha virt. eigenvalues --    1.36010   1.37681   1.42738   1.43669   1.43781
 Alpha virt. eigenvalues --    1.45193   1.45519   1.47863   1.48181   1.49129
 Alpha virt. eigenvalues --    1.49488   1.50834   1.51123   1.53729   1.56047
 Alpha virt. eigenvalues --    1.56823   1.57673   1.58952   1.59889   1.60053
 Alpha virt. eigenvalues --    1.61629   1.62322   1.63083   1.63573   1.66451
 Alpha virt. eigenvalues --    1.67391   1.68518   1.71388   1.72700   1.73874
 Alpha virt. eigenvalues --    1.76990   1.78352   1.79263   1.80982   1.82799
 Alpha virt. eigenvalues --    1.83586   1.84513   1.85235   1.85645   1.86036
 Alpha virt. eigenvalues --    1.86556   1.86860   1.88272   1.88989   1.91429
 Alpha virt. eigenvalues --    1.93557   1.93594   1.96153   1.97320   1.99633
 Alpha virt. eigenvalues --    2.03125   2.03616   2.06623   2.09095   2.12058
 Alpha virt. eigenvalues --    2.12574   2.15938   2.17458   2.18494   2.24450
 Alpha virt. eigenvalues --    2.26310   2.27513   2.28856   2.31162   2.34403
 Alpha virt. eigenvalues --    2.36045   2.39060   2.39347   2.42683   2.43088
 Alpha virt. eigenvalues --    2.44790   2.47265   2.52142   2.53482   2.57220
 Alpha virt. eigenvalues --    2.57337   2.58816   2.59596   2.60022   2.60342
 Alpha virt. eigenvalues --    2.61593   2.61943   2.62958   2.64510   2.65754
 Alpha virt. eigenvalues --    2.65986   2.66569   2.67521   2.67734   2.68513
 Alpha virt. eigenvalues --    2.69552   2.71860   2.74703   2.76621   2.77522
 Alpha virt. eigenvalues --    2.78037   2.80507   2.81307   2.81935   2.85536
 Alpha virt. eigenvalues --    2.85957   2.89928   2.95129   2.95555   2.96816
 Alpha virt. eigenvalues --    3.02056   3.04232   3.08219   3.12105   3.17489
 Alpha virt. eigenvalues --    3.23051   3.29065   3.30106   3.32488   3.34738
 Alpha virt. eigenvalues --    3.36821   3.39220   3.41557   3.43715   3.47397
 Alpha virt. eigenvalues --    3.51623   3.53466   3.57044   3.58748   3.64676
 Alpha virt. eigenvalues --    3.69189   3.87770   3.90643   3.94209   3.95612
 Alpha virt. eigenvalues --    3.98625   4.01205   4.03607   4.07040   4.11722
 Alpha virt. eigenvalues --    4.38997   4.68990   4.71326   4.75770  23.41227
 Alpha virt. eigenvalues --   23.59560  23.83196  23.86703  23.90883  23.99878
 Alpha virt. eigenvalues --   24.03524  24.07726  24.09350  24.12969  24.15128
 Alpha virt. eigenvalues --   24.19033  24.21098  24.34071
          Condensed to atoms (all electrons):
               1          2          3          4          5          6
     1  C   17.394569  -0.175525  -2.124383   2.495957   0.706764   0.013022
     2  C   -0.175525   6.902283   0.779107  -0.553374  -0.083437  -0.018802
     3  C   -2.124383   0.779107   7.836746  -0.131416  -0.273927   0.007484
     4  C    2.495957  -0.553374  -0.131416  12.034081  -0.455093  -0.173969
     5  C    0.706764  -0.083437  -0.273927  -0.455093  12.063080   0.233123
     6  C    0.013022  -0.018802   0.007484  -0.173969   0.233123   7.365390
     7  C    0.029354   0.011792  -0.023193  -0.135322  -0.432640   0.580105
     8  C   -0.495983   0.026464   0.026530   0.432637   1.743359  -1.673537
     9  C   -2.254845  -0.313007   0.479208  -1.755367  -1.491188   0.344703
    10  C   -1.775706  -0.097290  -0.878836  -3.082236  -3.519733  -0.805129
    11  C   -3.848043  -0.623808   1.654207  -0.565538  -0.562584   0.113666
    12  C   -6.619499   0.673013  -0.440116   0.974512  -2.974782  -0.733388
    13  C   -0.659477  -0.029153   0.080646  -0.950854  -0.106572   1.425524
    14  C    2.673822  -0.435044  -0.869257  -2.558597   0.681765  -0.575395
    15  H    0.367245  -0.035602  -0.024150   0.019321   0.005187   0.000902
    16  H   -0.008529   0.387826  -0.014681   0.029473  -0.001182  -0.000195
    17  H   -0.092619  -0.008017   0.445659  -0.098889  -0.004367  -0.000092
    18  H    0.120735  -0.030652  -0.147345   0.443666   0.030784  -0.001011
    19  H   -0.099384  -0.003968   0.066753  -0.075031  -0.093458   0.050574
    20  H    0.009298   0.000933  -0.003124   0.018636   0.406821  -0.120399
    21  H    0.001459  -0.000154   0.000056  -0.003026  -0.090971   0.432031
    22  H    0.000709   0.000221  -0.000333  -0.002086   0.028516  -0.015566
    23  H    0.016028  -0.000591   0.001036   0.005726   0.008565  -0.018516
    24  H    0.272910   0.022486  -0.012816  -0.033868   0.012764   0.007034
    25  H   -0.042647   0.035348   0.006387   0.013406  -0.022444  -0.010475
               7          8          9         10         11         12
     1  C    0.029354  -0.495983  -2.254845  -1.775706  -3.848043  -6.619499
     2  C    0.011792   0.026464  -0.313007  -0.097290  -0.623808   0.673013
     3  C   -0.023193   0.026530   0.479208  -0.878836   1.654207  -0.440116
     4  C   -0.135322   0.432637  -1.755367  -3.082236  -0.565538   0.974512
     5  C   -0.432640   1.743359  -1.491188  -3.519733  -0.562584  -2.974782
     6  C    0.580105  -1.673537   0.344703  -0.805129   0.113666  -0.733388
     7  C    6.883055  -0.359037  -0.263284  -0.139584  -0.092941  -0.531272
     8  C   -0.359037  13.906392  -0.193454  -0.946073  -0.634405   2.013126
     9  C   -0.263284  -0.193454  12.645422   1.045961   1.342531  -1.885491
    10  C   -0.139584  -0.946073   1.045961  13.063883  -2.169764   3.620766
    11  C   -0.092941  -0.634405   1.342531  -2.169764  16.172235  -1.142234
    12  C   -0.531272   2.013126  -1.885491   3.620766  -1.142234  22.449492
    13  C   -0.203977  -3.135897   1.717206  -1.570795  -1.432975  -2.370135
    14  C    0.776911  -5.240709  -3.887856   2.633724  -1.402359  -7.401036
    15  H   -0.001334   0.014917   0.032280   0.001543  -0.097843   0.052629
    16  H    0.000068  -0.000543  -0.002521  -0.019929   0.002227  -0.026608
    17  H   -0.000183   0.001792   0.003051   0.010996   0.019173   0.086533
    18  H    0.000640   0.003848  -0.053266   0.098994  -0.029513  -0.110406
    19  H   -0.002921  -0.068506   0.134324   0.431931   0.039290  -0.034635
    20  H   -0.023861   0.085292  -0.037418   0.103002  -0.020652   0.014975
    21  H   -0.020490  -0.071584  -0.000322   0.016299   0.007810  -0.008226
    22  H    0.382122  -0.011867   0.003867  -0.019397  -0.000130  -0.011337
    23  H   -0.039801   0.356210   0.050786   0.004539  -0.003367   0.005852
    24  H    0.034684  -0.109760   0.334129  -0.025217  -0.039221  -0.246849
    25  H    0.018495   0.234398   0.374717  -0.028258  -0.056824   0.080037
              13         14         15         16         17         18
     1  C   -0.659477   2.673822   0.367245  -0.008529  -0.092619   0.120735
     2  C   -0.029153  -0.435044  -0.035602   0.387826  -0.008017  -0.030652
     3  C    0.080646  -0.869257  -0.024150  -0.014681   0.445659  -0.147345
     4  C   -0.950854  -2.558597   0.019321   0.029473  -0.098889   0.443666
     5  C   -0.106572   0.681765   0.005187  -0.001182  -0.004367   0.030784
     6  C    1.425524  -0.575395   0.000902  -0.000195  -0.000092  -0.001011
     7  C   -0.203977   0.776911  -0.001334   0.000068  -0.000183   0.000640
     8  C   -3.135897  -5.240709   0.014917  -0.000543   0.001792   0.003848
     9  C    1.717206  -3.887856   0.032280  -0.002521   0.003051  -0.053266
    10  C   -1.570795   2.633724   0.001543  -0.019929   0.010996   0.098994
    11  C   -1.432975  -1.402359  -0.097843   0.002227   0.019173  -0.029513
    12  C   -2.370135  -7.401036   0.052629  -0.026608   0.086533  -0.110406
    13  C   15.263521  -1.144560  -0.012317   0.000335   0.006898  -0.033860
    14  C   -1.144560  22.067363   0.001513  -0.006886  -0.014230   0.034158
    15  H   -0.012317   0.001513   0.443672  -0.007813   0.000968   0.000508
    16  H    0.000335  -0.006886  -0.007813   0.421245  -0.008332   0.001406
    17  H    0.006898  -0.014230   0.000968  -0.008332   0.440989  -0.010698
    18  H   -0.033860   0.034158   0.000508   0.001406  -0.010698   0.456417
    19  H    0.042923  -0.025934  -0.000033  -0.000649   0.001703  -0.003431
    20  H   -0.023974  -0.095010  -0.000096  -0.000004  -0.000077   0.000742
    21  H    0.011488   0.082019   0.000005  -0.000002   0.000004  -0.000077
    22  H    0.007034  -0.023940  -0.000086   0.000001  -0.000004  -0.000004
    23  H   -0.102410   0.026755   0.000434  -0.000048   0.000005  -0.000093
    24  H   -0.010282   0.124532   0.002676   0.000223  -0.000113   0.000346
    25  H   -0.064320  -0.207026  -0.000746   0.000515  -0.000274   0.001056
              19         20         21         22         23         24
     1  C   -0.099384   0.009298   0.001459   0.000709   0.016028   0.272910
     2  C   -0.003968   0.000933  -0.000154   0.000221  -0.000591   0.022486
     3  C    0.066753  -0.003124   0.000056  -0.000333   0.001036  -0.012816
     4  C   -0.075031   0.018636  -0.003026  -0.002086   0.005726  -0.033868
     5  C   -0.093458   0.406821  -0.090971   0.028516   0.008565   0.012764
     6  C    0.050574  -0.120399   0.432031  -0.015566  -0.018516   0.007034
     7  C   -0.002921  -0.023861  -0.020490   0.382122  -0.039801   0.034684
     8  C   -0.068506   0.085292  -0.071584  -0.011867   0.356210  -0.109760
     9  C    0.134324  -0.037418  -0.000322   0.003867   0.050786   0.334129
    10  C    0.431931   0.103002   0.016299  -0.019397   0.004539  -0.025217
    11  C    0.039290  -0.020652   0.007810  -0.000130  -0.003367  -0.039221
    12  C   -0.034635   0.014975  -0.008226  -0.011337   0.005852  -0.246849
    13  C    0.042923  -0.023974   0.011488   0.007034  -0.102410  -0.010282
    14  C   -0.025934  -0.095010   0.082019  -0.023940   0.026755   0.124532
    15  H   -0.000033  -0.000096   0.000005  -0.000086   0.000434   0.002676
    16  H   -0.000649  -0.000004  -0.000002   0.000001  -0.000048   0.000223
    17  H    0.001703  -0.000077   0.000004  -0.000004   0.000005  -0.000113
    18  H   -0.003431   0.000742  -0.000077  -0.000004  -0.000093   0.000346
    19  H    0.461105  -0.002128   0.001873  -0.000562   0.000178  -0.000075
    20  H   -0.002128   0.441947  -0.009301   0.001475   0.000356   0.000686
    21  H    0.001873  -0.009301   0.436379  -0.007411   0.000773  -0.000199
    22  H   -0.000562   0.001475  -0.007411   0.413449  -0.006548   0.000667
    23  H    0.000178   0.000356   0.000773  -0.006548   0.432462  -0.001194
    24  H   -0.000075   0.000686  -0.000199   0.000667  -0.001194   0.456742
    25  H   -0.000797   0.000353  -0.000077   0.000354   0.003050  -0.015843
              25
     1  C   -0.042647
     2  C    0.035348
     3  C    0.006387
     4  C    0.013406
     5  C   -0.022444
     6  C   -0.010475
     7  C    0.018495
     8  C    0.234398
     9  C    0.374717
    10  C   -0.028258
    11  C   -0.056824
    12  C    0.080037
    13  C   -0.064320
    14  C   -0.207026
    15  H   -0.000746
    16  H    0.000515
    17  H   -0.000274
    18  H    0.001056
    19  H   -0.000797
    20  H    0.000353
    21  H   -0.000077
    22  H    0.000354
    23  H    0.003050
    24  H   -0.015843
    25  H    0.457715
 Mulliken charges:
               1
     1  C    0.094765
     2  C   -0.431050
     3  C   -0.440243
     4  C    0.107251
     5  C    0.191653
     6  C   -0.427083
     7  C   -0.447386
     8  C    0.096387
     9  C   -0.370163
    10  C    0.046309
    11  C   -0.628940
    12  C    0.565077
    13  C   -0.704014
    14  C    0.785275
    15  H    0.236218
    16  H    0.254603
    17  H    0.220124
    18  H    0.227054
    19  H    0.180858
    20  H    0.251528
    21  H    0.221646
    22  H    0.260855
    23  H    0.259813
    24  H    0.225558
    25  H    0.223902
 Sum of Mulliken charges =   1.00000
 Mulliken charges with hydrogens summed into heavy atoms:
               1
     1  C    0.330983
     2  C   -0.176447
     3  C   -0.220119
     4  C    0.334305
     5  C    0.443181
     6  C   -0.205437
     7  C   -0.186530
     8  C    0.356200
     9  C    0.079297
    10  C    0.227167
    11  C   -0.628940
    12  C    0.565077
    13  C   -0.704014
    14  C    0.785275
 Electronic spatial extent (au):  <R**2>=           2810.1869
 Charge=              1.0000 electrons
 Dipole moment (field-independent basis, Debye):
    X=             -0.2404    Y=              0.3667    Z=             -0.0353  Tot=              0.4399
 Quadrupole moment (field-independent basis, Debye-Ang):
   XX=            -27.2303   YY=            -60.8262   ZZ=            -82.5923
   XY=              0.1371   XZ=             -0.5695   YZ=              0.0253
 Traceless Quadrupole moment (field-independent basis, Debye-Ang):
   XX=             29.6526   YY=             -3.9433   ZZ=            -25.7094
   XY=              0.1371   XZ=             -0.5695   YZ=              0.0253
 Octapole moment (field-independent basis, Debye-Ang**2):
  XXX=             -0.7872  YYY=              5.5024  ZZZ=              0.1745  XYY=             -2.6366
  XXY=              2.0663  XXZ=             -3.0218  XZZ=              1.1783  YZZ=             -2.9650
  YYZ=              0.0541  XYZ=             -0.5197
 Hexadecapole moment (field-independent basis, Debye-Ang**3):
 XXXX=          -2024.6957 YYYY=           -592.1755 ZZZZ=            -95.8773 XXXY=              1.4414
 XXXZ=            -14.1649 YYYX=             -0.0542 YYYZ=              0.2366 ZZZX=             -0.5621
 ZZZY=             -0.2282 XXYY=           -512.2495 XXZZ=           -579.6230 YYZZ=           -135.7653
 XXYZ=              0.2081 YYXZ=             -1.2629 ZZXY=              0.1912
 N-N= 7.952871494057D+02 E-N=-2.827750912681D+03  KE= 5.389723276482D+02
 Unable to Open any file for archive entry.
 1\1\GINC-GADI-CPU-CLX-0072\SP\RM062X TD-FC\6-311++G(d,p)\C14H11(1+)\TS
 1578\26-Jul-2022\0\\#n M062X/6-311++G(d,p) TD(NStates=1) EmpiricalDisp
 ersion=GD3 SP\\SP_2\\1,1\C,0,2.4927,1.2631,0.004\C,0,3.7015,0.5787,-0.
 006\C,0,3.6839,-0.7401,-0.046\C,0,2.4632,-1.2749,-0.036\C,0,-2.4632,-1
 .3229,0.044\C,0,-3.6839,-0.7601,0.114\C,0,-3.7015,0.6027,0.074\C,0,-2.
 4927,1.3151,0.004\C,0,0.,1.4221,-0.03\C,0,0.,-1.2755,-0.03\C,0,1.2621,
 0.7247,0.029\C,0,1.2375,-0.6731,-0.031\C,0,-1.2621,0.7367,-0.081\C,0,-
 1.2375,-0.6811,-0.021\H,0,2.4881,2.3693,0.004\H,0,4.6368,1.1084,0.017\
 H,0,4.6093,-1.2487,0.042\H,0,2.4675,-2.3824,-0.036\H,0,0.,-2.3766,-0.0
 32\H,0,-2.4675,-2.4904,0.044\H,0,-4.6093,-1.2887,0.062\H,0,-4.6368,1.1
 524,0.087\H,0,-2.4881,2.4853,0.004\H,0,0.,1.9345,-0.8896\H,0,0.,1.9345
 ,0.8296\\Version=ES64L-G16RevC.01\State=1-A\HF=-539.6843757\RMSD=9.910
 e-09\PG=C01 [X(C14H11)]\\@
 The archive entry for this job was punched.


 ART, GLORY, FREEDOM FAIL, BUT NATURE STILL IS FAIR.

                                           -- BYRON
 Job cpu time:       0 days  1 hours  3 minutes 37.9 seconds.
 Elapsed time:       0 days  0 hours  6 minutes 41.6 seconds.
 File lengths (MBytes):  RWF=    461 Int=      0 D2E=      0 Chk=     15 Scr=      1
 Normal termination of Gaussian 16 at Tue Jul 26 18:46:06 2022.
