 Entering Gaussian System, Link 0=g16
 Initial command:
 /apps/gaussian/g16c01/g16/l1.exe "/jobfs/52716446.gadi-pbs/Gau-1334071.inp" -scrdir="/jobfs/52716446.gadi-pbs/"
 Entering Link 1 = /apps/gaussian/g16c01/g16/l1.exe PID=   1334072.
  
 Copyright (c) 1988-2019, Gaussian, Inc.  All Rights Reserved.
  
 This is part of the Gaussian(R) 16 program.  It is based on
 the Gaussian(R) 09 system (copyright 2009, Gaussian, Inc.),
 the Gaussian(R) 03 system (copyright 2003, Gaussian, Inc.),
 the Gaussian(R) 98 system (copyright 1998, Gaussian, Inc.),
 the Gaussian(R) 94 system (copyright 1995, Gaussian, Inc.),
 the Gaussian 92(TM) system (copyright 1992, Gaussian, Inc.),
 the Gaussian 90(TM) system (copyright 1990, Gaussian, Inc.),
 the Gaussian 88(TM) system (copyright 1988, Gaussian, Inc.),
 the Gaussian 86(TM) system (copyright 1986, Carnegie Mellon
 University), and the Gaussian 82(TM) system (copyright 1983,
 Carnegie Mellon University). Gaussian is a federally registered
 trademark of Gaussian, Inc.
  
 This software contains proprietary and confidential information,
 including trade secrets, belonging to Gaussian, Inc.
  
 This software is provided under written license and may be
 used, copied, transmitted, or stored only in accord with that
 written license.
  
 The following legend is applicable only to US Government
 contracts under FAR:
  
                    RESTRICTED RIGHTS LEGEND
  
 Use, reproduction and disclosure by the US Government is
 subject to restrictions as set forth in subparagraphs (a)
 and (c) of the Commercial Computer Software - Restricted
 Rights clause in FAR 52.227-19.
  
 Gaussian, Inc.
 340 Quinnipiac St., Bldg. 40, Wallingford CT 06492
  
  
 ---------------------------------------------------------------
 Warning -- This program may not be used in any manner that
 competes with the business of Gaussian, Inc. or will provide
 assistance to any competitor of Gaussian, Inc.  The licensee
 of this program is prohibited from giving any competitor of
 Gaussian, Inc. access to this program.  By using this program,
 the user acknowledges that Gaussian, Inc. is engaged in the
 business of creating and licensing software in the field of
 computational chemistry and represents and warrants to the
 licensee that it is not a competitor of Gaussian, Inc. and that
 it will not use this program in any manner prohibited above.
 ---------------------------------------------------------------
  

 Cite this work as:
 Gaussian 16, Revision C.01,
 M. J. Frisch, G. W. Trucks, H. B. Schlegel, G. E. Scuseria, 
 M. A. Robb, J. R. Cheeseman, G. Scalmani, V. Barone, 
 G. A. Petersson, H. Nakatsuji, X. Li, M. Caricato, A. V. Marenich, 
 J. Bloino, B. G. Janesko, R. Gomperts, B. Mennucci, H. P. Hratchian, 
 J. V. Ortiz, A. F. Izmaylov, J. L. Sonnenberg, D. Williams-Young, 
 F. Ding, F. Lipparini, F. Egidi, J. Goings, B. Peng, A. Petrone, 
 T. Henderson, D. Ranasinghe, V. G. Zakrzewski, J. Gao, N. Rega, 
 G. Zheng, W. Liang, M. Hada, M. Ehara, K. Toyota, R. Fukuda, 
 J. Hasegawa, M. Ishida, T. Nakajima, Y. Honda, O. Kitao, H. Nakai, 
 T. Vreven, K. Throssell, J. A. Montgomery, Jr., J. E. Peralta, 
 F. Ogliaro, M. J. Bearpark, J. J. Heyd, E. N. Brothers, K. N. Kudin, 
 V. N. Staroverov, T. A. Keith, R. Kobayashi, J. Normand, 
 K. Raghavachari, A. P. Rendell, J. C. Burant, S. S. Iyengar, 
 J. Tomasi, M. Cossi, J. M. Millam, M. Klene, C. Adamo, R. Cammi, 
 J. W. Ochterski, R. L. Martin, K. Morokuma, O. Farkas, 
 J. B. Foresman, and D. J. Fox, Gaussian, Inc., Wallingford CT, 2019.
 
 ******************************************
 Gaussian 16:  ES64L-G16RevC.01  3-Jul-2019
                26-Jul-2022 
 ******************************************
 %NProcShared=16
 Will use up to   16 processors via shared memory.
 %mem = 64GB
 ---------------------------------------------------------------
 #n M062X/6-311++G(d,p) TD(NStates=1) EmpiricalDispersion=GD3 SP
 ---------------------------------------------------------------
 1/38=1,172=1/1;
 2/12=2,17=6,18=5,40=1/2;
 3/5=4,6=6,7=1111,11=9,25=1,30=1,74=-55,124=31/1,2,3,8;
 4//1;
 5/5=2,38=5/2;
 8/6=1,10=2,108=1/1;
 9/41=1,42=1,70=2/14;
 6/7=2,8=2,9=2,10=2/1;
 99/5=1,9=1/99;
 ----
 SP_5
 ----
 Symbolic Z-matrix:
 Charge =  1 Multiplicity = 1
 C                     2.4927    1.2721    0.01 
 C                     3.7015    0.6147    0.069 
 C                     3.6839   -0.6981    0.053 
 C                     2.4632   -1.2989   -0.006 
 C                    -2.4632   -1.4189    0.026 
 C                    -3.6839   -0.7481    0.117 
 C                    -3.7015    0.6747    0.101 
 C                    -2.4927    1.4021    0.01 
 C                     0.        1.4461   -0.075 
 C                     0.       -1.3625   -0.075 
 C                     1.2621    0.6887   -0.043 
 C                     1.2375   -0.6941   -0.067 
 C                    -1.2621    0.7187   -0.087 
 C                    -1.2375   -0.7141   -0.063 
 H                     2.4881    2.2973    0.01 
 H                     4.6368    1.1294    0.116 
 H                     4.6093   -1.2157    0.126 
 H                     2.4675   -2.3284   -0.006 
 H                     0.       -2.4516   -0.08 
 H                    -2.4675   -2.5984    0.026 
 H                    -4.6093   -1.3157    0.134 
 H                    -4.6368    1.2394    0.144 
 H                    -2.4881    2.5873    0.01 
 H                     0.        2.0665   -0.9346 
 H                     0.        2.0665    0.7846 
 
                          Input orientation:                          
 ---------------------------------------------------------------------
 Center     Atomic      Atomic             Coordinates (Angstroms)
 Number     Number       Type             X           Y           Z
 ---------------------------------------------------------------------
      1          6           0        2.492700    1.272100    0.010000
      2          6           0        3.701500    0.614700    0.069000
      3          6           0        3.683900   -0.698100    0.053000
      4          6           0        2.463200   -1.298900   -0.006000
      5          6           0       -2.463200   -1.418900    0.026000
      6          6           0       -3.683900   -0.748100    0.117000
      7          6           0       -3.701500    0.674700    0.101000
      8          6           0       -2.492700    1.402100    0.010000
      9          6           0        0.000000    1.446100   -0.075000
     10          6           0        0.000000   -1.362500   -0.075000
     11          6           0        1.262100    0.688700   -0.043000
     12          6           0        1.237500   -0.694100   -0.067000
     13          6           0       -1.262100    0.718700   -0.087000
     14          6           0       -1.237500   -0.714100   -0.063000
     15          1           0        2.488100    2.297300    0.010000
     16          1           0        4.636800    1.129400    0.116000
     17          1           0        4.609300   -1.215700    0.126000
     18          1           0        2.467500   -2.328400   -0.006000
     19          1           0        0.000000   -2.451600   -0.080000
     20          1           0       -2.467500   -2.598400    0.026000
     21          1           0       -4.609300   -1.315700    0.134000
     22          1           0       -4.636800    1.239400    0.144000
     23          1           0       -2.488100    2.587300    0.010000
     24          1           0        0.000000    2.066500   -0.934600
     25          1           0        0.000000    2.066500    0.784600
 ---------------------------------------------------------------------
                    Distance matrix (angstroms):
                    1          2          3          4          5
     1  C    0.000000
     2  C    1.377263   0.000000
     3  C    2.302715   1.313015   0.000000
     4  C    2.571219   2.280543   1.361819   0.000000
     5  C    5.639387   6.491603   6.189275   4.927965   0.000000
     6  C    6.499465   7.510237   7.368248   6.172953   1.395837
     7  C    6.223607   7.403312   7.512058   6.473799   2.433551
     8  C    4.987095   6.244325   6.524038   5.644165   2.821200
     9  C    2.500211   3.796454   4.264399   3.688786   3.779653
    10  C    3.627933   4.198947   3.745521   2.464987   2.465915
    11  C    1.362916   2.443091   2.792409   2.322620   4.280724
    12  C    2.333966   2.793340   2.449345   1.368154   3.772156
    13  C    3.796602   4.967140   5.146828   4.237350   2.454535
    14  C    4.226667   5.116332   4.922793   3.747055   1.416688
    15  H    1.025210   2.075322   3.225555   3.596322   6.190781
    16  H    2.151456   1.068602   2.061976   3.261298   7.544000
    17  H    3.268425   2.043946   1.062828   2.151765   7.076125
    18  H    3.600624   3.192212   2.034942   1.029509   5.013982
    19  H    4.481919   4.808898   4.082104   2.720579   2.673024
    20  H    6.291630   6.955747   6.438291   5.099169   1.179508
    21  H    7.559794   8.532295   8.316559   7.073905   2.151293
    22  H    7.130834   8.362005   8.543783   7.541583   3.435843
    23  H    5.151516   6.496598   6.992087   6.294297   4.006309
    24  H    2.781527   4.100736   4.710572   4.272654   4.374714
    25  H    2.728485   4.039914   4.663622   4.244799   4.334840
                    6          7          8          9         10
     6  C    0.000000
     7  C    1.422999   0.000000
     8  C    2.460440   1.413715   0.000000
     9  C    4.292144   3.785120   2.494537   0.000000
    10  C    3.739715   4.228742   3.723411   2.808600   0.000000
    11  C    5.152952   4.965708   3.822338   1.472269   2.408597
    12  C    4.925135   5.127920   4.279530   2.472231   1.406495
    13  C    2.838703   2.447029   1.410965   1.456761   2.434016
    14  C    2.453249   2.833189   2.461536   2.489581   1.397130
    15  H    6.883276   6.399395   5.060608   2.631047   4.426285
    16  H    8.529892   8.350702   7.135501   4.651526   5.267443
    17  H    8.306377   8.523123   7.569989   5.326465   4.616015
    18  H    6.352338   6.861969   6.206486   4.510007   2.650713
    19  H    4.063476   4.848465   4.590496   3.897703   1.089111
    20  H    2.216195   3.498795   4.000611   4.738854   2.761559
    21  H    1.085737   2.187894   3.447000   5.377441   4.614273
    22  H    2.204292   1.093399   2.154435   4.646569   5.321443
    23  H    3.544895   2.266861   1.185209   2.738650   4.668917
    24  H    4.753836   4.087869   2.747226   1.060098   3.535103
    25  H    4.683885   4.013168   2.693508   1.060098   3.535103
                   11         12         13         14         15
    11  C    0.000000
    12  C    1.383227   0.000000
    13  C    2.524762   2.871307   0.000000
    14  C    2.866400   2.475084   1.433212   0.000000
    15  H    2.023235   3.243209   4.070060   4.791029   0.000000
    16  H    3.407066   3.861850   5.916663   6.159378   2.447884
    17  H    3.854744   3.417360   6.185516   5.871320   4.105376
    18  H    3.249192   2.046352   4.816772   4.041811   4.625774
    19  H    3.384634   2.149507   3.412294   2.133214   5.361977
    20  H    4.971891   4.166777   3.531134   2.251979   6.966068
    21  H    6.206632   5.883184   3.923184   3.430709   7.965063
    22  H    5.927500   6.187919   3.422439   3.926099   7.204256
    23  H    4.203747   4.965240   2.236996   3.531086   4.984643
    24  H    2.070309   3.147229   2.031720   3.165885   2.671363
    25  H    2.043563   3.142856   2.041849   3.159362   2.616088
                   16         17         18         19         20
    16  H    0.000000
    17  H    2.345283   0.000000
    18  H    4.083764   2.417195   0.000000
    19  H    5.861902   4.776561   2.471682   0.000000
    20  H    8.023445   7.211308   4.942484   2.474135   0.000000
    21  H    9.563953   9.219146   7.150263   4.752022   2.498858
    22  H    9.274295   9.566515   7.951275   5.930731   4.410045
    23  H    7.273301   8.052910   6.980139   5.620432   5.185766
    24  H    4.845806   5.757027   5.125037   4.598214   5.364010
    25  H    4.777562   5.696687   5.101838   4.600083   5.331540
                   21         22         23         24         25
    21  H    0.000000
    22  H    2.555268   0.000000
    23  H    4.443903   2.540020   0.000000
    24  H    5.816084   4.831913   2.711852   0.000000
    25  H    5.753973   4.753354   2.657420   1.719200   0.000000
 Stoichiometry    C14H11(1+)
 Framework group  C1[X(C14H11)]
 Deg. of freedom    69
 Full point group                 C1      NOp   1
 Largest Abelian subgroup         C1      NOp   1
 Largest concise Abelian subgroup C1      NOp   1
                         Standard orientation:                         
 ---------------------------------------------------------------------
 Center     Atomic      Atomic             Coordinates (Angstroms)
 Number     Number       Type             X           Y           Z
 ---------------------------------------------------------------------
      1          6           0        2.491137   -1.266911   -0.021305
      2          6           0        3.700468   -0.610818   -0.083869
      3          6           0        3.684497    0.701965   -0.065024
      4          6           0        2.464766    1.304082    0.000246
      5          6           0       -2.461577    1.429977   -0.011314
      6          6           0       -3.683438    0.760815   -0.098727
      7          6           0       -3.702668   -0.661994   -0.085660
      8          6           0       -2.494373   -1.391014   -0.001151
      9          6           0       -0.001400   -1.438142    0.073541
     10          6           0        0.001947    1.370450    0.079473
     11          6           0        1.261460   -0.682169    0.037969
     12          6           0        1.238606    0.700605    0.064990
     13          6           0       -1.262572   -0.709277    0.092249
     14          6           0       -1.236364    0.723541    0.071174
     15          1           0        2.485315   -2.292103   -0.023451
     16          1           0        4.634953   -1.126523   -0.135788
     17          1           0        4.610207    1.218624   -0.140723
     18          1           0        2.470293    2.333574    0.002402
     19          1           0        0.003265    2.459536    0.086773
     20          1           0       -2.464472    2.609478   -0.008805
     21          1           0       -4.608223    1.329544   -0.110736
     22          1           0       -4.638808   -1.225495   -0.126020
     23          1           0       -2.491185   -2.576216   -0.003672
     24          1           0        0.001381   -2.060360    0.931822
     25          1           0       -0.005659   -2.056721   -0.787360
 ---------------------------------------------------------------------
 Rotational constants (GHZ):           2.2117571           0.4442955           0.3712216
 Standard basis: 6-311++G(d,p) (5D, 7F)
 There are   399 symmetry adapted cartesian basis functions of A   symmetry.
 There are   385 symmetry adapted basis functions of A   symmetry.
   385 basis functions,   603 primitive gaussians,   399 cartesian basis functions
    47 alpha electrons       47 beta electrons
       nuclear repulsion energy       786.6327416187 Hartrees.
 NAtoms=   25 NActive=   25 NUniq=   25 SFac= 1.00D+00 NAtFMM=   60 NAOKFM=F Big=F
 Integral buffers will be    131072 words long.
 Regular integral format.
 Two-electron integral symmetry is turned on.
 Nuclear repulsion after empirical dispersion term =      786.6317718077 Hartrees.
 One-electron integrals computed using PRISM.
 NBasis=   385 RedAO= T EigKep=  1.10D-06  NBF=   385
 NBsUse=   379 1.00D-06 EigRej=  7.77D-07 NBFU=   379
 ExpMin= 3.60D-02 ExpMax= 4.56D+03 ExpMxC= 6.82D+02 IAcc=3 IRadAn=         5 AccDes= 0.00D+00
 Harris functional with IExCor= 1009 and IRadAn=       5 diagonalized for initial guess.
 HarFok:  IExCor= 1009 AccDes= 0.00D+00 IRadAn=         5 IDoV= 1 UseB2=F ITyADJ=14
 ICtDFT=  3500011 ScaDFX=  1.000000  1.000000  1.000000  1.000000
 FoFCou: FMM=F IPFlag=           0 FMFlag=      100000 FMFlg1=           0
         NFxFlg=           0 DoJE=T BraDBF=F KetDBF=T FulRan=T
         wScrn=  0.000000 ICntrl=       500 IOpCl=  0 I1Cent=   200000004 NGrid=           0
         NMat0=    1 NMatS0=      1 NMatT0=    0 NMatD0=    1 NMtDS0=    0 NMtDT0=    0
 Petite list used in FoFCou.
 Requested convergence on RMS density matrix=1.00D-08 within 128 cycles.
 Requested convergence on MAX density matrix=1.00D-06.
 Requested convergence on             energy=1.00D-06.
 No special actions if energy rises.
 SCF Done:  E(RM062X) =  -539.721232102     A.U. after   15 cycles
            NFock= 15  Conv=0.88D-08     -V/T= 2.0030
 DoSCS=F DFT=T ScalE2(SS,OS)=  1.000000  1.000000
 ExpMin= 3.60D-02 ExpMax= 4.56D+03 ExpMxC= 6.82D+02 IAcc=3 IRadAn=         5 AccDes= 0.00D+00
 HarFok:  IExCor=  205 AccDes= 0.00D+00 IRadAn=         5 IDoV=-2 UseB2=F ITyADJ=14
 ICtDFT= 12500011 ScaDFX=  1.000000  1.000000  1.000000  1.000000
 Range of M.O.s used for correlation:    15   379
 NBasis=   385 NAE=    47 NBE=    47 NFC=    14 NFV=     0
 NROrb=    365 NOA=    33 NOB=    33 NVA=   332 NVB=   332

 **** Warning!!: The largest alpha MO coefficient is  0.13197542D+03

 Orbital symmetries:
       Occupied  (A) (A) (A) (A) (A) (A) (A) (A) (A) (A) (A) (A)
                 (A) (A) (A) (A) (A) (A) (A) (A) (A) (A) (A) (A)
                 (A) (A) (A) (A) (A) (A) (A) (A) (A) (A) (A) (A)
                 (A) (A) (A) (A) (A) (A) (A) (A) (A) (A) (A)
       Virtual   (A) (A) (A) (A) (A) (A) (A) (A) (A) (A) (A) (A)
                 (A) (A) (A) (A) (A) (A) (A) (A) (A) (A) (A) (A)
                 (A) (A) (A) (A) (A) (A) (A) (A) (A) (A) (A) (A)
                 (A) (A) (A) (A) (A) (A) (A) (A) (A) (A) (A) (A)
                 (A) (A) (A) (A) (A) (A) (A) (A) (A) (A) (A) (A)
                 (A) (A) (A) (A) (A) (A) (A) (A) (A) (A) (A) (A)
                 (A) (A) (A) (A) (A) (A) (A) (A) (A) (A) (A) (A)
                 (A) (A) (A) (A) (A) (A) (A) (A) (A) (A) (A) (A)
                 (A) (A) (A) (A) (A) (A) (A) (A) (A) (A) (A) (A)
                 (A) (A) (A) (A) (A) (A) (A) (A) (A) (A) (A) (A)
                 (A) (A) (A) (A) (A) (A) (A) (A) (A) (A) (A) (A)
                 (A) (A) (A) (A) (A) (A) (A) (A) (A) (A) (A) (A)
                 (A) (A) (A) (A) (A) (A) (A) (A) (A) (A) (A) (A)
                 (A) (A) (A) (A) (A) (A) (A) (A) (A) (A) (A) (A)
                 (A) (A) (A) (A) (A) (A) (A) (A) (A) (A) (A) (A)
                 (A) (A) (A) (A) (A) (A) (A) (A) (A) (A) (A) (A)
                 (A) (A) (A) (A) (A) (A) (A) (A) (A) (A) (A) (A)
                 (A) (A) (A) (A) (A) (A) (A) (A) (A) (A) (A) (A)
                 (A) (A) (A) (A) (A) (A) (A) (A) (A) (A) (A) (A)
                 (A) (A) (A) (A) (A) (A) (A) (A) (A) (A) (A) (A)
                 (A) (A) (A) (A) (A) (A) (A) (A) (A) (A) (A) (A)
                 (A) (A) (A) (A) (A) (A) (A) (A) (A) (A) (A) (A)
                 (A) (A) (A) (A) (A) (A) (A) (A) (A) (A) (A) (A)
                 (A) (A) (A) (A) (A) (A) (A) (A) (A) (A) (A) (A)
                 (A) (A) (A) (A) (A) (A) (A) (A) (A) (A) (A) (A)
                 (A) (A) (A) (A) (A) (A) (A) (A) (A) (A) (A) (A)
                 (A) (A) (A) (A) (A) (A) (A) (A) (A) (A) (A) (A)
                 (A) (A) (A) (A) (A) (A) (A) (A)
     4 initial guesses have been made.
 Convergence on wavefunction:    0.001000000000000
 Iteration     1 Dimension     4 NMult     0 NNew      4
 CISAX will form     4 AO SS matrices at one time.
 Iteration     2 Dimension     6 NMult     4 NNew      2
 Iteration     3 Dimension     8 NMult     6 NNew      2
 Iteration     4 Dimension    10 NMult     8 NNew      2
 Iteration     5 Dimension    12 NMult    10 NNew      2
 Iteration     6 Dimension    14 NMult    12 NNew      2
 ***********************************************************************
 Excited states from <AA,BB:AA,BB> singles matrix:
 ***********************************************************************
 
 Ground to excited state transition densities written to RWF  633
 Ground to excited state transition electric dipole moments (Au):
       state          X           Y           Z        Dip. S.      Osc.
         1         0.3157      0.6216     -0.0254      0.4867      0.0352
 Ground to excited state transition velocity dipole moments (Au):
       state          X           Y           Z        Dip. S.      Osc.
         1        -0.0346     -0.0755      0.0029      0.0069      0.0424
 Ground to excited state transition magnetic dipole moments (Au):
       state          X           Y           Z
         1        -0.0465      0.0016      0.2569
 Ground to excited state transition velocity quadrupole moments (Au):
       state          XX          YY          ZZ          XY          XZ          YZ
         1        -0.3038     -0.0381      0.0088      0.0171     -0.0008     -0.0105
 <0|del|b> * <b|rxdel|0> + <0|del|b> * <b|delr+rdel|0>
 Rotatory Strengths (R) in cgs (10**-40 erg-esu-cm/Gauss)
       state          XX          YY          ZZ    R(velocity)    E-M Angle
         1         1.9723      8.6664      3.8622      4.8336       84.11
 1/2[<0|r|b>*<b|rxdel|0> + (<0|rxdel|b>*<b|r|0>)*]
 Rotatory Strengths (R) in cgs (10**-40 erg-esu-cm/Gauss)
       state          XX          YY          ZZ     R(length)
         1        10.3802     -0.7053      4.6180      4.7643
  1/2[<0|del|b>*<b|r|0> + (<0|r|b>*<b|del|0>)*] (Au)
       state          X           Y           Z        Dip. S.   Osc.(frdel)
         1        -0.0109     -0.0470     -0.0001      0.0580      0.0386

 Excitation energies and oscillator strengths:
 
 Excited State   1:      Singlet-A      2.9556 eV  419.49 nm  f=0.0352  <S**2>=0.000
      46 -> 48        -0.10137
      47 -> 48         0.69672
 This state for optimization and/or second-order correction.
 Total Energy, E(TD-HF/TD-DFT) =  -539.612616109    
 Copying the excited state density for this state as the 1-particle RhoCI density.
 SavETr:  write IOETrn=   770 NScale= 10 NData=  16 NLR=1 NState=    1 LETran=      28.

 **********************************************************************

            Population analysis using the SCF Density.

 **********************************************************************

 Orbital symmetries:
       Occupied  (A) (A) (A) (A) (A) (A) (A) (A) (A) (A) (A) (A)
                 (A) (A) (A) (A) (A) (A) (A) (A) (A) (A) (A) (A)
                 (A) (A) (A) (A) (A) (A) (A) (A) (A) (A) (A) (A)
                 (A) (A) (A) (A) (A) (A) (A) (A) (A) (A) (A)
       Virtual   (A) (A) (A) (A) (A) (A) (A) (A) (A) (A) (A) (A)
                 (A) (A) (A) (A) (A) (A) (A) (A) (A) (A) (A) (A)
                 (A) (A) (A) (A) (A) (A) (A) (A) (A) (A) (A) (A)
                 (A) (A) (A) (A) (A) (A) (A) (A) (A) (A) (A) (A)
                 (A) (A) (A) (A) (A) (A) (A) (A) (A) (A) (A) (A)
                 (A) (A) (A) (A) (A) (A) (A) (A) (A) (A) (A) (A)
                 (A) (A) (A) (A) (A) (A) (A) (A) (A) (A) (A) (A)
                 (A) (A) (A) (A) (A) (A) (A) (A) (A) (A) (A) (A)
                 (A) (A) (A) (A) (A) (A) (A) (A) (A) (A) (A) (A)
                 (A) (A) (A) (A) (A) (A) (A) (A) (A) (A) (A) (A)
                 (A) (A) (A) (A) (A) (A) (A) (A) (A) (A) (A) (A)
                 (A) (A) (A) (A) (A) (A) (A) (A) (A) (A) (A) (A)
                 (A) (A) (A) (A) (A) (A) (A) (A) (A) (A) (A) (A)
                 (A) (A) (A) (A) (A) (A) (A) (A) (A) (A) (A) (A)
                 (A) (A) (A) (A) (A) (A) (A) (A) (A) (A) (A) (A)
                 (A) (A) (A) (A) (A) (A) (A) (A) (A) (A) (A) (A)
                 (A) (A) (A) (A) (A) (A) (A) (A) (A) (A) (A) (A)
                 (A) (A) (A) (A) (A) (A) (A) (A) (A) (A) (A) (A)
                 (A) (A) (A) (A) (A) (A) (A) (A) (A) (A) (A) (A)
                 (A) (A) (A) (A) (A) (A) (A) (A) (A) (A) (A) (A)
                 (A) (A) (A) (A) (A) (A) (A) (A) (A) (A) (A) (A)
                 (A) (A) (A) (A) (A) (A) (A) (A) (A) (A) (A) (A)
                 (A) (A) (A) (A) (A) (A) (A) (A) (A) (A) (A) (A)
                 (A) (A) (A) (A) (A) (A) (A) (A) (A) (A) (A) (A)
                 (A) (A) (A) (A) (A) (A) (A) (A) (A) (A) (A) (A)
                 (A) (A) (A) (A) (A) (A) (A) (A) (A) (A) (A) (A)
                 (A) (A) (A) (A) (A) (A) (A) (A) (A) (A) (A) (A)
                 (A) (A) (A) (A) (A) (A) (A) (A)
 The electronic state is 1-A.
 Alpha  occ. eigenvalues --  -10.77101 -10.73980 -10.72888 -10.72802 -10.72588
 Alpha  occ. eigenvalues --  -10.71626 -10.71617 -10.71251 -10.70600 -10.69945
 Alpha  occ. eigenvalues --  -10.69730 -10.69374 -10.68013 -10.67872  -1.17374
 Alpha  occ. eigenvalues --   -1.13284  -1.07675  -1.06430  -1.01566  -1.00966
 Alpha  occ. eigenvalues --   -0.96086  -0.91855  -0.86534  -0.86286  -0.83537
 Alpha  occ. eigenvalues --   -0.78820  -0.76998  -0.74072  -0.70582  -0.69929
 Alpha  occ. eigenvalues --   -0.69209  -0.68171  -0.67790  -0.64738  -0.63654
 Alpha  occ. eigenvalues --   -0.63100  -0.61663  -0.61277  -0.59930  -0.59511
 Alpha  occ. eigenvalues --   -0.56248  -0.55714  -0.53868  -0.52849  -0.47107
 Alpha  occ. eigenvalues --   -0.46271  -0.44873
 Alpha virt. eigenvalues --   -0.25953  -0.14493  -0.14079  -0.12158  -0.11184
 Alpha virt. eigenvalues --   -0.10024  -0.09341  -0.08098  -0.07894  -0.07497
 Alpha virt. eigenvalues --   -0.07233  -0.06972  -0.05678  -0.05544  -0.05262
 Alpha virt. eigenvalues --   -0.04114  -0.03710  -0.03187  -0.03093  -0.02092
 Alpha virt. eigenvalues --   -0.01551  -0.00895   0.00240   0.00451   0.00623
 Alpha virt. eigenvalues --    0.01147   0.01380   0.02025   0.02086   0.02364
 Alpha virt. eigenvalues --    0.02550   0.02694   0.02843   0.03236   0.03414
 Alpha virt. eigenvalues --    0.04144   0.04300   0.04971   0.05264   0.05449
 Alpha virt. eigenvalues --    0.05650   0.06254   0.06910   0.06983   0.07339
 Alpha virt. eigenvalues --    0.07775   0.07881   0.08191   0.08795   0.09291
 Alpha virt. eigenvalues --    0.09345   0.09726   0.09864   0.10297   0.11270
 Alpha virt. eigenvalues --    0.11435   0.12069   0.12194   0.12971   0.13079
 Alpha virt. eigenvalues --    0.13254   0.13358   0.14654   0.14812   0.15975
 Alpha virt. eigenvalues --    0.16226   0.16595   0.17441   0.17745   0.18228
 Alpha virt. eigenvalues --    0.18719   0.18917   0.19355   0.19879   0.20550
 Alpha virt. eigenvalues --    0.20956   0.21744   0.22326   0.23099   0.24147
 Alpha virt. eigenvalues --    0.24590   0.25324   0.25626   0.26978   0.28072
 Alpha virt. eigenvalues --    0.29020   0.29104   0.30816   0.31828   0.36404
 Alpha virt. eigenvalues --    0.37286   0.38549   0.38856   0.40701   0.41488
 Alpha virt. eigenvalues --    0.42109   0.42667   0.42786   0.43970   0.44161
 Alpha virt. eigenvalues --    0.44635   0.45197   0.46944   0.48220   0.48280
 Alpha virt. eigenvalues --    0.48619   0.48782   0.49176   0.50223   0.50629
 Alpha virt. eigenvalues --    0.51054   0.51959   0.52428   0.52987   0.53999
 Alpha virt. eigenvalues --    0.54408   0.55170   0.55768   0.56443   0.58173
 Alpha virt. eigenvalues --    0.59413   0.60011   0.60977   0.61719   0.61996
 Alpha virt. eigenvalues --    0.63601   0.63879   0.65259   0.66389   0.67195
 Alpha virt. eigenvalues --    0.69005   0.71018   0.71171   0.72558   0.72933
 Alpha virt. eigenvalues --    0.74279   0.75556   0.75937   0.76572   0.77536
 Alpha virt. eigenvalues --    0.77759   0.78195   0.78690   0.79804   0.81041
 Alpha virt. eigenvalues --    0.81451   0.82062   0.82630   0.83844   0.84695
 Alpha virt. eigenvalues --    0.85986   0.87291   0.88417   0.88931   0.90821
 Alpha virt. eigenvalues --    0.91450   0.92675   0.93322   0.94055   0.95607
 Alpha virt. eigenvalues --    0.97800   0.99175   1.00867   1.02337   1.03144
 Alpha virt. eigenvalues --    1.03770   1.05745   1.07789   1.08713   1.09537
 Alpha virt. eigenvalues --    1.20802   1.21825   1.25585   1.27796   1.30029
 Alpha virt. eigenvalues --    1.30514   1.31992   1.33350   1.34881   1.36192
 Alpha virt. eigenvalues --    1.37911   1.40411   1.42061   1.42963   1.43836
 Alpha virt. eigenvalues --    1.44212   1.44250   1.45851   1.47944   1.48419
 Alpha virt. eigenvalues --    1.50061   1.50761   1.52386   1.54104   1.55156
 Alpha virt. eigenvalues --    1.55886   1.57199   1.59373   1.60593   1.61173
 Alpha virt. eigenvalues --    1.61674   1.61998   1.65126   1.66435   1.67200
 Alpha virt. eigenvalues --    1.68710   1.69799   1.71015   1.73861   1.76472
 Alpha virt. eigenvalues --    1.76973   1.77971   1.79559   1.81479   1.82048
 Alpha virt. eigenvalues --    1.82358   1.83375   1.84489   1.85216   1.85623
 Alpha virt. eigenvalues --    1.86216   1.86969   1.87591   1.89863   1.92203
 Alpha virt. eigenvalues --    1.92284   1.95840   1.96090   1.97355   2.01484
 Alpha virt. eigenvalues --    2.02140   2.03861   2.05654   2.07578   2.11424
 Alpha virt. eigenvalues --    2.13122   2.15827   2.17305   2.19391   2.23213
 Alpha virt. eigenvalues --    2.25438   2.26483   2.28004   2.33925   2.36312
 Alpha virt. eigenvalues --    2.37958   2.38497   2.41289   2.42652   2.43797
 Alpha virt. eigenvalues --    2.46131   2.48184   2.50933   2.54628   2.55219
 Alpha virt. eigenvalues --    2.57443   2.57700   2.58643   2.59377   2.59555
 Alpha virt. eigenvalues --    2.60974   2.62342   2.63032   2.63553   2.64716
 Alpha virt. eigenvalues --    2.65722   2.66356   2.66560   2.67510   2.68328
 Alpha virt. eigenvalues --    2.70277   2.70778   2.73704   2.74244   2.75863
 Alpha virt. eigenvalues --    2.76406   2.77133   2.80583   2.84319   2.87971
 Alpha virt. eigenvalues --    2.90245   2.93546   2.94682   2.97030   2.98567
 Alpha virt. eigenvalues --    3.03941   3.07939   3.08860   3.10096   3.21502
 Alpha virt. eigenvalues --    3.21720   3.23382   3.27108   3.29767   3.34292
 Alpha virt. eigenvalues --    3.37076   3.38286   3.39080   3.39264   3.50343
 Alpha virt. eigenvalues --    3.54041   3.58086   3.60258   3.63377   3.73324
 Alpha virt. eigenvalues --    3.84001   3.87874   3.89889   3.98323   4.00480
 Alpha virt. eigenvalues --    4.01286   4.03446   4.09600   4.13801   4.37929
 Alpha virt. eigenvalues --    4.65282   4.68276   4.74438  23.43293  23.60381
 Alpha virt. eigenvalues --   23.78924  23.82490  23.88294  23.93299  23.93664
 Alpha virt. eigenvalues --   23.96073  23.99905  24.01393  24.02302  24.14758
 Alpha virt. eigenvalues --   24.16574  24.33315
          Condensed to atoms (all electrons):
               1          2          3          4          5          6
     1  C    9.461301   0.229673  -0.337331   2.205082  -0.179894  -0.109834
     2  C    0.229673   7.406881   0.512779  -0.947210   0.032283  -0.015033
     3  C   -0.337331   0.512779   7.008828   0.485017  -0.181218   0.020666
     4  C    2.205082  -0.947210   0.485017  11.437904  -0.295395  -0.089013
     5  C   -0.179894   0.032283  -0.181218  -0.295395  11.727726   0.267245
     6  C   -0.109834  -0.015033   0.020666  -0.089013   0.267245   6.663683
     7  C   -0.002528  -0.000632  -0.014343  -0.090812  -0.947812   0.350397
     8  C    0.478658   0.001125  -0.099496  -0.005932   2.405500  -0.949030
     9  C   -1.103044  -0.954659   0.341780  -0.921105   0.224399   0.366033
    10  C   -1.823364   0.207533  -0.594700  -2.738960  -2.338033  -0.236588
    11  C    0.627789  -1.405793   1.030602  -0.507275  -1.662680  -0.103015
    12  C   -2.767924   1.415647  -1.837330  -0.620553  -0.295477  -0.274631
    13  C    0.365972  -0.245727  -0.178401  -1.635335  -0.668783   1.259603
    14  C   -1.537084  -0.166112  -0.077740  -0.624757  -2.515161  -1.034031
    15  H    0.362513  -0.081218  -0.014812   0.023394   0.003918   0.000774
    16  H   -0.019988   0.397055  -0.019579   0.018124  -0.001105  -0.000210
    17  H   -0.030919  -0.008861   0.389488  -0.066264  -0.000814   0.000216
    18  H    0.044780  -0.016792  -0.089879   0.474802   0.015375  -0.003869
    19  H   -0.043158  -0.013228   0.060645  -0.053491  -0.110685   0.055199
    20  H    0.005252   0.002760  -0.004948   0.005775   0.446228  -0.085557
    21  H   -0.001186  -0.000256   0.000464  -0.000081  -0.081371   0.392215
    22  H    0.000671   0.000353  -0.000311  -0.002194   0.009090  -0.015687
    23  H    0.009118  -0.001842   0.001554   0.008014   0.022344  -0.011505
    24  H    0.033380   0.007750   0.003684  -0.015730  -0.017836   0.006352
    25  H    0.087099   0.032376  -0.008506  -0.019530  -0.009307  -0.007593
               7          8          9         10         11         12
     1  C   -0.002528   0.478658  -1.103044  -1.823364   0.627789  -2.767924
     2  C   -0.000632   0.001125  -0.954659   0.207533  -1.405793   1.415647
     3  C   -0.014343  -0.099496   0.341780  -0.594700   1.030602  -1.837330
     4  C   -0.090812  -0.005932  -0.921105  -2.738960  -0.507275  -0.620553
     5  C   -0.947812   2.405500   0.224399  -2.338033  -1.662680  -0.295477
     6  C    0.350397  -0.949030   0.366033  -0.236588  -0.103015  -0.274631
     7  C    6.956660   0.270638  -0.641179   0.175703  -0.263254  -0.260893
     8  C    0.270638   9.186279  -0.934137  -1.297706   0.099963  -0.717788
     9  C   -0.641179  -0.934137   9.991193   0.206930   1.833692  -2.515972
    10  C    0.175703  -1.297706   0.206930   9.819820  -0.951552   2.614007
    11  C   -0.263254   0.099963   1.833692  -0.951552  13.647095  -2.477064
    12  C   -0.260893  -0.717788  -2.515972   2.614007  -2.477064  16.133744
    13  C   -0.417415  -0.751173   1.816881  -0.804099   0.335383  -5.122945
    14  C    1.020851  -2.187233  -2.375695   3.168579  -3.571335   2.301509
    15  H   -0.001976   0.005438   0.071625  -0.002540  -0.034743   0.022462
    16  H    0.000080   0.000521  -0.005107  -0.013247   0.003241  -0.015901
    17  H   -0.000233  -0.001196  -0.004067   0.017400  -0.023127   0.074494
    18  H    0.001249   0.007694  -0.030147   0.032494  -0.001340  -0.038646
    19  H   -0.002991  -0.058212   0.081497   0.399793   0.092660  -0.112926
    20  H   -0.005087   0.056843  -0.018731   0.032180  -0.014372  -0.005159
    21  H   -0.025131  -0.038476  -0.001296   0.024218  -0.000854   0.003240
    22  H    0.376674  -0.019659   0.006614  -0.009713   0.000473  -0.008520
    23  H   -0.077497   0.334736   0.085160  -0.006369   0.006697   0.010897
    24  H    0.021783   0.020156   0.379036   0.003076  -0.022058  -0.080527
    25  H    0.018131   0.075643   0.353808  -0.006240  -0.000017  -0.065146
              13         14         15         16         17         18
     1  C    0.365972  -1.537084   0.362513  -0.019988  -0.030919   0.044780
     2  C   -0.245727  -0.166112  -0.081218   0.397055  -0.008861  -0.016792
     3  C   -0.178401  -0.077740  -0.014812  -0.019579   0.389488  -0.089879
     4  C   -1.635335  -0.624757   0.023394   0.018124  -0.066264   0.474802
     5  C   -0.668783  -2.515161   0.003918  -0.001105  -0.000814   0.015375
     6  C    1.259603  -1.034031   0.000774  -0.000210   0.000216  -0.003869
     7  C   -0.417415   1.020851  -0.001976   0.000080  -0.000233   0.001249
     8  C   -0.751173  -2.187233   0.005438   0.000521  -0.001196   0.007694
     9  C    1.816881  -2.375695   0.071625  -0.005107  -0.004067  -0.030147
    10  C   -0.804099   3.168579  -0.002540  -0.013247   0.017400   0.032494
    11  C    0.335383  -3.571335  -0.034743   0.003241  -0.023127  -0.001340
    12  C   -5.122945   2.301509   0.022462  -0.015901   0.074494  -0.038646
    13  C   15.686447  -2.957217  -0.010903   0.001999  -0.004872  -0.015632
    14  C   -2.957217  16.143536   0.002950  -0.006929   0.005507  -0.029009
    15  H   -0.010903   0.002950   0.454528  -0.008850   0.001074   0.000204
    16  H    0.001999  -0.006929  -0.008850   0.427689  -0.007632   0.001217
    17  H   -0.004872   0.005507   0.001074  -0.007632   0.430113  -0.008860
    18  H   -0.015632  -0.029009   0.000204   0.001217  -0.008860   0.466058
    19  H    0.074927  -0.001680   0.000224  -0.000626   0.000964  -0.004296
    20  H   -0.016234  -0.084996  -0.000115   0.000014  -0.000099   0.000996
    21  H   -0.004743   0.079851   0.000008  -0.000003   0.000009  -0.000167
    22  H    0.027388  -0.028769  -0.000132   0.000003  -0.000004   0.000008
    23  H   -0.058315  -0.010443   0.000403  -0.000062   0.000021  -0.000121
    24  H    0.044029  -0.047812  -0.000039   0.000146  -0.000044  -0.000092
    25  H   -0.007837  -0.106965  -0.001941   0.000731  -0.000331   0.000954
              19         20         21         22         23         24
     1  C   -0.043158   0.005252  -0.001186   0.000671   0.009118   0.033380
     2  C   -0.013228   0.002760  -0.000256   0.000353  -0.001842   0.007750
     3  C    0.060645  -0.004948   0.000464  -0.000311   0.001554   0.003684
     4  C   -0.053491   0.005775  -0.000081  -0.002194   0.008014  -0.015730
     5  C   -0.110685   0.446228  -0.081371   0.009090   0.022344  -0.017836
     6  C    0.055199  -0.085557   0.392215  -0.015687  -0.011505   0.006352
     7  C   -0.002991  -0.005087  -0.025131   0.376674  -0.077497   0.021783
     8  C   -0.058212   0.056843  -0.038476  -0.019659   0.334736   0.020156
     9  C    0.081497  -0.018731  -0.001296   0.006614   0.085160   0.379036
    10  C    0.399793   0.032180   0.024218  -0.009713  -0.006369   0.003076
    11  C    0.092660  -0.014372  -0.000854   0.000473   0.006697  -0.022058
    12  C   -0.112926  -0.005159   0.003240  -0.008520   0.010897  -0.080527
    13  C    0.074927  -0.016234  -0.004743   0.027388  -0.058315   0.044029
    14  C   -0.001680  -0.084996   0.079851  -0.028769  -0.010443  -0.047812
    15  H    0.000224  -0.000115   0.000008  -0.000132   0.000403  -0.000039
    16  H   -0.000626   0.000014  -0.000003   0.000003  -0.000062   0.000146
    17  H    0.000964  -0.000099   0.000009  -0.000004   0.000021  -0.000044
    18  H   -0.004296   0.000996  -0.000167   0.000008  -0.000121  -0.000092
    19  H    0.452922  -0.006120   0.002152  -0.000419   0.000157   0.001510
    20  H   -0.006120   0.435266  -0.008575   0.001469   0.000367  -0.000054
    21  H    0.002152  -0.008575   0.422529  -0.005841   0.000873   0.000016
    22  H   -0.000419   0.001469  -0.005841   0.411596  -0.006603   0.000390
    23  H    0.000157   0.000367   0.000873  -0.006603   0.421999  -0.000790
    24  H    0.001510  -0.000054   0.000016   0.000390  -0.000790   0.482745
    25  H   -0.000483   0.000411  -0.000213   0.001091   0.000250  -0.061698
              25
     1  C    0.087099
     2  C    0.032376
     3  C   -0.008506
     4  C   -0.019530
     5  C   -0.009307
     6  C   -0.007593
     7  C    0.018131
     8  C    0.075643
     9  C    0.353808
    10  C   -0.006240
    11  C   -0.000017
    12  C   -0.065146
    13  C   -0.007837
    14  C   -0.106965
    15  H   -0.001941
    16  H    0.000731
    17  H   -0.000331
    18  H    0.000954
    19  H   -0.000483
    20  H    0.000411
    21  H   -0.000213
    22  H    0.001091
    23  H    0.000250
    24  H   -0.061698
    25  H    0.492130
 Mulliken charges:
               1
     1  C    0.044967
     2  C   -0.388853
     3  C   -0.396913
     4  C   -0.024477
     5  C    0.151463
     6  C   -0.446786
     7  C   -0.440382
     8  C    0.116844
     9  C   -0.253509
    10  C    0.121380
    11  C   -0.639116
    12  C    0.641405
    13  C   -0.712998
    14  C    0.640183
    15  H    0.207752
    16  H    0.248418
    17  H    0.238037
    18  H    0.193019
    19  H    0.185666
    20  H    0.262485
    21  H    0.242617
    22  H    0.262031
    23  H    0.270958
    24  H    0.242625
    25  H    0.233182
 Sum of Mulliken charges =   1.00000
 Mulliken charges with hydrogens summed into heavy atoms:
               1
     1  C    0.252720
     2  C   -0.140435
     3  C   -0.158876
     4  C    0.168542
     5  C    0.413948
     6  C   -0.204169
     7  C   -0.178351
     8  C    0.387802
     9  C    0.222298
    10  C    0.307046
    11  C   -0.639116
    12  C    0.641405
    13  C   -0.712998
    14  C    0.640183
 Electronic spatial extent (au):  <R**2>=           2838.9362
 Charge=              1.0000 electrons
 Dipole moment (field-independent basis, Debye):
    X=             -0.5933    Y=              0.2434    Z=             -0.0814  Tot=              0.6464
 Quadrupole moment (field-independent basis, Debye-Ang):
   XX=            -29.5875   YY=            -57.8892   ZZ=            -83.4798
   XY=              0.3688   XZ=             -0.2051   YZ=              0.0944
 Traceless Quadrupole moment (field-independent basis, Debye-Ang):
   XX=             27.3980   YY=             -0.9037   ZZ=            -26.4943
   XY=              0.3688   XZ=             -0.2051   YZ=              0.0944
 Octapole moment (field-independent basis, Debye-Ang**2):
  XXX=             -0.9284  YYY=              5.2875  ZZZ=              0.4354  XYY=             -6.9493
  XXY=             -2.4620  XXZ=             -7.4149  XZZ=              2.8284  YZZ=             -3.0899
  YYZ=              0.1732  XYZ=             -0.2266
 Hexadecapole moment (field-independent basis, Debye-Ang**3):
 XXXX=          -2083.9021 YYYY=           -599.2665 ZZZZ=            -99.8795 XXXY=              4.4350
 XXXZ=             -5.1784 YYYX=              0.0252 YYYZ=              0.6674 ZZZX=             -0.5981
 ZZZY=             -0.4656 XXYY=           -508.2008 XXZZ=           -585.8484 YYZZ=           -142.0460
 XXYZ=              0.7880 YYXZ=             -0.1657 ZZXY=              0.4499
 N-N= 7.866317718077D+02 E-N=-2.809968607860D+03  KE= 5.381126923191D+02
 Unable to Open any file for archive entry.
 1\1\GINC-GADI-CPU-CLX-0072\SP\RM062X TD-FC\6-311++G(d,p)\C14H11(1+)\TS
 1578\26-Jul-2022\0\\#n M062X/6-311++G(d,p) TD(NStates=1) EmpiricalDisp
 ersion=GD3 SP\\SP_5\\1,1\C,0,2.4927,1.2721,0.01\C,0,3.7015,0.6147,0.06
 9\C,0,3.6839,-0.6981,0.053\C,0,2.4632,-1.2989,-0.006\C,0,-2.4632,-1.41
 89,0.026\C,0,-3.6839,-0.7481,0.117\C,0,-3.7015,0.6747,0.101\C,0,-2.492
 7,1.4021,0.01\C,0,0.,1.4461,-0.075\C,0,0.,-1.3625,-0.075\C,0,1.2621,0.
 6887,-0.043\C,0,1.2375,-0.6941,-0.067\C,0,-1.2621,0.7187,-0.087\C,0,-1
 .2375,-0.7141,-0.063\H,0,2.4881,2.2973,0.01\H,0,4.6368,1.1294,0.116\H,
 0,4.6093,-1.2157,0.126\H,0,2.4675,-2.3284,-0.006\H,0,0.,-2.4516,-0.08\
 H,0,-2.4675,-2.5984,0.026\H,0,-4.6093,-1.3157,0.134\H,0,-4.6368,1.2394
 ,0.144\H,0,-2.4881,2.5873,0.01\H,0,0.,2.0665,-0.9346\H,0,0.,2.0665,0.7
 846\\Version=ES64L-G16RevC.01\State=1-A\HF=-539.7212321\RMSD=8.833e-09
 \PG=C01 [X(C14H11)]\\@
 The archive entry for this job was punched.


 IT IS BY LOGIC THAT WE PROVE, BUT BY INTUITION THAT WE DISCOVER.
     -- J.H.POINCARE (1854-1912)
 Job cpu time:       0 days  1 hours  2 minutes 39.4 seconds.
 Elapsed time:       0 days  0 hours  6 minutes 35.1 seconds.
 File lengths (MBytes):  RWF=    460 Int=      0 D2E=      0 Chk=     15 Scr=      1
 Normal termination of Gaussian 16 at Tue Jul 26 20:25:07 2022.
