 Entering Gaussian System, Link 0=g16
 Initial command:
 /apps/gaussian/g16c01/g16/l1.exe "/jobfs/52814925.gadi-pbs/Gau-3908946.inp" -scrdir="/jobfs/52814925.gadi-pbs/"
 Entering Link 1 = /apps/gaussian/g16c01/g16/l1.exe PID=   3908947.
  
 Copyright (c) 1988-2019, Gaussian, Inc.  All Rights Reserved.
  
 This is part of the Gaussian(R) 16 program.  It is based on
 the Gaussian(R) 09 system (copyright 2009, Gaussian, Inc.),
 the Gaussian(R) 03 system (copyright 2003, Gaussian, Inc.),
 the Gaussian(R) 98 system (copyright 1998, Gaussian, Inc.),
 the Gaussian(R) 94 system (copyright 1995, Gaussian, Inc.),
 the Gaussian 92(TM) system (copyright 1992, Gaussian, Inc.),
 the Gaussian 90(TM) system (copyright 1990, Gaussian, Inc.),
 the Gaussian 88(TM) system (copyright 1988, Gaussian, Inc.),
 the Gaussian 86(TM) system (copyright 1986, Carnegie Mellon
 University), and the Gaussian 82(TM) system (copyright 1983,
 Carnegie Mellon University). Gaussian is a federally registered
 trademark of Gaussian, Inc.
  
 This software contains proprietary and confidential information,
 including trade secrets, belonging to Gaussian, Inc.
  
 This software is provided under written license and may be
 used, copied, transmitted, or stored only in accord with that
 written license.
  
 The following legend is applicable only to US Government
 contracts under FAR:
  
                    RESTRICTED RIGHTS LEGEND
  
 Use, reproduction and disclosure by the US Government is
 subject to restrictions as set forth in subparagraphs (a)
 and (c) of the Commercial Computer Software - Restricted
 Rights clause in FAR 52.227-19.
  
 Gaussian, Inc.
 340 Quinnipiac St., Bldg. 40, Wallingford CT 06492
  
  
 ---------------------------------------------------------------
 Warning -- This program may not be used in any manner that
 competes with the business of Gaussian, Inc. or will provide
 assistance to any competitor of Gaussian, Inc.  The licensee
 of this program is prohibited from giving any competitor of
 Gaussian, Inc. access to this program.  By using this program,
 the user acknowledges that Gaussian, Inc. is engaged in the
 business of creating and licensing software in the field of
 computational chemistry and represents and warrants to the
 licensee that it is not a competitor of Gaussian, Inc. and that
 it will not use this program in any manner prohibited above.
 ---------------------------------------------------------------
  

 Cite this work as:
 Gaussian 16, Revision C.01,
 M. J. Frisch, G. W. Trucks, H. B. Schlegel, G. E. Scuseria, 
 M. A. Robb, J. R. Cheeseman, G. Scalmani, V. Barone, 
 G. A. Petersson, H. Nakatsuji, X. Li, M. Caricato, A. V. Marenich, 
 J. Bloino, B. G. Janesko, R. Gomperts, B. Mennucci, H. P. Hratchian, 
 J. V. Ortiz, A. F. Izmaylov, J. L. Sonnenberg, D. Williams-Young, 
 F. Ding, F. Lipparini, F. Egidi, J. Goings, B. Peng, A. Petrone, 
 T. Henderson, D. Ranasinghe, V. G. Zakrzewski, J. Gao, N. Rega, 
 G. Zheng, W. Liang, M. Hada, M. Ehara, K. Toyota, R. Fukuda, 
 J. Hasegawa, M. Ishida, T. Nakajima, Y. Honda, O. Kitao, H. Nakai, 
 T. Vreven, K. Throssell, J. A. Montgomery, Jr., J. E. Peralta, 
 F. Ogliaro, M. J. Bearpark, J. J. Heyd, E. N. Brothers, K. N. Kudin, 
 V. N. Staroverov, T. A. Keith, R. Kobayashi, J. Normand, 
 K. Raghavachari, A. P. Rendell, J. C. Burant, S. S. Iyengar, 
 J. Tomasi, M. Cossi, J. M. Millam, M. Klene, C. Adamo, R. Cammi, 
 J. W. Ochterski, R. L. Martin, K. Morokuma, O. Farkas, 
 J. B. Foresman, and D. J. Fox, Gaussian, Inc., Wallingford CT, 2019.
 
 ******************************************
 Gaussian 16:  ES64L-G16RevC.01  3-Jul-2019
                27-Jul-2022 
 ******************************************
 %NProcShared=16
 Will use up to   16 processors via shared memory.
 %mem = 64GB
 ---------------------------------------------------------------
 #n M062X/6-311++G(d,p) TD(NStates=1) EmpiricalDispersion=GD3 SP
 ---------------------------------------------------------------
 1/38=1,172=1/1;
 2/12=2,17=6,18=5,40=1/2;
 3/5=4,6=6,7=1111,11=9,25=1,30=1,74=-55,124=31/1,2,3,8;
 4//1;
 5/5=2,38=5/2;
 8/6=1,10=2,108=1/1;
 9/41=1,42=1,70=2/14;
 6/7=2,8=2,9=2,10=2/1;
 99/5=1,9=1/99;
 -----
 SP_-3
 -----
 Symbolic Z-matrix:
 Charge =  1 Multiplicity = 1
 C                     0.        2.46866   1.35743 
 C                     0.        3.71951   0.67499 
 C                     0.        3.68986  -0.71083 
 C                     0.        2.45716  -1.39854 
 C                     0.       -2.46916  -1.41654 
 C                     0.       -3.67786  -0.71683 
 C                     0.       -3.68351   0.66899 
 C                     0.       -2.51666   1.36343 
 C                     0.        0.024     1.45337 
 C                     0.        0.048    -1.42919 
 C                     0.        1.24706   0.72207 
 C                     0.        1.21047  -0.7848 
 C                     0.       -1.27706   0.63207 
 C                     0.       -1.26447  -0.6768 
 H                     0.        2.58107   2.44365 
 H                     0.        4.68475   1.16669 
 H                     0.        4.65126  -1.21235 
 H                     0.        2.36255  -2.48406 
 H                     0.       -0.045    -2.51027 
 H                     0.       -2.57255  -2.49606 
 H                     0.       -4.56726  -1.33235 
 H                     0.       -4.58875   1.25669 
 H                     0.       -2.39507   2.44365 
 H                    -0.85959   0.078     2.14579 
 H                     0.85959   0.078     2.14579 
 
                          Input orientation:                          
 ---------------------------------------------------------------------
 Center     Atomic      Atomic             Coordinates (Angstroms)
 Number     Number       Type             X           Y           Z
 ---------------------------------------------------------------------
      1          6           0        0.000000    2.468655    1.357431
      2          6           0        0.000000    3.719508    0.674989
      3          6           0        0.000000    3.689861   -0.710830
      4          6           0        0.000000    2.457156   -1.398538
      5          6           0        0.000000   -2.469156   -1.416538
      6          6           0        0.000000   -3.677861   -0.716830
      7          6           0        0.000000   -3.683508    0.668989
      8          6           0        0.000000   -2.516655    1.363431
      9          6           0        0.000000    0.024000    1.453369
     10          6           0        0.000000    0.048000   -1.429189
     11          6           0        0.000000    1.247055    0.722065
     12          6           0        0.000000    1.210471   -0.784804
     13          6           0        0.000000   -1.277055    0.632065
     14          6           0        0.000000   -1.264471   -0.676804
     15          1           0        0.000000    2.581071    2.443647
     16          1           0        0.000000    4.684753    1.166689
     17          1           0        0.000000    4.651262   -1.212349
     18          1           0        0.000000    2.362550   -2.484059
     19          1           0        0.000000   -0.045000   -2.510266
     20          1           0        0.000000   -2.572550   -2.496059
     21          1           0        0.000000   -4.567262   -1.332349
     22          1           0        0.000000   -4.588753    1.256689
     23          1           0        0.000000   -2.395071    2.443647
     24          1           0       -0.859585    0.078000    2.145787
     25          1           0        0.859585    0.078000    2.145787
 ---------------------------------------------------------------------
                    Distance matrix (angstroms):
                    1          2          3          4          5
     1  C    0.000000
     2  C    1.424907   0.000000
     3  C    2.401884   1.386136   0.000000
     4  C    2.755993   2.427560   1.411561   0.000000
     5  C    5.663646   6.532538   6.199316   4.926345   0.000000
     6  C    6.487081   7.527166   7.367724   6.172776   1.396624
     7  C    6.190562   7.403018   7.501365   6.479384   2.413312
     8  C    4.985314   6.274048   6.543959   5.689224   2.780375
     9  C    2.446537   3.776593   4.257029   3.748816   3.801604
    10  C    3.691182   4.231730   3.712033   2.409351   2.517188
    11  C    1.376952   2.472901   2.832047   2.441578   4.287639
    12  C    2.484391   2.902802   2.480493   1.389566   3.733463
    13  C    3.815298   4.996747   5.145252   4.250609   2.370207
    14  C    4.251393   5.164048   4.954449   3.790964   1.413673
    15  H    1.092018   2.103376   3.343672   3.844183   6.356557
    16  H    2.224292   1.083267   2.124827   3.397437   7.606016
    17  H    3.371579   2.104806   1.084349   2.201992   7.123345
    18  H    3.842955   3.438156   2.214971   1.089636   4.948230
    19  H    4.612759   4.931265   4.145740   2.738015   2.659469
    20  H    6.345324   7.045959   6.511899   5.148057   1.084461
    21  H    7.532532   8.526427   8.280481   7.024730   2.099794
    22  H    7.058127   8.328600   8.509206   7.529612   3.411574
    23  H    4.983542   6.365236   6.853986   6.189224   3.860896
    24  H    2.660004   4.020288   4.684516   4.354482   4.462852
    25  H    2.660004   4.020288   4.684516   4.354482   4.462852
                    6          7          8          9         10
     6  C    0.000000
     7  C    1.385831   0.000000
     8  C    2.382412   1.357864   0.000000
     9  C    4.291100   3.789574   2.542246   0.000000
    10  C    3.793349   4.280946   3.791594   2.882658   0.000000
    11  C    5.130811   4.930849   3.817966   1.425015   2.462849
    12  C    4.888805   5.105345   4.301904   2.533206   1.329124
    13  C    2.753795   2.406736   1.439272   1.538598   2.450416
    14  C    2.413722   2.768194   2.393851   2.489537   1.512833
    15  H    7.011622   6.511095   5.210919   2.742127   4.627668
    16  H    8.572103   8.383048   7.204095   4.669561   5.313950
    17  H    8.343850   8.544462   7.616671   5.340188   4.608366
    18  H    6.293621   6.818836   6.213680   4.579537   2.543598
    19  H    4.051431   4.831812   4.595063   3.964236   1.085070
    20  H    2.094605   3.354364   3.859895   4.726527   2.829398
    21  H    1.081618   2.187779   3.387066   5.370280   4.616278
    22  H    2.173592   1.079287   2.074846   4.616944   5.358490
    23  H    3.410889   2.193053   1.087037   2.613916   4.579023
    24  H    4.799995   4.131436   2.843097   1.105100   3.676988
    25  H    4.799995   4.131436   2.843097   1.105100   3.676988
                   11         12         13         14         15
    11  C    0.000000
    12  C    1.507313   0.000000
    13  C    2.525714   2.862744   0.000000
    14  C    2.874821   2.477297   1.308929   0.000000
    15  H    2.177945   3.507341   4.262272   4.952313   0.000000
    16  H    3.466332   3.984841   5.985731   6.228301   2.460914
    17  H    3.915429   3.467252   6.208607   5.939925   4.201428
    18  H    3.394637   2.052987   4.791341   4.052339   4.932549
    19  H    3.481001   2.133876   3.375234   2.201975   5.606916
    20  H    4.994567   4.152065   3.385774   2.240705   7.138663
    21  H    6.166595   5.803620   3.832021   3.367220   8.084356
    22  H    5.860246   6.148064   3.370089   3.845679   7.267410
    23  H    4.028514   4.839714   2.128800   3.318956   4.976142
    24  H    2.032870   3.257260   2.205995   3.241625   2.663263
    25  H    2.032870   3.257260   2.205995   3.241625   2.663263
                   16         17         18         19         20
    16  H    0.000000
    17  H    2.379274   0.000000
    18  H    4.326729   2.618291   0.000000
    19  H    5.990873   4.872316   2.407693   0.000000
    20  H    8.129217   7.336987   4.935115   2.527590   0.000000
    21  H    9.583578   9.219305   7.024865   4.673151   2.309350
    22  H    9.273943   9.564205   7.893910   5.902173   4.260069
    23  H    7.194062   7.938332   6.849616   5.483073   4.942893
    24  H    4.787452   5.738527   5.233883   4.736332   5.413967
    25  H    4.787452   5.738527   5.233883   4.736332   5.413967
                   21         22         23         24         25
    21  H    0.000000
    22  H    2.589127   0.000000
    23  H    4.356209   2.494215   0.000000
    24  H    5.866411   4.827832   2.635088   0.000000
    25  H    5.866411   4.827832   2.635088   1.719170   0.000000
 Stoichiometry    C14H11(1+)
 Framework group  CS[SG(C14H9),X(H2)]
 Deg. of freedom    46
 Full point group                 CS      NOp   2
 Largest Abelian subgroup         CS      NOp   2
 Largest concise Abelian subgroup CS      NOp   2
                         Standard orientation:                         
 ---------------------------------------------------------------------
 Center     Atomic      Atomic             Coordinates (Angstroms)
 Number     Number       Type             X           Y           Z
 ---------------------------------------------------------------------
      1          6           0       -2.310403   -1.610131    0.000000
      2          6           0       -2.253057   -3.033884    0.000000
      3          6           0       -0.997652   -3.621532    0.000000
      4          6           0        0.165179   -2.821326    0.000000
      5          6           0        2.364757    1.586704    0.000000
      6          6           0        2.273253    2.980328    0.000000
      7          6           0        1.033491    3.599613    0.000000
      8          6           0       -0.106189    2.861423    0.000000
      9          6           0       -1.312882    0.623810    0.000000
     10          6           0        1.260442   -0.675313    0.000000
     11          6           0       -1.199415   -0.796681    0.000000
     12          6           0        0.167576   -1.431762    0.000000
     13          6           0        0.000000    1.426073    0.000000
     14          6           0        1.167709    0.834675    0.000000
     15          1           0       -3.333926   -1.229469    0.000000
     16          1           0       -3.121640   -3.681210    0.000000
     17          1           0       -0.974197   -4.705627    0.000000
     18          1           0        1.180185   -3.217645    0.000000
     19          1           0        2.270753   -1.071103    0.000000
     20          1           0        3.378280    1.200922    0.000000
     21          1           0        3.219213    3.504787    0.000000
     22          1           0        0.907892    4.671567    0.000000
     23          1           0       -1.128397    3.231207    0.000000
     24          1           0       -1.957508    0.882298    0.859585
     25          1           0       -1.957508    0.882298   -0.859585
 ---------------------------------------------------------------------
 Rotational constants (GHZ):           2.1350589           0.4445696           0.3687528
 Standard basis: 6-311++G(d,p) (5D, 7F)
 There are   299 symmetry adapted cartesian basis functions of A'  symmetry.
 There are   100 symmetry adapted cartesian basis functions of A"  symmetry.
 There are   285 symmetry adapted basis functions of A'  symmetry.
 There are   100 symmetry adapted basis functions of A"  symmetry.
   385 basis functions,   603 primitive gaussians,   399 cartesian basis functions
    47 alpha electrons       47 beta electrons
       nuclear repulsion energy       781.4002734873 Hartrees.
 NAtoms=   25 NActive=   25 NUniq=   24 SFac= 1.09D+00 NAtFMM=   60 NAOKFM=F Big=F
 Integral buffers will be    131072 words long.
 Regular integral format.
 Two-electron integral symmetry is turned on.
 Nuclear repulsion after empirical dispersion term =      781.3992941654 Hartrees.
 One-electron integrals computed using PRISM.
 NBasis=   385 RedAO= T EigKep=  2.34D-06  NBF=   285   100
 NBsUse=   378 1.00D-06 EigRej=  9.47D-07 NBFU=   278   100
 ExpMin= 3.60D-02 ExpMax= 4.56D+03 ExpMxC= 6.82D+02 IAcc=3 IRadAn=         5 AccDes= 0.00D+00
 Harris functional with IExCor= 1009 and IRadAn=       5 diagonalized for initial guess.
 HarFok:  IExCor= 1009 AccDes= 0.00D+00 IRadAn=         5 IDoV= 1 UseB2=F ITyADJ=14
 ICtDFT=  3500011 ScaDFX=  1.000000  1.000000  1.000000  1.000000
 FoFCou: FMM=F IPFlag=           0 FMFlag=      100000 FMFlg1=           0
         NFxFlg=           0 DoJE=T BraDBF=F KetDBF=T FulRan=T
         wScrn=  0.000000 ICntrl=       500 IOpCl=  0 I1Cent=   200000004 NGrid=           0
         NMat0=    1 NMatS0=      1 NMatT0=    0 NMatD0=    1 NMtDS0=    0 NMtDT0=    0
 Petite list used in FoFCou.
 Initial guess orbital symmetries:
       Occupied  (A') (A') (A') (A') (A') (A') (A') (A') (A') (A')
                 (A') (A') (A') (A') (A') (A') (A') (A') (A') (A')
                 (A') (A') (A') (A') (A') (A') (A') (A') (A') (A')
                 (A') (A') (A") (A') (A') (A') (A') (A') (A") (A')
                 (A") (A') (A') (A") (A") (A") (A")
       Virtual   (A") (A") (A") (A") (A") (A') (A') (A') (A') (A")
                 (A') (A") (A') (A') (A") (A') (A') (A') (A') (A')
                 (A") (A') (A") (A') (A") (A') (A') (A') (A") (A')
                 (A') (A') (A') (A") (A') (A') (A') (A") (A') (A')
                 (A") (A') (A') (A') (A") (A') (A') (A') (A") (A')
                 (A') (A") (A") (A') (A') (A') (A') (A") (A") (A')
                 (A') (A') (A') (A') (A') (A") (A') (A') (A') (A")
                 (A') (A') (A') (A') (A') (A') (A') (A') (A') (A')
                 (A') (A') (A') (A') (A') (A') (A') (A') (A') (A')
                 (A') (A') (A') (A') (A') (A') (A") (A") (A') (A')
                 (A") (A') (A") (A') (A") (A') (A") (A') (A') (A")
                 (A") (A') (A') (A") (A') (A') (A") (A") (A') (A")
                 (A") (A') (A') (A') (A') (A") (A') (A') (A") (A')
                 (A') (A') (A') (A') (A') (A') (A") (A') (A') (A')
                 (A') (A') (A') (A') (A') (A') (A') (A') (A") (A")
                 (A') (A") (A') (A") (A') (A') (A") (A") (A') (A")
                 (A') (A") (A") (A") (A') (A') (A') (A') (A') (A')
                 (A") (A') (A') (A') (A") (A') (A') (A') (A') (A")
                 (A') (A') (A') (A") (A') (A") (A') (A") (A") (A")
                 (A') (A') (A') (A") (A') (A') (A") (A') (A') (A")
                 (A") (A") (A') (A') (A") (A") (A') (A') (A') (A')
                 (A") (A") (A") (A') (A') (A") (A') (A') (A') (A')
                 (A") (A') (A') (A') (A") (A') (A") (A') (A') (A")
                 (A') (A') (A") (A') (A') (A") (A') (A") (A') (A")
                 (A') (A') (A') (A') (A") (A') (A') (A') (A') (A")
                 (A') (A') (A") (A") (A') (A") (A') (A') (A') (A')
                 (A') (A") (A") (A') (A') (A") (A') (A') (A") (A')
                 (A') (A') (A") (A') (A") (A') (A") (A') (A') (A")
                 (A') (A") (A") (A') (A") (A') (A') (A') (A') (A')
                 (A') (A') (A') (A') (A') (A') (A') (A') (A') (A')
                 (A') (A') (A') (A") (A') (A') (A') (A') (A') (A')
                 (A') (A') (A') (A') (A') (A') (A') (A') (A') (A')
                 (A') (A') (A') (A') (A') (A') (A') (A') (A') (A')
                 (A')
 The electronic state of the initial guess is 1-A'.
 Requested convergence on RMS density matrix=1.00D-08 within 128 cycles.
 Requested convergence on MAX density matrix=1.00D-06.
 Requested convergence on             energy=1.00D-06.
 No special actions if energy rises.
 SCF Done:  E(RM062X) =  -539.722825113     A.U. after   15 cycles
            NFock= 15  Conv=0.31D-08     -V/T= 2.0039
 DoSCS=F DFT=T ScalE2(SS,OS)=  1.000000  1.000000
 ExpMin= 3.60D-02 ExpMax= 4.56D+03 ExpMxC= 6.82D+02 IAcc=3 IRadAn=         5 AccDes= 0.00D+00
 HarFok:  IExCor=  205 AccDes= 0.00D+00 IRadAn=         5 IDoV=-2 UseB2=F ITyADJ=14
 ICtDFT= 12500011 ScaDFX=  1.000000  1.000000  1.000000  1.000000
 Range of M.O.s used for correlation:    15   378
 NBasis=   385 NAE=    47 NBE=    47 NFC=    14 NFV=     0
 NROrb=    364 NOA=    33 NOB=    33 NVA=   331 NVB=   331

 **** Warning!!: The largest alpha MO coefficient is  0.12041328D+03

 Orbital symmetries:
       Occupied  (A') (A') (A') (A') (A') (A') (A') (A') (A') (A')
                 (A') (A') (A') (A') (A') (A') (A') (A') (A') (A')
                 (A') (A') (A') (A') (A') (A') (A') (A') (A') (A')
                 (A') (A") (A') (A') (A') (A') (A') (A") (A') (A")
                 (A') (A') (A') (A") (A") (A") (A")
       Virtual   (A") (A") (A") (A") (A') (A') (A') (A') (A") (A')
                 (A') (A") (A') (A') (A") (A') (A") (A') (A') (A')
                 (A") (A") (A') (A') (A') (A") (A') (A") (A') (A')
                 (A") (A') (A') (A") (A') (A') (A') (A') (A") (A')
                 (A") (A') (A') (A") (A") (A') (A") (A') (A') (A')
                 (A") (A') (A') (A') (A') (A") (A') (A') (A') (A')
                 (A') (A") (A') (A') (A') (A") (A') (A') (A') (A')
                 (A') (A') (A') (A') (A') (A') (A') (A') (A') (A')
                 (A') (A') (A') (A') (A') (A') (A') (A') (A') (A')
                 (A') (A') (A") (A') (A") (A') (A") (A') (A') (A")
                 (A') (A') (A') (A") (A') (A") (A") (A') (A") (A')
                 (A') (A") (A') (A") (A') (A') (A") (A') (A") (A")
                 (A') (A') (A") (A') (A') (A") (A') (A') (A') (A')
                 (A') (A') (A') (A') (A') (A') (A') (A') (A') (A')
                 (A') (A') (A") (A') (A') (A') (A') (A') (A') (A')
                 (A') (A") (A') (A") (A") (A') (A") (A') (A") (A")
                 (A") (A') (A') (A") (A") (A') (A') (A") (A') (A')
                 (A') (A') (A") (A') (A") (A') (A') (A") (A') (A')
                 (A') (A') (A") (A') (A") (A') (A") (A') (A") (A")
                 (A') (A') (A') (A") (A') (A") (A') (A') (A') (A")
                 (A") (A") (A') (A") (A') (A") (A') (A') (A') (A')
                 (A") (A') (A") (A") (A') (A') (A") (A') (A") (A')
                 (A') (A') (A') (A') (A") (A') (A") (A') (A') (A")
                 (A') (A') (A") (A') (A') (A') (A") (A") (A') (A")
                 (A') (A') (A') (A") (A') (A') (A') (A') (A') (A')
                 (A") (A') (A') (A") (A") (A') (A') (A') (A") (A')
                 (A') (A') (A') (A') (A') (A") (A') (A') (A') (A')
                 (A") (A") (A') (A") (A") (A') (A") (A') (A") (A")
                 (A') (A") (A') (A") (A') (A") (A') (A') (A') (A')
                 (A') (A') (A') (A') (A') (A') (A') (A') (A') (A')
                 (A') (A') (A') (A") (A') (A') (A') (A') (A') (A')
                 (A') (A') (A') (A') (A') (A') (A') (A') (A') (A')
                 (A') (A') (A') (A') (A') (A') (A') (A') (A') (A')
                 (A')
     4 initial guesses have been made.
 Convergence on wavefunction:    0.001000000000000
 Iteration     1 Dimension     4 NMult     0 NNew      4
 CISAX will form     4 AO SS matrices at one time.
 Iteration     2 Dimension     6 NMult     4 NNew      2
 Iteration     3 Dimension     8 NMult     6 NNew      2
 Iteration     4 Dimension    10 NMult     8 NNew      2
 Iteration     5 Dimension    12 NMult    10 NNew      2
 Iteration     6 Dimension    14 NMult    12 NNew      2
 ***********************************************************************
 Excited states from <AA,BB:AA,BB> singles matrix:
 ***********************************************************************
 
 Ground to excited state transition densities written to RWF  633
 Ground to excited state transition electric dipole moments (Au):
       state          X           Y           Z        Dip. S.      Osc.
         1         0.6349      0.0038      0.0000      0.4031      0.0272
 Ground to excited state transition velocity dipole moments (Au):
       state          X           Y           Z        Dip. S.      Osc.
         1        -0.0713      0.0011      0.0000      0.0051      0.0335
 Ground to excited state transition magnetic dipole moments (Au):
       state          X           Y           Z
         1         0.0000      0.0000     -0.4231
 Ground to excited state transition velocity quadrupole moments (Au):
       state          XX          YY          ZZ          XY          XZ          YZ
         1        -0.0314     -0.2594      0.0100     -0.0577      0.0000     -0.0000
 <0|del|b> * <b|rxdel|0> + <0|del|b> * <b|delr+rdel|0>
 Rotatory Strengths (R) in cgs (10**-40 erg-esu-cm/Gauss)
       state          XX          YY          ZZ    R(velocity)    E-M Angle
         1        -0.0000     -0.0000     -0.0000     -0.0000       90.00
 1/2[<0|r|b>*<b|rxdel|0> + (<0|rxdel|b>*<b|r|0>)*]
 Rotatory Strengths (R) in cgs (10**-40 erg-esu-cm/Gauss)
       state          XX          YY          ZZ     R(length)
         1        -0.0000     -0.0000      0.0000      0.0000
  1/2[<0|del|b>*<b|r|0> + (<0|r|b>*<b|del|0>)*] (Au)
       state          X           Y           Z        Dip. S.   Osc.(frdel)
         1        -0.0453      0.0000      0.0000      0.0453      0.0302

 Excitation energies and oscillator strengths:
 
 Excited State   1:      Singlet-A'     2.7532 eV  450.34 nm  f=0.0272  <S**2>=0.000
      47 -> 48         0.69659
 This state for optimization and/or second-order correction.
 Total Energy, E(TD-HF/TD-DFT) =  -539.621648591    
 Copying the excited state density for this state as the 1-particle RhoCI density.
 SavETr:  write IOETrn=   770 NScale= 10 NData=  16 NLR=1 NState=    1 LETran=      28.

 **********************************************************************

            Population analysis using the SCF Density.

 **********************************************************************

 Orbital symmetries:
       Occupied  (A') (A') (A') (A') (A') (A') (A') (A') (A') (A')
                 (A') (A') (A') (A') (A') (A') (A') (A') (A') (A')
                 (A') (A') (A') (A') (A') (A') (A') (A') (A') (A')
                 (A') (A") (A') (A') (A') (A') (A') (A") (A') (A")
                 (A') (A') (A') (A") (A") (A") (A")
       Virtual   (A") (A") (A") (A") (A') (A') (A') (A') (A") (A')
                 (A') (A") (A') (A') (A") (A') (A") (A') (A') (A')
                 (A") (A") (A') (A') (A') (A") (A') (A") (A') (A')
                 (A") (A') (A') (A") (A') (A') (A') (A') (A") (A')
                 (A") (A') (A') (A") (A") (A') (A") (A') (A') (A')
                 (A") (A') (A') (A') (A') (A") (A') (A') (A') (A')
                 (A') (A") (A') (A') (A') (A") (A') (A') (A') (A')
                 (A') (A') (A') (A') (A') (A') (A') (A') (A') (A')
                 (A') (A') (A') (A') (A') (A') (A') (A') (A') (A')
                 (A') (A') (A") (A') (A") (A') (A") (A') (A') (A")
                 (A') (A') (A') (A") (A') (A") (A") (A') (A") (A')
                 (A') (A") (A') (A") (A') (A') (A") (A') (A") (A")
                 (A') (A') (A") (A') (A') (A") (A') (A') (A') (A')
                 (A') (A') (A') (A') (A') (A') (A') (A') (A') (A')
                 (A') (A') (A") (A') (A') (A') (A') (A') (A') (A')
                 (A') (A") (A') (A") (A") (A') (A") (A') (A") (A")
                 (A") (A') (A') (A") (A") (A') (A') (A") (A') (A')
                 (A') (A') (A") (A') (A") (A') (A') (A") (A') (A')
                 (A') (A') (A") (A') (A") (A') (A") (A') (A") (A")
                 (A') (A') (A') (A") (A') (A") (A') (A') (A') (A")
                 (A") (A") (A') (A") (A') (A") (A') (A') (A') (A')
                 (A") (A') (A") (A") (A') (A') (A") (A') (A") (A')
                 (A') (A') (A') (A') (A") (A') (A") (A') (A') (A")
                 (A') (A') (A") (A') (A') (A') (A") (A") (A') (A")
                 (A') (A') (A') (A") (A') (A') (A') (A') (A') (A')
                 (A") (A') (A') (A") (A") (A') (A') (A') (A") (A')
                 (A') (A') (A') (A') (A') (A") (A') (A') (A') (A')
                 (A") (A") (A') (A") (A") (A') (A") (A') (A") (A")
                 (A') (A") (A') (A") (A') (A") (A') (A') (A') (A')
                 (A') (A') (A') (A') (A') (A') (A') (A') (A') (A')
                 (A') (A') (A') (A") (A') (A') (A') (A') (A') (A')
                 (A') (A') (A') (A') (A') (A') (A') (A') (A') (A')
                 (A') (A') (A') (A') (A') (A') (A') (A') (A') (A')
                 (A')
 The electronic state is 1-A'.
 Alpha  occ. eigenvalues --  -10.77177 -10.74514 -10.73240 -10.73121 -10.72902
 Alpha  occ. eigenvalues --  -10.71622 -10.71472 -10.70969 -10.70932 -10.70914
 Alpha  occ. eigenvalues --  -10.69780 -10.69055 -10.68959 -10.68457  -1.16644
 Alpha  occ. eigenvalues --   -1.12528  -1.07352  -1.06383  -1.01078  -0.99989
 Alpha  occ. eigenvalues --   -0.95951  -0.91512  -0.86167  -0.85676  -0.83479
 Alpha  occ. eigenvalues --   -0.78510  -0.76080  -0.74351  -0.70935  -0.69170
 Alpha  occ. eigenvalues --   -0.68373  -0.68258  -0.67117  -0.65304  -0.63624
 Alpha  occ. eigenvalues --   -0.62453  -0.61718  -0.60358  -0.59962  -0.59620
 Alpha  occ. eigenvalues --   -0.56467  -0.55024  -0.53312  -0.52743  -0.46827
 Alpha  occ. eigenvalues --   -0.46233  -0.44129
 Alpha virt. eigenvalues --   -0.26264  -0.14851  -0.13677  -0.12525  -0.11228
 Alpha virt. eigenvalues --   -0.10144  -0.09328  -0.08011  -0.07791  -0.07465
 Alpha virt. eigenvalues --   -0.07225  -0.07036  -0.05643  -0.05588  -0.05438
 Alpha virt. eigenvalues --   -0.03875  -0.03683  -0.03320  -0.03115  -0.02088
 Alpha virt. eigenvalues --   -0.01354  -0.00935   0.00070   0.00475   0.00585
 Alpha virt. eigenvalues --    0.00992   0.01491   0.01648   0.01800   0.02302
 Alpha virt. eigenvalues --    0.02478   0.02841   0.02983   0.03126   0.03973
 Alpha virt. eigenvalues --    0.04384   0.04844   0.05043   0.05095   0.05336
 Alpha virt. eigenvalues --    0.06081   0.06189   0.06547   0.07062   0.07266
 Alpha virt. eigenvalues --    0.07725   0.07832   0.07935   0.08750   0.08886
 Alpha virt. eigenvalues --    0.09009   0.09094   0.09827   0.09897   0.10920
 Alpha virt. eigenvalues --    0.11164   0.11741   0.12336   0.12984   0.13290
 Alpha virt. eigenvalues --    0.13398   0.13579   0.13936   0.15299   0.15850
 Alpha virt. eigenvalues --    0.16412   0.16901   0.17603   0.17830   0.18139
 Alpha virt. eigenvalues --    0.18394   0.19186   0.19683   0.20213   0.21337
 Alpha virt. eigenvalues --    0.21357   0.22427   0.22631   0.23296   0.23521
 Alpha virt. eigenvalues --    0.23826   0.25047   0.26564   0.27792   0.28496
 Alpha virt. eigenvalues --    0.29835   0.30315   0.31705   0.34025   0.37237
 Alpha virt. eigenvalues --    0.37914   0.38755   0.40931   0.41310   0.41876
 Alpha virt. eigenvalues --    0.42242   0.43124   0.43335   0.43679   0.44477
 Alpha virt. eigenvalues --    0.44574   0.45901   0.46753   0.47759   0.48193
 Alpha virt. eigenvalues --    0.48307   0.48801   0.49149   0.50587   0.51459
 Alpha virt. eigenvalues --    0.51764   0.52319   0.53442   0.54051   0.54441
 Alpha virt. eigenvalues --    0.54543   0.55680   0.56467   0.57371   0.58212
 Alpha virt. eigenvalues --    0.59163   0.61267   0.61499   0.62925   0.63260
 Alpha virt. eigenvalues --    0.63918   0.64616   0.65061   0.66406   0.70163
 Alpha virt. eigenvalues --    0.70345   0.70862   0.71884   0.72429   0.75155
 Alpha virt. eigenvalues --    0.75864   0.76033   0.76957   0.77251   0.77593
 Alpha virt. eigenvalues --    0.78246   0.78583   0.79994   0.80247   0.80890
 Alpha virt. eigenvalues --    0.81981   0.82436   0.83229   0.84711   0.87125
 Alpha virt. eigenvalues --    0.87565   0.88637   0.89490   0.89881   0.91125
 Alpha virt. eigenvalues --    0.91270   0.94043   0.94738   0.96203   0.97312
 Alpha virt. eigenvalues --    1.00481   1.00565   1.00816   1.03103   1.03762
 Alpha virt. eigenvalues --    1.03994   1.05421   1.05774   1.09544   1.18256
 Alpha virt. eigenvalues --    1.22403   1.23100   1.23770   1.28458   1.29278
 Alpha virt. eigenvalues --    1.32747   1.33561   1.35970   1.36226   1.37443
 Alpha virt. eigenvalues --    1.40461   1.41659   1.41928   1.43592   1.44295
 Alpha virt. eigenvalues --    1.44440   1.44826   1.45324   1.47239   1.48121
 Alpha virt. eigenvalues --    1.48589   1.51189   1.52524   1.53485   1.55421
 Alpha virt. eigenvalues --    1.55968   1.57378   1.59207   1.61670   1.62066
 Alpha virt. eigenvalues --    1.62722   1.64183   1.65905   1.67174   1.67250
 Alpha virt. eigenvalues --    1.68934   1.69884   1.74126   1.75994   1.77047
 Alpha virt. eigenvalues --    1.78702   1.79610   1.80582   1.82239   1.82334
 Alpha virt. eigenvalues --    1.83512   1.83526   1.84791   1.84935   1.85356
 Alpha virt. eigenvalues --    1.85636   1.86401   1.87903   1.90248   1.90964
 Alpha virt. eigenvalues --    1.94878   1.96398   1.98599   1.99305   1.99730
 Alpha virt. eigenvalues --    2.03405   2.05206   2.07019   2.11444   2.12648
 Alpha virt. eigenvalues --    2.14680   2.15127   2.19325   2.20741   2.23967
 Alpha virt. eigenvalues --    2.27532   2.29467   2.32892   2.34717   2.35050
 Alpha virt. eigenvalues --    2.37505   2.39247   2.40893   2.44556   2.45345
 Alpha virt. eigenvalues --    2.46116   2.48020   2.54545   2.54566   2.56019
 Alpha virt. eigenvalues --    2.56175   2.56202   2.58328   2.58727   2.59583
 Alpha virt. eigenvalues --    2.60180   2.61196   2.63044   2.63446   2.65027
 Alpha virt. eigenvalues --    2.65124   2.65911   2.66473   2.68488   2.70176
 Alpha virt. eigenvalues --    2.70683   2.73669   2.73985   2.74725   2.76277
 Alpha virt. eigenvalues --    2.78522   2.79931   2.81179   2.83423   2.86212
 Alpha virt. eigenvalues --    2.86277   2.92443   2.96358   2.97072   3.01895
 Alpha virt. eigenvalues --    3.02341   3.09754   3.10763   3.14250   3.15718
 Alpha virt. eigenvalues --    3.21532   3.27221   3.28200   3.31744   3.33970
 Alpha virt. eigenvalues --    3.37345   3.40611   3.43649   3.45009   3.49283
 Alpha virt. eigenvalues --    3.54218   3.57248   3.64095   3.66326   3.76152
 Alpha virt. eigenvalues --    3.92263   3.92980   3.95080   3.95662   4.01907
 Alpha virt. eigenvalues --    4.03451   4.07917   4.10953   4.33131   4.56846
 Alpha virt. eigenvalues --    4.63834   4.72808  23.43813  23.55395  23.69002
 Alpha virt. eigenvalues --   23.78438  23.81898  23.93175  23.93654  23.94446
 Alpha virt. eigenvalues --   24.01743  24.03422  24.06821  24.16624  24.17308
 Alpha virt. eigenvalues --   24.26092
          Condensed to atoms (all electrons):
               1          2          3          4          5          6
     1  C    8.820175   0.756962  -0.680680   1.830115   0.090788  -0.113521
     2  C    0.756962   6.369321   0.506997  -0.223979  -0.074427  -0.021867
     3  C   -0.680680   0.506997   6.782380   0.050276  -0.062066   0.025212
     4  C    1.830115  -0.223979   0.050276   8.429466   0.226993  -0.011693
     5  C    0.090788  -0.074427  -0.062066   0.226993   7.963126   0.482628
     6  C   -0.113521  -0.021867   0.025212  -0.011693   0.482628   6.288293
     7  C   -0.042159   0.019541  -0.025302  -0.154534  -0.702471   0.407499
     8  C    0.338909  -0.018967  -0.100221   0.061838   1.393461  -0.772384
     9  C   -1.984096  -0.312099   0.213177  -1.273872  -0.828052   0.010453
    10  C   -1.052175  -0.086909  -0.034286  -1.109514  -1.277941  -0.011319
    11  C   -0.405445  -0.709722   0.324792  -1.772681  -0.915389  -0.214643
    12  C   -0.789547   0.081489  -0.798398   0.222650   0.245739  -0.022441
    13  C   -0.263280  -0.045920  -0.248354  -0.673491  -0.874934   0.161901
    14  C   -0.941373  -0.262385   0.157839  -0.102365  -0.042260  -0.188530
    15  H    0.357318  -0.085032  -0.007205   0.015055   0.005425   0.001121
    16  H   -0.023544   0.375507  -0.021824   0.008531  -0.000968  -0.000269
    17  H   -0.008038  -0.026570   0.370832  -0.027330  -0.000353   0.000281
    18  H    0.044191   0.003910  -0.100715   0.408735   0.019039  -0.002914
    19  H   -0.052162  -0.011807   0.050817  -0.054862  -0.053427   0.044732
    20  H    0.008003   0.001027  -0.004291   0.014457   0.431183  -0.096045
    21  H   -0.001741  -0.000425   0.000567   0.000384  -0.065381   0.395133
    22  H    0.000145   0.000255  -0.000429  -0.001574   0.013020  -0.013826
    23  H    0.002045  -0.002455   0.001194   0.003378   0.017262   0.015550
    24  H    0.017600   0.008029  -0.003353  -0.009283  -0.008874  -0.001036
    25  H    0.017600   0.008029  -0.003353  -0.009283  -0.008874  -0.001036
               7          8          9         10         11         12
     1  C   -0.042159   0.338909  -1.984096  -1.052175  -0.405445  -0.789547
     2  C    0.019541  -0.018967  -0.312099  -0.086909  -0.709722   0.081489
     3  C   -0.025302  -0.100221   0.213177  -0.034286   0.324792  -0.798398
     4  C   -0.154534   0.061838  -1.273872  -1.109514  -1.772681   0.222650
     5  C   -0.702471   1.393461  -0.828052  -1.277941  -0.915389   0.245739
     6  C    0.407499  -0.772384   0.010453  -0.011319  -0.214643  -0.022441
     7  C    6.888446   0.605346  -0.131941  -0.055551  -0.075940  -0.390997
     8  C    0.605346   7.918138  -1.329659  -0.921020   0.002924  -0.469587
     9  C   -0.131941  -1.329659   8.113078   1.190678   1.042252  -0.512366
    10  C   -0.055551  -0.921020   1.190678   7.310083   0.191047   0.269337
    11  C   -0.075940   0.002924   1.042252   0.191047  12.141180  -0.843895
    12  C   -0.390997  -0.469587  -0.512366   0.269337  -0.843895  10.536697
    13  C   -0.411698  -0.310972   0.978033   0.624161   0.150314  -1.704803
    14  C    0.182333  -0.781406   0.528004   0.696269  -2.275046   0.141044
    15  H   -0.003365   0.005532   0.058643  -0.004373  -0.006251   0.008351
    16  H    0.000321   0.000732   0.004441  -0.006326   0.032732  -0.028724
    17  H   -0.000370  -0.001117  -0.000395   0.004984  -0.009761   0.040733
    18  H    0.001480   0.010739  -0.032589   0.035594   0.007315  -0.053628
    19  H   -0.000269  -0.049207   0.076306   0.413581   0.051705  -0.078396
    20  H    0.006697   0.046130  -0.024099   0.006580  -0.011175  -0.004745
    21  H   -0.029270  -0.016901   0.002430   0.009143  -0.004972   0.000809
    22  H    0.398000  -0.032453  -0.008990  -0.008298  -0.001778  -0.006970
    23  H   -0.069155   0.339628   0.033198  -0.002016  -0.015481   0.001191
    24  H    0.018592   0.033913   0.359418   0.003141  -0.012166  -0.057335
    25  H    0.018592   0.033913   0.359418   0.003141  -0.012166  -0.057335
              13         14         15         16         17         18
     1  C   -0.263280  -0.941373   0.357318  -0.023544  -0.008038   0.044191
     2  C   -0.045920  -0.262385  -0.085032   0.375507  -0.026570   0.003910
     3  C   -0.248354   0.157839  -0.007205  -0.021824   0.370832  -0.100715
     4  C   -0.673491  -0.102365   0.015055   0.008531  -0.027330   0.408735
     5  C   -0.874934  -0.042260   0.005425  -0.000968  -0.000353   0.019039
     6  C    0.161901  -0.188530   0.001121  -0.000269   0.000281  -0.002914
     7  C   -0.411698   0.182333  -0.003365   0.000321  -0.000370   0.001480
     8  C   -0.310972  -0.781406   0.005532   0.000732  -0.001117   0.010739
     9  C    0.978033   0.528004   0.058643   0.004441  -0.000395  -0.032589
    10  C    0.624161   0.696269  -0.004373  -0.006326   0.004984   0.035594
    11  C    0.150314  -2.275046  -0.006251   0.032732  -0.009761   0.007315
    12  C   -1.704803   0.141044   0.008351  -0.028724   0.040733  -0.053628
    13  C    7.698406   0.749670  -0.014881   0.003288  -0.006989   0.012670
    14  C    0.749670   7.682066   0.002880  -0.009175   0.002840  -0.020055
    15  H   -0.014881   0.002880   0.423569  -0.007079   0.001021   0.000246
    16  H    0.003288  -0.009175  -0.007079   0.411738  -0.005389   0.001319
    17  H   -0.006989   0.002840   0.001021  -0.005389   0.408914  -0.006218
    18  H    0.012670  -0.020055   0.000246   0.001319  -0.006218   0.459042
    19  H    0.028116   0.001151   0.000309  -0.000374   0.000966  -0.006398
    20  H    0.001769  -0.053953  -0.000066   0.000014  -0.000125   0.001198
    21  H    0.024087   0.030802   0.000015  -0.000007   0.000011  -0.000197
    22  H    0.002083  -0.001524  -0.000123   0.000007  -0.000008   0.000038
    23  H   -0.031572   0.024799   0.000537  -0.000161   0.000014  -0.000106
    24  H    0.013116  -0.025023   0.000145   0.000655  -0.000171   0.000340
    25  H    0.013116  -0.025023   0.000145   0.000655  -0.000171   0.000340
              19         20         21         22         23         24
     1  C   -0.052162   0.008003  -0.001741   0.000145   0.002045   0.017600
     2  C   -0.011807   0.001027  -0.000425   0.000255  -0.002455   0.008029
     3  C    0.050817  -0.004291   0.000567  -0.000429   0.001194  -0.003353
     4  C   -0.054862   0.014457   0.000384  -0.001574   0.003378  -0.009283
     5  C   -0.053427   0.431183  -0.065381   0.013020   0.017262  -0.008874
     6  C    0.044732  -0.096045   0.395133  -0.013826   0.015550  -0.001036
     7  C   -0.000269   0.006697  -0.029270   0.398000  -0.069155   0.018592
     8  C   -0.049207   0.046130  -0.016901  -0.032453   0.339628   0.033913
     9  C    0.076306  -0.024099   0.002430  -0.008990   0.033198   0.359418
    10  C    0.413581   0.006580   0.009143  -0.008298  -0.002016   0.003141
    11  C    0.051705  -0.011175  -0.004972  -0.001778  -0.015481  -0.012166
    12  C   -0.078396  -0.004745   0.000809  -0.006970   0.001191  -0.057335
    13  C    0.028116   0.001769   0.024087   0.002083  -0.031572   0.013116
    14  C    0.001151  -0.053953   0.030802  -0.001524   0.024799  -0.025023
    15  H    0.000309  -0.000066   0.000015  -0.000123   0.000537   0.000145
    16  H   -0.000374   0.000014  -0.000007   0.000007  -0.000161   0.000655
    17  H    0.000966  -0.000125   0.000011  -0.000008   0.000014  -0.000171
    18  H   -0.006398   0.001198  -0.000197   0.000038  -0.000106   0.000340
    19  H    0.443840  -0.005303   0.002025  -0.000668   0.000276   0.000511
    20  H   -0.005303   0.456439  -0.013035   0.002130  -0.000465   0.000077
    21  H    0.002025  -0.013035   0.436916  -0.008240   0.001537  -0.000087
    22  H   -0.000668   0.002130  -0.008240   0.428371  -0.010807   0.000590
    23  H    0.000276  -0.000465   0.001537  -0.010807   0.461349  -0.001660
    24  H    0.000511   0.000077  -0.000087   0.000590  -0.001660   0.496233
    25  H    0.000511   0.000077  -0.000087   0.000590  -0.001660  -0.081188
              25
     1  C    0.017600
     2  C    0.008029
     3  C   -0.003353
     4  C   -0.009283
     5  C   -0.008874
     6  C   -0.001036
     7  C    0.018592
     8  C    0.033913
     9  C    0.359418
    10  C    0.003141
    11  C   -0.012166
    12  C   -0.057335
    13  C    0.013116
    14  C   -0.025023
    15  H    0.000145
    16  H    0.000655
    17  H   -0.000171
    18  H    0.000340
    19  H    0.000511
    20  H    0.000077
    21  H   -0.000087
    22  H    0.000590
    23  H   -0.001660
    24  H   -0.081188
    25  H    0.496233
 Mulliken charges:
               1
     1  C    0.073909
     2  C   -0.248503
     3  C   -0.393607
     4  C    0.152584
     5  C    0.026754
     6  C   -0.361278
     7  C   -0.453825
     8  C    0.012692
     9  C   -0.531371
    10  C   -0.188010
    11  C   -0.657751
    12  C    0.271127
    13  C    0.126165
    14  C    0.528420
    15  H    0.248061
    16  H    0.263898
    17  H    0.262407
    18  H    0.216625
    19  H    0.198027
    20  H    0.237524
    21  H    0.236486
    22  H    0.250458
    23  H    0.233578
    24  H    0.247814
    25  H    0.247814
 Sum of Mulliken charges =   1.00000
 Mulliken charges with hydrogens summed into heavy atoms:
               1
     1  C    0.321971
     2  C    0.015396
     3  C   -0.131200
     4  C    0.369209
     5  C    0.264278
     6  C   -0.124791
     7  C   -0.203367
     8  C    0.246270
     9  C   -0.035743
    10  C    0.010017
    11  C   -0.657751
    12  C    0.271127
    13  C    0.126165
    14  C    0.528420
 Electronic spatial extent (au):  <R**2>=           2856.3818
 Charge=              1.0000 electrons
 Dipole moment (field-independent basis, Debye):
    X=             -0.8109    Y=             -2.0366    Z=             -0.0000  Tot=              2.1921
 Quadrupole moment (field-independent basis, Debye-Ang):
   XX=            -50.1159   YY=            -37.1227   ZZ=            -84.0723
   XY=             11.1399   XZ=              0.0000   YZ=              0.0000
 Traceless Quadrupole moment (field-independent basis, Debye-Ang):
   XX=              6.9878   YY=             19.9809   ZZ=            -26.9687
   XY=             11.1399   XZ=              0.0000   YZ=              0.0000
 Octapole moment (field-independent basis, Debye-Ang**2):
  XXX=             -3.3794  YYY=            -22.5149  ZZZ=              0.0000  XYY=            -13.6633
  XXY=            -12.0681  XXZ=              0.0000  XZZ=             -3.5716  YZZ=             -0.3105
  YYZ=              0.0000  XYZ=             -0.0000
 Hexadecapole moment (field-independent basis, Debye-Ang**3):
 XXXX=           -941.4476 YYYY=          -1912.0845 ZZZZ=            -99.1172 XXXY=           -324.3126
 XXXZ=              0.0000 YYYX=           -252.1894 YYYZ=             -0.0000 ZZZX=             -0.0000
 ZZZY=              0.0000 XXYY=           -447.0326 XXZZ=           -234.1703 YYZZ=           -502.5632
 XXYZ=             -0.0000 YYXZ=             -0.0000 ZZXY=           -177.4002
 N-N= 7.813992941654D+02 E-N=-2.799208376021D+03  KE= 5.376292861789D+02
 Symmetry A'   KE= 5.229345613742D+02
 Symmetry A"   KE= 1.469472480465D+01
 Unable to Open any file for archive entry.
 1\1\GINC-GADI-CPU-CLX-0316\SP\RM062X TD-FC\6-311++G(d,p)\C14H11(1+)\TS
 1578\27-Jul-2022\0\\#n M062X/6-311++G(d,p) TD(NStates=1) EmpiricalDisp
 ersion=GD3 SP\\SP_-3\\1,1\C,0,0.,2.468655,1.357431\C,0,0.,3.719508,0.6
 74989\C,0,0.,3.689861,-0.71083\C,0,0.,2.457156,-1.398538\C,0,0.,-2.469
 156,-1.416538\C,0,0.,-3.677861,-0.71683\C,0,0.,-3.683508,0.668989\C,0,
 0.,-2.516655,1.363431\C,0,0.,0.024,1.453369\C,0,0.,0.048,-1.429189\C,0
 ,0.,1.247055,0.722065\C,0,0.,1.210471,-0.784804\C,0,0.,-1.277055,0.632
 065\C,0,0.,-1.264471,-0.676804\H,0,0.,2.581071,2.443647\H,0,0.,4.68475
 3,1.166689\H,0,0.,4.651262,-1.212349\H,0,0.,2.36255,-2.484059\H,0,0.,-
 0.045,-2.510266\H,0,0.,-2.57255,-2.496059\H,0,0.,-4.567262,-1.332349\H
 ,0,0.,-4.588753,1.256689\H,0,0.,-2.395071,2.443647\H,0,-0.859585,0.078
 ,2.145787\H,0,0.859585,0.078,2.145787\\Version=ES64L-G16RevC.01\State=
 1-A'\HF=-539.7228251\RMSD=3.070e-09\PG=CS [SG(C14H9),X(H2)]\\@
 The archive entry for this job was punched.


 If your ship doesn't come in, swim out to it!
                          -- Jonathan Winters
 Job cpu time:       0 days  0 hours 38 minutes 39.3 seconds.
 Elapsed time:       0 days  0 hours  5 minutes 29.3 seconds.
 File lengths (MBytes):  RWF=    459 Int=      0 D2E=      0 Chk=     15 Scr=      1
 Normal termination of Gaussian 16 at Wed Jul 27 11:35:59 2022.
