 Entering Gaussian System, Link 0=g16
 Initial command:
 /apps/gaussian/g16c01/g16/l1.exe "/jobfs/53796104.gadi-pbs/Gau-3655595.inp" -scrdir="/jobfs/53796104.gadi-pbs/"
 Entering Link 1 = /apps/gaussian/g16c01/g16/l1.exe PID=   3655596.
  
 Copyright (c) 1988-2019, Gaussian, Inc.  All Rights Reserved.
  
 This is part of the Gaussian(R) 16 program.  It is based on
 the Gaussian(R) 09 system (copyright 2009, Gaussian, Inc.),
 the Gaussian(R) 03 system (copyright 2003, Gaussian, Inc.),
 the Gaussian(R) 98 system (copyright 1998, Gaussian, Inc.),
 the Gaussian(R) 94 system (copyright 1995, Gaussian, Inc.),
 the Gaussian 92(TM) system (copyright 1992, Gaussian, Inc.),
 the Gaussian 90(TM) system (copyright 1990, Gaussian, Inc.),
 the Gaussian 88(TM) system (copyright 1988, Gaussian, Inc.),
 the Gaussian 86(TM) system (copyright 1986, Carnegie Mellon
 University), and the Gaussian 82(TM) system (copyright 1983,
 Carnegie Mellon University). Gaussian is a federally registered
 trademark of Gaussian, Inc.
  
 This software contains proprietary and confidential information,
 including trade secrets, belonging to Gaussian, Inc.
  
 This software is provided under written license and may be
 used, copied, transmitted, or stored only in accord with that
 written license.
  
 The following legend is applicable only to US Government
 contracts under FAR:
  
                    RESTRICTED RIGHTS LEGEND
  
 Use, reproduction and disclosure by the US Government is
 subject to restrictions as set forth in subparagraphs (a)
 and (c) of the Commercial Computer Software - Restricted
 Rights clause in FAR 52.227-19.
  
 Gaussian, Inc.
 340 Quinnipiac St., Bldg. 40, Wallingford CT 06492
  
  
 ---------------------------------------------------------------
 Warning -- This program may not be used in any manner that
 competes with the business of Gaussian, Inc. or will provide
 assistance to any competitor of Gaussian, Inc.  The licensee
 of this program is prohibited from giving any competitor of
 Gaussian, Inc. access to this program.  By using this program,
 the user acknowledges that Gaussian, Inc. is engaged in the
 business of creating and licensing software in the field of
 computational chemistry and represents and warrants to the
 licensee that it is not a competitor of Gaussian, Inc. and that
 it will not use this program in any manner prohibited above.
 ---------------------------------------------------------------
  

 Cite this work as:
 Gaussian 16, Revision C.01,
 M. J. Frisch, G. W. Trucks, H. B. Schlegel, G. E. Scuseria, 
 M. A. Robb, J. R. Cheeseman, G. Scalmani, V. Barone, 
 G. A. Petersson, H. Nakatsuji, X. Li, M. Caricato, A. V. Marenich, 
 J. Bloino, B. G. Janesko, R. Gomperts, B. Mennucci, H. P. Hratchian, 
 J. V. Ortiz, A. F. Izmaylov, J. L. Sonnenberg, D. Williams-Young, 
 F. Ding, F. Lipparini, F. Egidi, J. Goings, B. Peng, A. Petrone, 
 T. Henderson, D. Ranasinghe, V. G. Zakrzewski, J. Gao, N. Rega, 
 G. Zheng, W. Liang, M. Hada, M. Ehara, K. Toyota, R. Fukuda, 
 J. Hasegawa, M. Ishida, T. Nakajima, Y. Honda, O. Kitao, H. Nakai, 
 T. Vreven, K. Throssell, J. A. Montgomery, Jr., J. E. Peralta, 
 F. Ogliaro, M. J. Bearpark, J. J. Heyd, E. N. Brothers, K. N. Kudin, 
 V. N. Staroverov, T. A. Keith, R. Kobayashi, J. Normand, 
 K. Raghavachari, A. P. Rendell, J. C. Burant, S. S. Iyengar, 
 J. Tomasi, M. Cossi, J. M. Millam, M. Klene, C. Adamo, R. Cammi, 
 J. W. Ochterski, R. L. Martin, K. Morokuma, O. Farkas, 
 J. B. Foresman, and D. J. Fox, Gaussian, Inc., Wallingford CT, 2019.
 
 ******************************************
 Gaussian 16:  ES64L-G16RevC.01  3-Jul-2019
                 2-Aug-2022 
 ******************************************
 %NProcShared=48
 Will use up to   48 processors via shared memory.
 %mem = 190GB
 ---------------------------------------------------------------
 #n M062X/6-311++G(d,p) TD(NStates=1) EmpiricalDispersion=GD3 SP
 ---------------------------------------------------------------
 1/38=1,172=1/1;
 2/12=2,17=6,18=5,40=1/2;
 3/5=4,6=6,7=1111,11=9,25=1,30=1,74=-55,124=31/1,2,3,8;
 4//1;
 5/5=2,38=5/2;
 8/6=1,10=2,108=1/1;
 9/41=1,42=1,70=2/14;
 6/7=2,8=2,9=2,10=2/1;
 99/5=1,9=1/99;
 -----
 SP_75
 -----
 Symbolic Z-matrix:
 Charge =  1 Multiplicity = 1
 C                     2.4721    1.36133   0. 
 C                     3.67683   0.66141   0. 
 C                     3.67696  -0.73243   0. 
 C                     2.48656  -1.42119   0. 
 C                    -2.43976  -1.39389   0. 
 C                    -3.69076  -0.69523   0. 
 C                    -3.72618   0.68256   0. 
 C                    -2.51321   1.35953   0. 
 C                    -0.01313   1.45337   0. 
 C                     0.0366   -1.42919   0. 
 C                     1.26753   0.68854   0. 
 C                     1.25247  -0.7326    0. 
 C                    -1.25658   0.66559   0. 
 C                    -1.22247  -0.729     0. 
 H                     2.48177   2.44432   0. 
 H                     4.61178   1.20306   0. 
 H                     4.61361  -1.27167   0. 
 H                     2.4785   -2.50333   0. 
 H                     0.03375  -2.51027   0. 
 H                    -2.4566   -2.47678   0. 
 H                    -4.60491  -1.27302   0. 
 H                    -4.66173   1.22031   0. 
 H                    -2.49437   2.44297   0. 
 H                    -0.048     2.14579  -0.85959 
 H                    -0.048     2.14579   0.85959 
 
                          Input orientation:                          
 ---------------------------------------------------------------------
 Center     Atomic      Atomic             Coordinates (Angstroms)
 Number     Number       Type             X           Y           Z
 ---------------------------------------------------------------------
      1          6           0        2.472105    1.361331    0.000000
      2          6           0        3.676833    0.661414    0.000000
      3          6           0        3.676961   -0.732430    0.000000
      4          6           0        2.486556   -1.421188    0.000000
      5          6           0       -2.439756   -1.393888    0.000000
      6          6           0       -3.690761   -0.695230    0.000000
      7          6           0       -3.726183    0.682564    0.000000
      8          6           0       -2.513205    1.359531    0.000000
      9          6           0       -0.013125    1.453369    0.000000
     10          6           0        0.036600   -1.429189    0.000000
     11          6           0        1.267530    0.688540    0.000000
     12          6           0        1.252471   -0.732604    0.000000
     13          6           0       -1.256580    0.665590    0.000000
     14          6           0       -1.222471   -0.729004    0.000000
     15          1           0        2.481771    2.444322    0.000000
     16          1           0        4.611778    1.203064    0.000000
     17          1           0        4.613612   -1.271674    0.000000
     18          1           0        2.478500   -2.503334    0.000000
     19          1           0        0.033750   -2.510266    0.000000
     20          1           0       -2.456600   -2.476784    0.000000
     21          1           0       -4.604912   -1.273024    0.000000
     22          1           0       -4.661728    1.220314    0.000000
     23          1           0       -2.494371    2.442972    0.000000
     24          1           0       -0.048000    2.145787   -0.859585
     25          1           0       -0.048000    2.145787    0.859585
 ---------------------------------------------------------------------
                    Distance matrix (angstroms):
                    1          2          3          4          5
     1  C    0.000000
     2  C    1.393289   0.000000
     3  C    2.415681   1.393844   0.000000
     4  C    2.782557   2.398748   1.375301   0.000000
     5  C    5.631839   6.452668   6.152378   4.926388   0.000000
     6  C    6.496950   7.491457   7.367816   6.219828   1.432877
     7  C    6.235343   7.403046   7.537158   6.559261   2.442652
     8  C    4.985310   6.229281   6.534099   5.721015   2.754398
     9  C    2.486934   3.773988   4.288875   3.809394   3.741044
    10  C    3.703875   4.197847   3.706441   2.449969   2.476608
    11  C    1.379728   2.409456   2.797233   2.436591   4.252114
    12  C    2.423236   2.796572   2.424490   1.413193   3.750978
    13  C    3.793039   4.933415   5.127796   4.285523   2.375154
    14  C    4.244925   5.092783   4.899433   3.773062   1.387030
    15  H    1.083034   2.146377   3.394147   3.865513   6.241257
    16  H    2.145518   1.080512   2.149423   3.376872   7.514539
    17  H    3.393931   2.148112   1.080786   2.132304   7.054427
    18  H    3.864670   3.384026   2.138319   1.082176   5.041836
    19  H    4.575460   4.830280   4.053848   2.683719   2.713767
    20  H    6.246860   6.889651   6.376781   5.054609   1.083027
    21  H    7.551423   8.504666   8.299498   7.093016   2.168527
    22  H    7.135227   8.357270   8.564283   7.620728   3.430920
    23  H    5.082896   6.423216   6.940354   6.304075   3.837249
    24  H    2.775822   4.100809   4.785222   4.459391   4.357601
    25  H    2.775822   4.100809   4.785222   4.459391   4.357601
                    6          7          8          9         10
     6  C    0.000000
     7  C    1.378249   0.000000
     8  C    2.368265   1.389100   0.000000
     9  C    4.259282   3.792221   2.501840   0.000000
    10  C    3.798936   4.314862   3.778686   2.882987   0.000000
    11  C    5.147764   4.993717   3.839816   1.491657   2.449483
    12  C    4.943373   5.175876   4.307824   2.525908   1.401275
    13  C    2.788740   2.469661   1.435500   1.471997   2.461791
    14  C    2.468521   2.874213   2.455193   2.495049   1.440666
    15  H    6.925095   6.453099   5.111414   2.684491   4.580715
    16  H    8.516788   8.354191   7.126701   4.631671   5.278353
    17  H    8.324356   8.565701   7.597023   5.369595   4.579722
    18  H    6.428765   6.974814   6.311802   4.675863   2.667707
    19  H    4.143228   4.932673   4.632743   3.963912   1.081081
    20  H    2.167277   3.404897   3.836733   4.627815   2.704349
    21  H    1.081443   2.143942   3.362378   5.340199   4.644138
    22  H    2.147577   1.079083   2.153029   4.654441   5.393900
    23  H    3.358521   2.148580   1.083605   2.671310   4.625953
    24  H    4.698933   4.050795   2.726595   1.104330   3.677839
    25  H    4.698933   4.050795   2.726595   1.104330   3.677839
                   11         12         13         14         15
    11  C    0.000000
    12  C    1.421224   0.000000
    13  C    2.524214   2.872331   0.000000
    14  C    2.865229   2.474945   1.395011   0.000000
    15  H    2.134749   3.406470   4.139946   4.877644   0.000000
    16  H    3.383597   3.877081   5.892920   6.145840   2.465289
    17  H    3.877977   3.404095   6.181597   5.861259   4.284084
    18  H    3.413870   2.153748   4.898255   4.104319   4.947657
    19  H    3.428494   2.155310   3.427975   2.179676   5.526369
    20  H    4.887578   4.098704   3.363713   2.139582   6.971714
    21  H    6.191390   5.882261   3.869050   3.425911   8.002483
    22  H    5.953057   6.228293   3.450036   3.953268   7.247605
    23  H    4.150895   4.911528   2.165921   3.417479   4.976142
    24  H    2.143146   3.273415   2.095360   3.222218   2.688448
    25  H    2.143146   3.273415   2.095360   3.222218   2.688448
                   16         17         18         19         20
    16  H    0.000000
    17  H    2.474739   0.000000
    18  H    4.276478   2.464891   0.000000
    19  H    5.894672   4.744391   2.444760   0.000000
    20  H    7.968893   7.172182   4.935171   2.490575   0.000000
    21  H    9.543500   9.218524   7.189464   4.800828   2.462576
    22  H    9.273522   9.604267   8.052851   5.997061   4.304779
    23  H    7.213510   8.020101   7.013942   5.561112   4.919901
    24  H    4.831267   5.843676   5.360636   4.735441   5.282840
    25  H    4.831267   5.843676   5.360636   4.735441   5.282840
                   21         22         23         24         25
    21  H    0.000000
    22  H    2.493985   0.000000
    23  H    4.273524   2.488439   0.000000
    24  H    5.761302   4.783500   2.609969   0.000000
    25  H    5.761302   4.783500   2.609969   1.719170   0.000000
 Stoichiometry    C14H11(1+)
 Framework group  CS[SG(C14H9),X(H2)]
 Deg. of freedom    46
 Full point group                 CS      NOp   2
 Largest Abelian subgroup         CS      NOp   2
 Largest concise Abelian subgroup CS      NOp   2
                         Standard orientation:                         
 ---------------------------------------------------------------------
 Center     Atomic      Atomic             Coordinates (Angstroms)
 Number     Number       Type             X           Y           Z
 ---------------------------------------------------------------------
      1          6           0       -2.360663   -1.547424    0.000000
      2          6           0       -2.306311   -2.939652    0.000000
      3          6           0       -1.074765   -3.592413    0.000000
      4          6           0        0.091214   -2.863068    0.000000
      5          6           0        2.373767    1.502622    0.000000
      6          6           0        2.342196    2.935151    0.000000
      7          6           0        1.141358    3.611583    0.000000
      8          6           0       -0.024772    2.856771    0.000000
      9          6           0       -1.278314    0.691630    0.000000
     10          6           0        1.245441   -0.702024    0.000000
     11          6           0       -1.202157   -0.798082    0.000000
     12          6           0        0.060622   -1.450206    0.000000
     13          6           0        0.000000    1.421485    0.000000
     14          6           0        1.216297    0.738347    0.000000
     15          1           0       -3.322124   -1.048870    0.000000
     16          1           0       -3.222689   -3.512153    0.000000
     17          1           0       -1.036861   -4.672534    0.000000
     18          1           0        1.051174   -3.362649    0.000000
     19          1           0        2.202019   -1.205705    0.000000
     20          1           0        3.338505    1.010455    0.000000
     21          1           0        3.280775    3.472354    0.000000
     22          1           0        1.104256    4.690027    0.000000
     23          1           0       -0.990923    3.347435    0.000000
     24          1           0       -1.873808    1.046660    0.859585
     25          1           0       -1.873808    1.046660   -0.859585
 ---------------------------------------------------------------------
 Rotational constants (GHZ):           2.1364647           0.4445813           0.3688028
 Standard basis: 6-311++G(d,p) (5D, 7F)
 There are   299 symmetry adapted cartesian basis functions of A'  symmetry.
 There are   100 symmetry adapted cartesian basis functions of A"  symmetry.
 There are   285 symmetry adapted basis functions of A'  symmetry.
 There are   100 symmetry adapted basis functions of A"  symmetry.
   385 basis functions,   603 primitive gaussians,   399 cartesian basis functions
    47 alpha electrons       47 beta electrons
       nuclear repulsion energy       781.2280909012 Hartrees.
 NAtoms=   25 NActive=   25 NUniq=   24 SFac= 1.09D+00 NAtFMM=   60 NAOKFM=F Big=F
 Integral buffers will be    131072 words long.
 Regular integral format.
 Two-electron integral symmetry is turned on.
 Nuclear repulsion after empirical dispersion term =      781.2271116548 Hartrees.
 One-electron integrals computed using PRISM.
 NBasis=   385 RedAO= T EigKep=  1.12D-06  NBF=   285   100
 NBsUse=   379 1.00D-06 EigRej=  8.37D-07 NBFU=   279   100
 ExpMin= 3.60D-02 ExpMax= 4.56D+03 ExpMxC= 6.82D+02 IAcc=3 IRadAn=         5 AccDes= 0.00D+00
 Harris functional with IExCor= 1009 and IRadAn=       5 diagonalized for initial guess.
 HarFok:  IExCor= 1009 AccDes= 0.00D+00 IRadAn=         5 IDoV= 1 UseB2=F ITyADJ=14
 ICtDFT=  3500011 ScaDFX=  1.000000  1.000000  1.000000  1.000000
 FoFCou: FMM=F IPFlag=           0 FMFlag=      100000 FMFlg1=           0
         NFxFlg=           0 DoJE=T BraDBF=F KetDBF=T FulRan=T
         wScrn=  0.000000 ICntrl=       500 IOpCl=  0 I1Cent=   200000004 NGrid=           0
         NMat0=    1 NMatS0=      1 NMatT0=    0 NMatD0=    1 NMtDS0=    0 NMtDT0=    0
 Petite list used in FoFCou.
 Initial guess orbital symmetries:
       Occupied  (A') (A') (A') (A') (A') (A') (A') (A') (A') (A')
                 (A') (A') (A') (A') (A') (A') (A') (A') (A') (A')
                 (A') (A') (A') (A') (A') (A') (A') (A') (A') (A')
                 (A') (A') (A") (A') (A') (A') (A') (A') (A") (A')
                 (A") (A') (A') (A") (A") (A") (A")
       Virtual   (A") (A") (A") (A") (A") (A') (A') (A') (A') (A")
                 (A") (A') (A') (A') (A") (A') (A') (A') (A') (A")
                 (A') (A") (A') (A') (A') (A") (A') (A") (A') (A')
                 (A') (A') (A') (A') (A") (A') (A") (A') (A') (A')
                 (A") (A') (A') (A") (A') (A') (A') (A') (A') (A")
                 (A') (A') (A") (A") (A') (A') (A') (A") (A") (A')
                 (A') (A') (A') (A') (A') (A') (A") (A') (A') (A")
                 (A') (A') (A') (A') (A') (A') (A') (A') (A') (A')
                 (A') (A') (A') (A') (A') (A') (A') (A') (A') (A')
                 (A') (A') (A') (A') (A') (A') (A') (A") (A') (A")
                 (A') (A') (A") (A") (A') (A") (A') (A") (A") (A')
                 (A") (A') (A') (A') (A") (A') (A') (A") (A") (A')
                 (A") (A") (A') (A') (A') (A") (A') (A') (A') (A")
                 (A') (A') (A') (A') (A') (A') (A") (A') (A') (A')
                 (A') (A') (A') (A') (A') (A') (A') (A') (A') (A")
                 (A") (A') (A") (A") (A') (A') (A') (A") (A") (A')
                 (A") (A') (A") (A") (A") (A') (A') (A') (A') (A')
                 (A') (A") (A') (A') (A") (A') (A') (A') (A') (A")
                 (A') (A') (A') (A') (A") (A') (A") (A') (A") (A")
                 (A') (A") (A') (A") (A') (A') (A') (A") (A') (A')
                 (A") (A") (A") (A') (A') (A") (A') (A") (A') (A')
                 (A") (A") (A') (A") (A') (A") (A') (A') (A') (A")
                 (A') (A') (A') (A') (A") (A') (A') (A') (A") (A")
                 (A') (A') (A') (A") (A') (A') (A") (A') (A") (A')
                 (A") (A') (A') (A') (A') (A") (A') (A') (A') (A")
                 (A') (A') (A") (A') (A") (A') (A') (A") (A') (A')
                 (A') (A") (A') (A") (A') (A') (A') (A") (A') (A")
                 (A') (A') (A') (A') (A") (A') (A") (A') (A") (A')
                 (A") (A') (A") (A") (A") (A') (A') (A') (A') (A')
                 (A') (A') (A') (A') (A') (A') (A') (A') (A') (A')
                 (A') (A') (A') (A') (A") (A') (A') (A') (A') (A')
                 (A') (A') (A') (A') (A') (A') (A') (A') (A') (A')
                 (A') (A') (A') (A') (A') (A') (A') (A') (A') (A')
                 (A') (A')
 The electronic state of the initial guess is 1-A'.
 Requested convergence on RMS density matrix=1.00D-08 within 128 cycles.
 Requested convergence on MAX density matrix=1.00D-06.
 Requested convergence on             energy=1.00D-06.
 No special actions if energy rises.
 SCF Done:  E(RM062X) =  -539.756306693     A.U. after   15 cycles
            NFock= 15  Conv=0.89D-08     -V/T= 2.0042
 DoSCS=F DFT=T ScalE2(SS,OS)=  1.000000  1.000000
 ExpMin= 3.60D-02 ExpMax= 4.56D+03 ExpMxC= 6.82D+02 IAcc=3 IRadAn=         5 AccDes= 0.00D+00
 HarFok:  IExCor=  205 AccDes= 0.00D+00 IRadAn=         5 IDoV=-2 UseB2=F ITyADJ=14
 ICtDFT= 12500011 ScaDFX=  1.000000  1.000000  1.000000  1.000000
 Range of M.O.s used for correlation:    15   379
 NBasis=   385 NAE=    47 NBE=    47 NFC=    14 NFV=     0
 NROrb=    365 NOA=    33 NOB=    33 NVA=   332 NVB=   332

 **** Warning!!: The largest alpha MO coefficient is  0.13779024D+03

 Orbital symmetries:
       Occupied  (A') (A') (A') (A') (A') (A') (A') (A') (A') (A')
                 (A') (A') (A') (A') (A') (A') (A') (A') (A') (A')
                 (A') (A') (A') (A') (A') (A') (A') (A') (A') (A')
                 (A') (A') (A") (A') (A') (A') (A') (A") (A") (A')
                 (A') (A') (A') (A") (A") (A") (A")
       Virtual   (A") (A") (A") (A") (A') (A') (A') (A') (A") (A')
                 (A') (A") (A') (A') (A") (A') (A") (A') (A') (A')
                 (A") (A") (A') (A') (A') (A") (A') (A") (A') (A')
                 (A") (A') (A") (A') (A') (A') (A') (A') (A") (A')
                 (A") (A') (A') (A") (A") (A') (A") (A') (A") (A')
                 (A') (A') (A') (A') (A') (A") (A') (A') (A') (A')
                 (A') (A") (A') (A') (A') (A") (A') (A') (A') (A')
                 (A') (A') (A') (A') (A') (A') (A') (A') (A') (A')
                 (A') (A') (A') (A') (A') (A') (A') (A') (A') (A')
                 (A') (A') (A') (A') (A") (A') (A") (A") (A') (A")
                 (A') (A') (A') (A') (A") (A") (A') (A") (A") (A')
                 (A') (A') (A") (A') (A') (A") (A') (A") (A') (A")
                 (A") (A') (A") (A') (A') (A') (A") (A') (A') (A')
                 (A') (A') (A') (A') (A') (A') (A') (A') (A') (A')
                 (A') (A') (A') (A") (A') (A') (A') (A') (A') (A')
                 (A') (A') (A") (A') (A") (A') (A") (A") (A') (A")
                 (A") (A') (A') (A") (A") (A') (A") (A") (A') (A')
                 (A') (A') (A') (A") (A") (A') (A') (A') (A') (A")
                 (A') (A') (A') (A") (A") (A') (A') (A") (A') (A")
                 (A") (A') (A') (A") (A') (A") (A') (A') (A') (A')
                 (A") (A") (A") (A') (A") (A') (A') (A") (A') (A')
                 (A') (A") (A') (A") (A") (A') (A") (A') (A') (A")
                 (A') (A') (A') (A') (A") (A') (A') (A') (A") (A")
                 (A') (A') (A') (A") (A') (A') (A') (A") (A") (A')
                 (A") (A') (A') (A") (A') (A') (A') (A') (A') (A')
                 (A") (A') (A') (A') (A') (A") (A") (A") (A') (A')
                 (A') (A') (A') (A') (A') (A') (A') (A") (A') (A')
                 (A') (A") (A') (A") (A") (A") (A') (A") (A') (A")
                 (A') (A") (A") (A') (A") (A") (A') (A') (A') (A')
                 (A') (A') (A') (A') (A') (A') (A') (A') (A') (A')
                 (A') (A') (A') (A") (A') (A') (A') (A') (A') (A')
                 (A') (A') (A') (A') (A') (A') (A') (A') (A') (A')
                 (A') (A') (A') (A') (A') (A') (A') (A') (A') (A')
                 (A') (A')
     4 initial guesses have been made.
 Convergence on wavefunction:    0.001000000000000
 Iteration     1 Dimension     4 NMult     0 NNew      4
 CISAX will form     4 AO SS matrices at one time.
 Iteration     2 Dimension     6 NMult     4 NNew      2
 Iteration     3 Dimension     8 NMult     6 NNew      2
 Iteration     4 Dimension    10 NMult     8 NNew      2
 Iteration     5 Dimension    12 NMult    10 NNew      2
 Iteration     6 Dimension    14 NMult    12 NNew      2
 ***********************************************************************
 Excited states from <AA,BB:AA,BB> singles matrix:
 ***********************************************************************
 
 Ground to excited state transition densities written to RWF  633
 Ground to excited state transition electric dipole moments (Au):
       state          X           Y           Z        Dip. S.      Osc.
         1        -0.4864      0.3032      0.0000      0.3285      0.0219
 Ground to excited state transition velocity dipole moments (Au):
       state          X           Y           Z        Dip. S.      Osc.
         1         0.0564     -0.0306     -0.0000      0.0041      0.0275
 Ground to excited state transition magnetic dipole moments (Au):
       state          X           Y           Z
         1        -0.0000     -0.0000     -0.1675
 Ground to excited state transition velocity quadrupole moments (Au):
       state          XX          YY          ZZ          XY          XZ          YZ
         1         0.1409      0.1413     -0.0086      0.1372     -0.0000      0.0000
 <0|del|b> * <b|rxdel|0> + <0|del|b> * <b|delr+rdel|0>
 Rotatory Strengths (R) in cgs (10**-40 erg-esu-cm/Gauss)
       state          XX          YY          ZZ    R(velocity)    E-M Angle
         1         0.0000      0.0000     -0.0000     -0.0000       90.00
 1/2[<0|r|b>*<b|rxdel|0> + (<0|rxdel|b>*<b|r|0>)*]
 Rotatory Strengths (R) in cgs (10**-40 erg-esu-cm/Gauss)
       state          XX          YY          ZZ     R(length)
         1        -0.0000      0.0000      0.0000      0.0000
  1/2[<0|del|b>*<b|r|0> + (<0|r|b>*<b|del|0>)*] (Au)
       state          X           Y           Z        Dip. S.   Osc.(frdel)
         1        -0.0274     -0.0093     -0.0000      0.0367      0.0245

 Excitation energies and oscillator strengths:
 
 Excited State   1:      Singlet-A'     2.7173 eV  456.28 nm  f=0.0219  <S**2>=0.000
      47 -> 48         0.70360
 This state for optimization and/or second-order correction.
 Total Energy, E(TD-HF/TD-DFT) =  -539.656448293    
 Copying the excited state density for this state as the 1-particle RhoCI density.
 SavETr:  write IOETrn=   770 NScale= 10 NData=  16 NLR=1 NState=    1 LETran=      28.

 **********************************************************************

            Population analysis using the SCF Density.

 **********************************************************************

 Orbital symmetries:
       Occupied  (A') (A') (A') (A') (A') (A') (A') (A') (A') (A')
                 (A') (A') (A') (A') (A') (A') (A') (A') (A') (A')
                 (A') (A') (A') (A') (A') (A') (A') (A') (A') (A')
                 (A') (A') (A") (A') (A') (A') (A') (A") (A") (A')
                 (A') (A') (A') (A") (A") (A") (A")
       Virtual   (A") (A") (A") (A") (A') (A') (A') (A') (A") (A')
                 (A') (A") (A') (A') (A") (A') (A") (A') (A') (A')
                 (A") (A") (A') (A') (A') (A") (A') (A") (A') (A')
                 (A") (A') (A") (A') (A') (A') (A') (A') (A") (A')
                 (A") (A') (A') (A") (A") (A') (A") (A') (A") (A')
                 (A') (A') (A') (A') (A') (A") (A') (A') (A') (A')
                 (A') (A") (A') (A') (A') (A") (A') (A') (A') (A')
                 (A') (A') (A') (A') (A') (A') (A') (A') (A') (A')
                 (A') (A') (A') (A') (A') (A') (A') (A') (A') (A')
                 (A') (A') (A') (A') (A") (A') (A") (A") (A') (A")
                 (A') (A') (A') (A') (A") (A") (A') (A") (A") (A')
                 (A') (A') (A") (A') (A') (A") (A') (A") (A') (A")
                 (A") (A') (A") (A') (A') (A') (A") (A') (A') (A')
                 (A') (A') (A') (A') (A') (A') (A') (A') (A') (A')
                 (A') (A') (A') (A") (A') (A') (A') (A') (A') (A')
                 (A') (A') (A") (A') (A") (A') (A") (A") (A') (A")
                 (A") (A') (A') (A") (A") (A') (A") (A") (A') (A')
                 (A') (A') (A') (A") (A") (A') (A') (A') (A') (A")
                 (A') (A') (A') (A") (A") (A') (A') (A") (A') (A")
                 (A") (A') (A') (A") (A') (A") (A') (A') (A') (A')
                 (A") (A") (A") (A') (A") (A') (A') (A") (A') (A')
                 (A') (A") (A') (A") (A") (A') (A") (A') (A') (A")
                 (A') (A') (A') (A') (A") (A') (A') (A') (A") (A")
                 (A') (A') (A') (A") (A') (A') (A') (A") (A") (A')
                 (A") (A') (A') (A") (A') (A') (A') (A') (A') (A')
                 (A") (A') (A') (A') (A') (A") (A") (A") (A') (A')
                 (A') (A') (A') (A') (A') (A') (A') (A") (A') (A')
                 (A') (A") (A') (A") (A") (A") (A') (A") (A') (A")
                 (A') (A") (A") (A') (A") (A") (A') (A') (A') (A')
                 (A') (A') (A') (A') (A') (A') (A') (A') (A') (A')
                 (A') (A') (A') (A") (A') (A') (A') (A') (A') (A')
                 (A') (A') (A') (A') (A') (A') (A') (A') (A') (A')
                 (A') (A') (A') (A') (A') (A') (A') (A') (A') (A')
                 (A') (A')
 The electronic state is 1-A'.
 Alpha  occ. eigenvalues --  -10.77613 -10.73664 -10.72801 -10.72759 -10.72062
 Alpha  occ. eigenvalues --  -10.71799 -10.71762 -10.70982 -10.70942 -10.70258
 Alpha  occ. eigenvalues --  -10.70168 -10.69873 -10.69778 -10.69383  -1.16505
 Alpha  occ. eigenvalues --   -1.12471  -1.06940  -1.05809  -1.01296  -1.00332
 Alpha  occ. eigenvalues --   -0.95646  -0.91041  -0.86433  -0.85897  -0.83793
 Alpha  occ. eigenvalues --   -0.78359  -0.76100  -0.74386  -0.69704  -0.69294
 Alpha  occ. eigenvalues --   -0.68380  -0.68111  -0.68095  -0.65092  -0.64246
 Alpha  occ. eigenvalues --   -0.62849  -0.61697  -0.60328  -0.59370  -0.59138
 Alpha  occ. eigenvalues --   -0.56927  -0.55256  -0.54650  -0.52439  -0.47066
 Alpha  occ. eigenvalues --   -0.46108  -0.44032
 Alpha virt. eigenvalues --   -0.26098  -0.14668  -0.14085  -0.12766  -0.11186
 Alpha virt. eigenvalues --   -0.10091  -0.09248  -0.07969  -0.07943  -0.07481
 Alpha virt. eigenvalues --   -0.07209  -0.07140  -0.05645  -0.05577  -0.05345
 Alpha virt. eigenvalues --   -0.03841  -0.03658  -0.03275  -0.03132  -0.02160
 Alpha virt. eigenvalues --   -0.01356  -0.00946   0.00189   0.00594   0.00652
 Alpha virt. eigenvalues --    0.01062   0.01507   0.01934   0.02169   0.02301
 Alpha virt. eigenvalues --    0.02449   0.02672   0.02777   0.03257   0.03430
 Alpha virt. eigenvalues --    0.04228   0.04500   0.04713   0.05036   0.05381
 Alpha virt. eigenvalues --    0.06027   0.06292   0.06585   0.07051   0.07264
 Alpha virt. eigenvalues --    0.07901   0.08107   0.08356   0.08607   0.08916
 Alpha virt. eigenvalues --    0.09504   0.09585   0.09995   0.10839   0.10992
 Alpha virt. eigenvalues --    0.11123   0.12125   0.12251   0.12760   0.13024
 Alpha virt. eigenvalues --    0.13452   0.13524   0.13994   0.14344   0.15965
 Alpha virt. eigenvalues --    0.16359   0.16458   0.17333   0.17522   0.17790
 Alpha virt. eigenvalues --    0.18125   0.19058   0.19337   0.19642   0.19855
 Alpha virt. eigenvalues --    0.21503   0.21640   0.22690   0.23149   0.23564
 Alpha virt. eigenvalues --    0.23894   0.24545   0.25383   0.26937   0.27615
 Alpha virt. eigenvalues --    0.28856   0.29270   0.29908   0.31357   0.35794
 Alpha virt. eigenvalues --    0.36457   0.38202   0.39280   0.41091   0.41328
 Alpha virt. eigenvalues --    0.41973   0.42140   0.42983   0.43706   0.44359
 Alpha virt. eigenvalues --    0.44812   0.45115   0.45937   0.46347   0.47907
 Alpha virt. eigenvalues --    0.48444   0.48816   0.49033   0.50492   0.51129
 Alpha virt. eigenvalues --    0.51319   0.51985   0.52133   0.52815   0.54090
 Alpha virt. eigenvalues --    0.54111   0.54618   0.55650   0.55889   0.57523
 Alpha virt. eigenvalues --    0.58228   0.58913   0.61484   0.62232   0.62400
 Alpha virt. eigenvalues --    0.63179   0.63481   0.64951   0.65161   0.67402
 Alpha virt. eigenvalues --    0.70361   0.70502   0.71162   0.72483   0.72898
 Alpha virt. eigenvalues --    0.75626   0.76054   0.76389   0.76787   0.77121
 Alpha virt. eigenvalues --    0.77865   0.77971   0.78274   0.79903   0.80396
 Alpha virt. eigenvalues --    0.81247   0.81557   0.82335   0.83000   0.85228
 Alpha virt. eigenvalues --    0.87084   0.88177   0.88291   0.89252   0.90569
 Alpha virt. eigenvalues --    0.91070   0.91373   0.93265   0.94611   0.96313
 Alpha virt. eigenvalues --    0.96848   1.00257   1.01277   1.01571   1.02801
 Alpha virt. eigenvalues --    1.03178   1.03249   1.04832   1.06168   1.08848
 Alpha virt. eigenvalues --    1.19577   1.23049   1.24142   1.24574   1.28682
 Alpha virt. eigenvalues --    1.29400   1.32121   1.34279   1.35762   1.35978
 Alpha virt. eigenvalues --    1.39340   1.39806   1.40883   1.42959   1.43457
 Alpha virt. eigenvalues --    1.43539   1.44319   1.46368   1.46590   1.46624
 Alpha virt. eigenvalues --    1.47684   1.48142   1.51772   1.53663   1.55781
 Alpha virt. eigenvalues --    1.55788   1.56310   1.56581   1.57813   1.61472
 Alpha virt. eigenvalues --    1.63075   1.63354   1.64104   1.66099   1.68314
 Alpha virt. eigenvalues --    1.68357   1.68706   1.69805   1.74416   1.76019
 Alpha virt. eigenvalues --    1.77180   1.78073   1.79909   1.80046   1.80831
 Alpha virt. eigenvalues --    1.82927   1.83197   1.83622   1.83836   1.84172
 Alpha virt. eigenvalues --    1.84491   1.85537   1.86357   1.88324   1.91415
 Alpha virt. eigenvalues --    1.92132   1.94084   1.95304   1.97761   1.98161
 Alpha virt. eigenvalues --    1.99792   2.02439   2.04508   2.07299   2.11754
 Alpha virt. eigenvalues --    2.12144   2.14216   2.15254   2.19090   2.21237
 Alpha virt. eigenvalues --    2.22757   2.28509   2.30275   2.34540   2.34846
 Alpha virt. eigenvalues --    2.36318   2.38620   2.39662   2.42353   2.44566
 Alpha virt. eigenvalues --    2.46136   2.46534   2.49253   2.52945   2.53793
 Alpha virt. eigenvalues --    2.54282   2.56820   2.57895   2.58385   2.59482
 Alpha virt. eigenvalues --    2.59905   2.61564   2.62141   2.63565   2.63756
 Alpha virt. eigenvalues --    2.64820   2.65086   2.65092   2.65544   2.67966
 Alpha virt. eigenvalues --    2.68455   2.70941   2.71455   2.73367   2.74816
 Alpha virt. eigenvalues --    2.76288   2.78552   2.79675   2.83056   2.83169
 Alpha virt. eigenvalues --    2.84873   2.86288   2.92122   2.97073   2.99448
 Alpha virt. eigenvalues --    3.00128   3.05062   3.09942   3.11304   3.13913
 Alpha virt. eigenvalues --    3.20760   3.22661   3.26448   3.28674   3.30608
 Alpha virt. eigenvalues --    3.32815   3.34446   3.43755   3.46133   3.46761
 Alpha virt. eigenvalues --    3.48390   3.50097   3.56468   3.65759   3.66942
 Alpha virt. eigenvalues --    3.67758   3.93856   3.94132   3.95374   3.96413
 Alpha virt. eigenvalues --    4.03957   4.06612   4.07642   4.12538   4.35395
 Alpha virt. eigenvalues --    4.61122   4.69395   4.71333  23.45264  23.60238
 Alpha virt. eigenvalues --   23.80785  23.83302  23.85937  23.89196  23.91566
 Alpha virt. eigenvalues --   23.94976  23.95920  23.97686  24.02513  24.04624
 Alpha virt. eigenvalues --   24.11076  24.12250
          Condensed to atoms (all electrons):
               1          2          3          4          5          6
     1  C    8.391027   0.503354  -0.637675   1.774184  -0.003274  -0.086608
     2  C    0.503354   7.163534   0.415821  -0.997981  -0.037822  -0.015237
     3  C   -0.637675   0.415821   6.603801   0.722257  -0.113928   0.016889
     4  C    1.774184  -0.997981   0.722257  11.398063  -0.370182  -0.136762
     5  C   -0.003274  -0.037822  -0.113928  -0.370182  10.717510   0.814782
     6  C   -0.086608  -0.015237   0.016889  -0.136762   0.814782   6.592690
     7  C   -0.031543   0.000860  -0.013460   0.006472  -1.173235   0.268381
     8  C    0.407497  -0.005192  -0.104364  -0.071874   2.212015  -0.417652
     9  C   -1.167463  -0.847320   0.294099  -0.015635  -0.393665   0.292943
    10  C   -1.206774   0.171304  -0.279586  -2.748704  -2.413273  -0.425348
    11  C    0.319466  -0.818383   0.909817  -0.298765  -1.434034  -0.122882
    12  C   -1.812423   1.084481  -1.345487  -1.613777  -0.234829  -0.271288
    13  C    0.192249  -0.214703  -0.219477  -1.579241  -0.303826   1.099571
    14  C   -1.134596  -0.281548  -0.130636  -0.440764  -1.615583  -1.482983
    15  H    0.366614  -0.105455  -0.003031   0.025336   0.006375   0.001216
    16  H   -0.020048   0.382163  -0.020714   0.016566  -0.001670  -0.000353
    17  H   -0.020218  -0.021678   0.380145  -0.069380   0.000157   0.000410
    18  H    0.047511   0.003473  -0.084019   0.464312   0.006296  -0.005002
    19  H   -0.044208  -0.008128   0.051059  -0.079248  -0.063035   0.051462
    20  H    0.007040   0.002021  -0.005217   0.006225   0.454141  -0.084466
    21  H   -0.001248  -0.000416   0.000386   0.000458  -0.066420   0.369125
    22  H    0.000444   0.000325  -0.000302  -0.001376   0.010627  -0.012617
    23  H    0.006570  -0.002384   0.000995   0.004839   0.029424   0.000706
    24  H    0.036923   0.015677  -0.001331  -0.011450  -0.013072  -0.001751
    25  H    0.036923   0.015677  -0.001331  -0.011450  -0.013072  -0.001751
               7          8          9         10         11         12
     1  C   -0.031543   0.407497  -1.167463  -1.206774   0.319466  -1.812423
     2  C    0.000860  -0.005192  -0.847320   0.171304  -0.818383   1.084481
     3  C   -0.013460  -0.104364   0.294099  -0.279586   0.909817  -1.345487
     4  C    0.006472  -0.071874  -0.015635  -2.748704  -0.298765  -1.613777
     5  C   -1.173235   2.212015  -0.393665  -2.413273  -1.434034  -0.234829
     6  C    0.268381  -0.417652   0.292943  -0.425348  -0.122882  -0.271288
     7  C    7.167595   0.065469  -0.778038   0.331283  -0.290463  -0.100312
     8  C    0.065469   8.888620  -1.145205  -1.369347   0.258360  -1.047143
     9  C   -0.778038  -1.145205   9.624076   0.252788   1.648800  -2.091936
    10  C    0.331283  -1.369347   0.252788   9.146170  -0.358557   2.391811
    11  C   -0.290463   0.258360   1.648800  -0.358557  14.569864  -4.049745
    12  C   -0.100312  -1.047143  -2.091936   2.391811  -4.049745  16.250108
    13  C   -0.985214   0.294615   1.521914  -0.504330   1.074853  -4.741299
    14  C    1.666362  -2.471865  -1.774465   2.464585  -4.830728   3.089624
    15  H   -0.002879   0.005048   0.088118  -0.008101  -0.029400  -0.014651
    16  H    0.000396   0.000985   0.002324  -0.010304   0.025682  -0.031044
    17  H   -0.000377  -0.001392  -0.004965   0.020114  -0.025926   0.086626
    18  H    0.002082   0.007157  -0.023105   0.008887  -0.009129  -0.048065
    19  H   -0.007388  -0.048399   0.075221   0.422290   0.076673  -0.083182
    20  H    0.002161   0.053221  -0.026000   0.014869  -0.012039  -0.008943
    21  H   -0.009417  -0.030892  -0.006390   0.020541  -0.006282   0.005354
    22  H    0.374505  -0.017273   0.004118  -0.008309   0.002595  -0.007898
    23  H   -0.107519   0.369363   0.094953  -0.011025   0.006243   0.005151
    24  H    0.013169   0.028497   0.356586   0.005456   0.023018  -0.059720
    25  H    0.013169   0.028497   0.356586   0.005456   0.023018  -0.059720
              13         14         15         16         17         18
     1  C    0.192249  -1.134596   0.366614  -0.020048  -0.020218   0.047511
     2  C   -0.214703  -0.281548  -0.105455   0.382163  -0.021678   0.003473
     3  C   -0.219477  -0.130636  -0.003031  -0.020714   0.380145  -0.084019
     4  C   -1.579241  -0.440764   0.025336   0.016566  -0.069380   0.464312
     5  C   -0.303826  -1.615583   0.006375  -0.001670   0.000157   0.006296
     6  C    1.099571  -1.482983   0.001216  -0.000353   0.000410  -0.005002
     7  C   -0.985214   1.666362  -0.002879   0.000396  -0.000377   0.002082
     8  C    0.294615  -2.471865   0.005048   0.000985  -0.001392   0.007157
     9  C    1.521914  -1.774465   0.088118   0.002324  -0.004965  -0.023105
    10  C   -0.504330   2.464585  -0.008101  -0.010304   0.020114   0.008887
    11  C    1.074853  -4.830728  -0.029400   0.025682  -0.025926  -0.009129
    12  C   -4.741299   3.089624  -0.014651  -0.031044   0.086626  -0.048065
    13  C   14.372238  -3.426919  -0.002651   0.003369  -0.006312  -0.012250
    14  C   -3.426919  15.925283   0.007471  -0.010204   0.005227  -0.019842
    15  H   -0.002651   0.007471   0.434848  -0.008917   0.001635   0.000234
    16  H    0.003369  -0.010204  -0.008917   0.416600  -0.007019   0.001960
    17  H   -0.006312   0.005227   0.001635  -0.007019   0.420213  -0.010093
    18  H   -0.012250  -0.019842   0.000234   0.001960  -0.010093   0.449212
    19  H    0.081413  -0.048865   0.000392  -0.000593   0.001671  -0.005811
    20  H   -0.003727  -0.063060  -0.000123   0.000019  -0.000163   0.001262
    21  H   -0.027732   0.096687   0.000016  -0.000007   0.000010  -0.000123
    22  H    0.026594  -0.033774  -0.000124   0.000007  -0.000007   0.000012
    23  H   -0.033072  -0.034547   0.000573  -0.000130   0.000011  -0.000103
    24  H    0.003855  -0.060344  -0.000929   0.000627  -0.000135   0.000147
    25  H    0.003855  -0.060344  -0.000929   0.000627  -0.000135   0.000147
              19         20         21         22         23         24
     1  C   -0.044208   0.007040  -0.001248   0.000444   0.006570   0.036923
     2  C   -0.008128   0.002021  -0.000416   0.000325  -0.002384   0.015677
     3  C    0.051059  -0.005217   0.000386  -0.000302   0.000995  -0.001331
     4  C   -0.079248   0.006225   0.000458  -0.001376   0.004839  -0.011450
     5  C   -0.063035   0.454141  -0.066420   0.010627   0.029424  -0.013072
     6  C    0.051462  -0.084466   0.369125  -0.012617   0.000706  -0.001751
     7  C   -0.007388   0.002161  -0.009417   0.374505  -0.107519   0.013169
     8  C   -0.048399   0.053221  -0.030892  -0.017273   0.369363   0.028497
     9  C    0.075221  -0.026000  -0.006390   0.004118   0.094953   0.356586
    10  C    0.422290   0.014869   0.020541  -0.008309  -0.011025   0.005456
    11  C    0.076673  -0.012039  -0.006282   0.002595   0.006243   0.023018
    12  C   -0.083182  -0.008943   0.005354  -0.007898   0.005151  -0.059720
    13  C    0.081413  -0.003727  -0.027732   0.026594  -0.033072   0.003855
    14  C   -0.048865  -0.063060   0.096687  -0.033774  -0.034547  -0.060344
    15  H    0.000392  -0.000123   0.000016  -0.000124   0.000573  -0.000929
    16  H   -0.000593   0.000019  -0.000007   0.000007  -0.000130   0.000627
    17  H    0.001671  -0.000163   0.000010  -0.000007   0.000011  -0.000135
    18  H   -0.005811   0.001262  -0.000123   0.000012  -0.000103   0.000147
    19  H    0.443425  -0.006710   0.001171  -0.000487   0.000233   0.000598
    20  H   -0.006710   0.458140  -0.010384   0.001888   0.000083   0.000216
    21  H    0.001171  -0.010384   0.424468  -0.006089   0.001269  -0.000149
    22  H   -0.000487   0.001888  -0.006089   0.421897  -0.008939   0.000633
    23  H    0.000233   0.000083   0.001269  -0.008939   0.443577  -0.000880
    24  H    0.000598   0.000216  -0.000149   0.000633  -0.000880   0.493642
    25  H    0.000598   0.000216  -0.000149   0.000633  -0.000880  -0.079478
              25
     1  C    0.036923
     2  C    0.015677
     3  C   -0.001331
     4  C   -0.011450
     5  C   -0.013072
     6  C   -0.001751
     7  C    0.013169
     8  C    0.028497
     9  C    0.356586
    10  C    0.005456
    11  C    0.023018
    12  C   -0.059720
    13  C    0.003855
    14  C   -0.060344
    15  H   -0.000929
    16  H    0.000627
    17  H   -0.000135
    18  H    0.000147
    19  H    0.000598
    20  H    0.000216
    21  H   -0.000149
    22  H    0.000633
    23  H   -0.000880
    24  H   -0.079478
    25  H    0.493642
 Mulliken charges:
               1
     1  C    0.076278
     2  C   -0.402444
     3  C   -0.434711
     4  C    0.027880
     5  C   -0.000408
     6  C   -0.443475
     7  C   -0.412059
     8  C    0.111252
     9  C   -0.338340
    10  C    0.088108
    11  C   -0.652055
    12  C    0.708308
    13  C   -0.613773
    14  C    0.665826
    15  H    0.239316
    16  H    0.259678
    17  H    0.251580
    18  H    0.224852
    19  H    0.189847
    20  H    0.219328
    21  H    0.246213
    22  H    0.252918
    23  H    0.235489
    24  H    0.250195
    25  H    0.250195
 Sum of Mulliken charges =   1.00000
 Mulliken charges with hydrogens summed into heavy atoms:
               1
     1  C    0.315594
     2  C   -0.142766
     3  C   -0.183130
     4  C    0.252732
     5  C    0.218920
     6  C   -0.197262
     7  C   -0.159141
     8  C    0.346741
     9  C    0.162051
    10  C    0.277955
    11  C   -0.652055
    12  C    0.708308
    13  C   -0.613773
    14  C    0.665826
 Electronic spatial extent (au):  <R**2>=           2856.0448
 Charge=              1.0000 electrons
 Dipole moment (field-independent basis, Debye):
    X=             -0.2356    Y=             -0.8236    Z=              0.0000  Tot=              0.8566
 Quadrupole moment (field-independent basis, Debye-Ang):
   XX=            -51.0795   YY=            -36.2431   ZZ=            -84.1354
   XY=             10.2084   XZ=             -0.0000   YZ=              0.0000
 Traceless Quadrupole moment (field-independent basis, Debye-Ang):
   XX=              6.0731   YY=             20.9096   ZZ=            -26.9827
   XY=             10.2084   XZ=             -0.0000   YZ=              0.0000
 Octapole moment (field-independent basis, Debye-Ang**2):
  XXX=             -2.6436  YYY=             -2.0025  ZZZ=              0.0000  XYY=             -2.4179
  XXY=             -7.5165  XXZ=              0.0000  XZZ=             -3.2992  YZZ=              0.3707
  YYZ=              0.0000  XYZ=             -0.0000
 Hexadecapole moment (field-independent basis, Debye-Ang**3):
 XXXX=           -986.5145 YYYY=          -1850.0981 ZZZZ=            -99.3191 XXXY=           -347.4159
 XXXZ=             -0.0000 YYYX=           -273.3906 YYYZ=              0.0000 ZZZX=              0.0000
 ZZZY=              0.0000 XXYY=           -454.8874 XXZZ=           -241.0173 YYZZ=           -495.3986
 XXYZ=              0.0000 YYXZ=             -0.0000 ZZXY=           -182.5664
 N-N= 7.812271116548D+02 E-N=-2.798805644957D+03  KE= 5.375216988960D+02
 Symmetry A'   KE= 5.228704626311D+02
 Symmetry A"   KE= 1.465123626491D+01
 Unable to Open any file for archive entry.
 1\1\GINC-GADI-CPU-CLX-1762\SP\RM062X TD-FC\6-311++G(d,p)\C14H11(1+)\TS
 1578\02-Aug-2022\0\\#n M062X/6-311++G(d,p) TD(NStates=1) EmpiricalDisp
 ersion=GD3 SP\\SP_75\\1,1\C,0,2.472105,1.361331,0.\C,0,3.676833,0.6614
 14,0.\C,0,3.676961,-0.73243,0.\C,0,2.486556,-1.421188,0.\C,0,-2.439756
 ,-1.393888,0.\C,0,-3.690761,-0.69523,0.\C,0,-3.726183,0.682564,0.\C,0,
 -2.513205,1.359531,0.\C,0,-0.013125,1.453369,0.\C,0,0.0366,-1.429189,0
 .\C,0,1.26753,0.68854,0.\C,0,1.252471,-0.732604,0.\C,0,-1.25658,0.6655
 9,0.\C,0,-1.222471,-0.729004,0.\H,0,2.481771,2.444322,0.\H,0,4.611778,
 1.203064,0.\H,0,4.613612,-1.271674,0.\H,0,2.4785,-2.503334,0.\H,0,0.03
 375,-2.510266,0.\H,0,-2.4566,-2.476784,0.\H,0,-4.604912,-1.273024,0.\H
 ,0,-4.661728,1.220314,0.\H,0,-2.494371,2.442972,0.\H,0,-0.048,2.145787
 ,-0.859585\H,0,-0.048,2.145787,0.859585\\Version=ES64L-G16RevC.01\Stat
 e=1-A'\HF=-539.7563067\RMSD=8.889e-09\PG=CS [SG(C14H9),X(H2)]\\@
 The archive entry for this job was punched.


 ... SUBJECTS WHICH DISCLOSE THEIR FULL POWER, MEANING AND BEAUTY AS SOON
 AS THEY ARE PRESENTED TO THE MIND HAVE VERY LITTLE OF THOSE QUALITIES
 TO DISCLOSE.
                           -- CHARLES DUTTON (1882)
 Job cpu time:       0 days  0 hours 51 minutes 37.3 seconds.
 Elapsed time:       0 days  0 hours  1 minutes  4.8 seconds.
 File lengths (MBytes):  RWF=    460 Int=      0 D2E=      0 Chk=     15 Scr=      1
 Normal termination of Gaussian 16 at Tue Aug  2 12:45:50 2022.
