 Entering Gaussian System, Link 0=g16
 Initial command:
 /apps/gaussian/g16c01/g16/l1.exe "/jobfs/53796104.gadi-pbs/Gau-3682819.inp" -scrdir="/jobfs/53796104.gadi-pbs/"
 Entering Link 1 = /apps/gaussian/g16c01/g16/l1.exe PID=   3682820.
  
 Copyright (c) 1988-2019, Gaussian, Inc.  All Rights Reserved.
  
 This is part of the Gaussian(R) 16 program.  It is based on
 the Gaussian(R) 09 system (copyright 2009, Gaussian, Inc.),
 the Gaussian(R) 03 system (copyright 2003, Gaussian, Inc.),
 the Gaussian(R) 98 system (copyright 1998, Gaussian, Inc.),
 the Gaussian(R) 94 system (copyright 1995, Gaussian, Inc.),
 the Gaussian 92(TM) system (copyright 1992, Gaussian, Inc.),
 the Gaussian 90(TM) system (copyright 1990, Gaussian, Inc.),
 the Gaussian 88(TM) system (copyright 1988, Gaussian, Inc.),
 the Gaussian 86(TM) system (copyright 1986, Carnegie Mellon
 University), and the Gaussian 82(TM) system (copyright 1983,
 Carnegie Mellon University). Gaussian is a federally registered
 trademark of Gaussian, Inc.
  
 This software contains proprietary and confidential information,
 including trade secrets, belonging to Gaussian, Inc.
  
 This software is provided under written license and may be
 used, copied, transmitted, or stored only in accord with that
 written license.
  
 The following legend is applicable only to US Government
 contracts under FAR:
  
                    RESTRICTED RIGHTS LEGEND
  
 Use, reproduction and disclosure by the US Government is
 subject to restrictions as set forth in subparagraphs (a)
 and (c) of the Commercial Computer Software - Restricted
 Rights clause in FAR 52.227-19.
  
 Gaussian, Inc.
 340 Quinnipiac St., Bldg. 40, Wallingford CT 06492
  
  
 ---------------------------------------------------------------
 Warning -- This program may not be used in any manner that
 competes with the business of Gaussian, Inc. or will provide
 assistance to any competitor of Gaussian, Inc.  The licensee
 of this program is prohibited from giving any competitor of
 Gaussian, Inc. access to this program.  By using this program,
 the user acknowledges that Gaussian, Inc. is engaged in the
 business of creating and licensing software in the field of
 computational chemistry and represents and warrants to the
 licensee that it is not a competitor of Gaussian, Inc. and that
 it will not use this program in any manner prohibited above.
 ---------------------------------------------------------------
  

 Cite this work as:
 Gaussian 16, Revision C.01,
 M. J. Frisch, G. W. Trucks, H. B. Schlegel, G. E. Scuseria, 
 M. A. Robb, J. R. Cheeseman, G. Scalmani, V. Barone, 
 G. A. Petersson, H. Nakatsuji, X. Li, M. Caricato, A. V. Marenich, 
 J. Bloino, B. G. Janesko, R. Gomperts, B. Mennucci, H. P. Hratchian, 
 J. V. Ortiz, A. F. Izmaylov, J. L. Sonnenberg, D. Williams-Young, 
 F. Ding, F. Lipparini, F. Egidi, J. Goings, B. Peng, A. Petrone, 
 T. Henderson, D. Ranasinghe, V. G. Zakrzewski, J. Gao, N. Rega, 
 G. Zheng, W. Liang, M. Hada, M. Ehara, K. Toyota, R. Fukuda, 
 J. Hasegawa, M. Ishida, T. Nakajima, Y. Honda, O. Kitao, H. Nakai, 
 T. Vreven, K. Throssell, J. A. Montgomery, Jr., J. E. Peralta, 
 F. Ogliaro, M. J. Bearpark, J. J. Heyd, E. N. Brothers, K. N. Kudin, 
 V. N. Staroverov, T. A. Keith, R. Kobayashi, J. Normand, 
 K. Raghavachari, A. P. Rendell, J. C. Burant, S. S. Iyengar, 
 J. Tomasi, M. Cossi, J. M. Millam, M. Klene, C. Adamo, R. Cammi, 
 J. W. Ochterski, R. L. Martin, K. Morokuma, O. Farkas, 
 J. B. Foresman, and D. J. Fox, Gaussian, Inc., Wallingford CT, 2019.
 
 ******************************************
 Gaussian 16:  ES64L-G16RevC.01  3-Jul-2019
                 2-Aug-2022 
 ******************************************
 %NProcShared=48
 Will use up to   48 processors via shared memory.
 %mem = 190GB
 ---------------------------------------------------------------
 #n M062X/6-311++G(d,p) TD(NStates=1) EmpiricalDispersion=GD3 SP
 ---------------------------------------------------------------
 1/38=1,172=1/1;
 2/12=2,17=6,18=5,40=1/2;
 3/5=4,6=6,7=1111,11=9,25=1,30=1,74=-55,124=31/1,2,3,8;
 4//1;
 5/5=2,38=5/2;
 8/6=1,10=2,108=1/1;
 9/41=1,42=1,70=2/14;
 6/7=2,8=2,9=2,10=2/1;
 99/5=1,9=1/99;
 ------
 SP_150
 ------
 Symbolic Z-matrix:
 Charge =  1 Multiplicity = 1
 C                     2.48276   1.35983   0. 
 C                     3.68696   0.66424   0. 
 C                     3.68046  -0.72823   0. 
 C                     2.47896  -1.41704   0. 
 C                    -2.44776  -1.39884   0. 
 C                    -3.68966  -0.70343   0. 
 C                    -3.71986   0.67834   0. 
 C                    -2.51016   1.35863   0. 
 C                    -0.00885   1.46217   0. 
 C                     0.0244   -1.42959   0. 
 C                     1.26601   0.68482   0. 
 C                     1.24667  -0.7314    0. 
 C                    -1.2587    0.66952   0. 
 C                    -1.22667  -0.729     0. 
 H                     2.48827   2.4428    0. 
 H                     4.6224    1.20444   0. 
 H                     4.61276  -1.2744    0. 
 H                     2.47425  -2.49921   0. 
 H                     0.0225   -2.51047   0. 
 H                    -2.45965  -2.48151   0. 
 H                    -4.60696  -1.2753    0. 
 H                    -4.6557    1.21594   0. 
 H                    -2.49667   2.4419    0. 
 H                    -0.032     2.14779  -0.86179 
 H                    -0.032     2.14779   0.86179 
 
                          Input orientation:                          
 ---------------------------------------------------------------------
 Center     Atomic      Atomic             Coordinates (Angstroms)
 Number     Number       Type             X           Y           Z
 ---------------------------------------------------------------------
      1          6           0        2.482755    1.359831    0.000000
      2          6           0        3.686958    0.664239    0.000000
      3          6           0        3.680461   -0.728230    0.000000
      4          6           0        2.478956   -1.417038    0.000000
      5          6           0       -2.447756   -1.398838    0.000000
      6          6           0       -3.689661   -0.703430    0.000000
      7          6           0       -3.719858    0.678339    0.000000
      8          6           0       -2.510155    1.358631    0.000000
      9          6           0       -0.008850    1.462169    0.000000
     10          6           0        0.024400   -1.429589    0.000000
     11          6           0        1.266005    0.684815    0.000000
     12          6           0        1.246671   -0.731404    0.000000
     13          6           0       -1.258705    0.669515    0.000000
     14          6           0       -1.226671   -0.729004    0.000000
     15          1           0        2.488271    2.442797    0.000000
     16          1           0        4.622403    1.204439    0.000000
     17          1           0        4.612762   -1.274399    0.000000
     18          1           0        2.474250   -2.499209    0.000000
     19          1           0        0.022500   -2.510466    0.000000
     20          1           0       -2.459650   -2.481509    0.000000
     21          1           0       -4.606962   -1.275299    0.000000
     22          1           0       -4.655703    1.215939    0.000000
     23          1           0       -2.496671    2.441897    0.000000
     24          1           0       -0.032000    2.147787   -0.861785
     25          1           0       -0.032000    2.147787    0.861785
 ---------------------------------------------------------------------
                    Distance matrix (angstroms):
                    1          2          3          4          5
     1  C    0.000000
     2  C    1.390666   0.000000
     3  C    2.407176   1.392484   0.000000
     4  C    2.776872   2.406446   1.384944   0.000000
     5  C    5.649796   6.472326   6.164800   4.926746   0.000000
     6  C    6.508131   7.502335   7.370164   6.209756   1.423348
     7  C    6.239939   7.406829   7.532805   6.543386   2.435756
     8  C    4.992910   6.235895   6.532895   5.709253   2.758175
     9  C    2.493706   3.780964   4.290555   3.805130   3.759471
    10  C    3.718114   4.218821   3.722726   2.454588   2.472347
    11  C    1.391448   2.421040   2.797551   2.426734   4.258360
    12  C    2.429232   2.811195   2.433792   1.410184   3.754232
    13  C    3.804610   4.945666   5.133133   4.280632   2.385776
    14  C    4.257120   5.107336   4.907132   3.768960   1.392741
    15  H    1.082980   2.144789   3.387732   3.859846   6.254800
    16  H    2.145283   1.080219   2.149992   3.386223   7.534202
    17  H    3.387639   2.148355   1.080503   2.138568   7.061615
    18  H    3.859049   3.387929   2.142735   1.082181   5.043507
    19  H    4.586072   4.848402   4.069035   2.688821   2.708852
    20  H    6.259653   6.904819   6.385527   5.052022   1.082736
    21  H    7.563597   8.517683   8.305460   7.087335   2.162737
    22  H    7.139908   8.360883   8.559873   7.604994   3.422293
    23  H    5.095640   6.434076   6.943102   6.296685   3.841046
    24  H    2.772641   4.095636   4.774569   4.444722   4.376882
    25  H    2.772641   4.095636   4.774569   4.444722   4.376882
                    6          7          8          9         10
     6  C    0.000000
     7  C    1.382099   0.000000
     8  C    2.375569   1.387868   0.000000
     9  C    4.270619   3.792884   2.503447   0.000000
    10  C    3.784383   4.296839   3.768042   2.891949   0.000000
    11  C    5.146440   4.985867   3.835807   1.493163   2.451997
    12  C    4.936411   5.162730   4.299068   2.527468   1.407625
    13  C    2.791868   2.461169   1.428639   1.480013   2.460202
    14  C    2.463123   2.862970   2.450623   2.506856   1.433875
    15  H    6.932935   6.454005   5.114653   2.682768   4.589775
    16  H    8.528210   8.358834   7.134224   4.638419   5.299032
    17  H    8.322033   8.558373   7.593997   5.371043   4.590986
    18  H    6.420173   6.961594   6.302953   4.675286   2.673173
    19  H    4.128622   4.916678   4.624311   3.972759   1.080879
    20  H    2.162057   3.401876   3.840472   4.643169   2.697599
    21  H    1.080960   2.145613   3.366628   5.351296   4.633931
    22  H    2.148770   1.079268   2.150288   4.653372   5.376075
    23  H    3.363972   2.146235   1.083350   2.673784   4.619979
    24  H    4.717054   4.062296   2.739834   1.101491   3.680146
    25  H    4.717054   4.062296   2.739834   1.101491   3.680146
                   11         12         13         14         15
    11  C    0.000000
    12  C    1.416351   0.000000
    13  C    2.524756   2.870450   0.000000
    14  C    2.865714   2.473343   1.398886   0.000000
    15  H    2.141129   3.408390   4.145402   4.884784   0.000000
    16  H    3.396383   3.891408   5.905385   6.160346   2.467397
    17  H    3.878054   3.409606   6.184895   5.864847   4.281473
    18  H    3.405564   2.152228   4.896505   4.102492   4.942026
    19  H    3.428721   2.159550   3.428376   2.175784   5.533068
    20  H    4.889388   4.098742   3.372124   2.142781   6.980739
    21  H    6.191429   5.878847   3.872096   3.424150   8.010404
    22  H    5.945479   6.215317   3.440665   3.942216   7.248555
    23  H    4.152718   4.907387   2.161920   3.415774   4.984942
    24  H    2.137236   3.266101   2.105414   3.232002   2.679827
    25  H    2.137236   3.266101   2.105414   3.232002   2.679827
                   16         17         18         19         20
    16  H    0.000000
    17  H    2.478857   0.000000
    18  H    4.281538   2.464426   0.000000
    19  H    5.912667   4.753774   2.451776   0.000000
    20  H    7.983839   7.174686   4.933932   2.482319   0.000000
    21  H    9.556688   9.219724   7.186203   4.791404   2.462903
    22  H    9.278113   9.597199   8.039811   5.980943   4.300438
    23  H    7.225823   8.022150   7.008893   5.556269   4.923545
    24  H    4.826598   5.833339   5.349629   4.737612   5.297786
    25  H    4.826598   5.833339   5.349629   4.737612   5.297786
                   21         22         23         24         25
    21  H    0.000000
    22  H    2.491715   0.000000
    23  H    4.274444   2.482819   0.000000
    24  H    5.778449   4.794752   2.627504   0.000000
    25  H    5.778449   4.794752   2.627504   1.723570   0.000000
 Stoichiometry    C14H11(1+)
 Framework group  CS[SG(C14H9),X(H2)]
 Deg. of freedom    46
 Full point group                 CS      NOp   2
 Largest Abelian subgroup         CS      NOp   2
 Largest concise Abelian subgroup CS      NOp   2
                         Standard orientation:                         
 ---------------------------------------------------------------------
 Center     Atomic      Atomic             Coordinates (Angstroms)
 Number     Number       Type             X           Y           Z
 ---------------------------------------------------------------------
      1          6           0       -2.366853   -1.553409    0.000000
      2          6           0       -2.318409   -2.943231    0.000000
      3          6           0       -1.086062   -3.591563    0.000000
      4          6           0        0.086397   -2.854400    0.000000
      5          6           0        2.384495    1.503531    0.000000
      6          6           0        2.353922    2.926551    0.000000
      7          6           0        1.148258    3.602251    0.000000
      8          6           0       -0.020535    2.853851    0.000000
      9          6           0       -1.286847    0.694291    0.000000
     10          6           0        1.250426   -0.693373    0.000000
     11          6           0       -1.199409   -0.796309    0.000000
     12          6           0        0.059934   -1.444464    0.000000
     13          6           0        0.000000    1.425360    0.000000
     14          6           0        1.219589    0.740170    0.000000
     15          1           0       -3.325505   -1.049590    0.000000
     16          1           0       -3.234702   -3.515316    0.000000
     17          1           0       -1.041814   -4.671160    0.000000
     18          1           0        1.043966   -3.358561    0.000000
     19          1           0        2.205535   -1.199403    0.000000
     20          1           0        3.345882    1.005482    0.000000
     21          1           0        3.289650    3.467743    0.000000
     22          1           0        1.113239    4.680951    0.000000
     23          1           0       -0.983193    3.350776    0.000000
     24          1           0       -1.881248    1.036775    0.861785
     25          1           0       -1.881248    1.036775   -0.861785
 ---------------------------------------------------------------------
 Rotational constants (GHZ):           2.1334434           0.4441770           0.3684386
 Standard basis: 6-311++G(d,p) (5D, 7F)
 There are   299 symmetry adapted cartesian basis functions of A'  symmetry.
 There are   100 symmetry adapted cartesian basis functions of A"  symmetry.
 There are   285 symmetry adapted basis functions of A'  symmetry.
 There are   100 symmetry adapted basis functions of A"  symmetry.
   385 basis functions,   603 primitive gaussians,   399 cartesian basis functions
    47 alpha electrons       47 beta electrons
       nuclear repulsion energy       780.8132126860 Hartrees.
 NAtoms=   25 NActive=   25 NUniq=   24 SFac= 1.09D+00 NAtFMM=   60 NAOKFM=F Big=F
 Integral buffers will be    131072 words long.
 Regular integral format.
 Two-electron integral symmetry is turned on.
 Nuclear repulsion after empirical dispersion term =      780.8122331743 Hartrees.
 One-electron integrals computed using PRISM.
 NBasis=   385 RedAO= T EigKep=  1.14D-06  NBF=   285   100
 NBsUse=   379 1.00D-06 EigRej=  8.43D-07 NBFU=   279   100
 ExpMin= 3.60D-02 ExpMax= 4.56D+03 ExpMxC= 6.82D+02 IAcc=3 IRadAn=         5 AccDes= 0.00D+00
 Harris functional with IExCor= 1009 and IRadAn=       5 diagonalized for initial guess.
 HarFok:  IExCor= 1009 AccDes= 0.00D+00 IRadAn=         5 IDoV= 1 UseB2=F ITyADJ=14
 ICtDFT=  3500011 ScaDFX=  1.000000  1.000000  1.000000  1.000000
 FoFCou: FMM=F IPFlag=           0 FMFlag=      100000 FMFlg1=           0
         NFxFlg=           0 DoJE=T BraDBF=F KetDBF=T FulRan=T
         wScrn=  0.000000 ICntrl=       500 IOpCl=  0 I1Cent=   200000004 NGrid=           0
         NMat0=    1 NMatS0=      1 NMatT0=    0 NMatD0=    1 NMtDS0=    0 NMtDT0=    0
 Petite list used in FoFCou.
 Initial guess orbital symmetries:
       Occupied  (A') (A') (A') (A') (A') (A') (A') (A') (A') (A')
                 (A') (A') (A') (A') (A') (A') (A') (A') (A') (A')
                 (A') (A') (A') (A') (A') (A') (A') (A') (A') (A')
                 (A') (A') (A") (A') (A') (A') (A') (A') (A") (A')
                 (A") (A') (A') (A") (A") (A") (A")
       Virtual   (A") (A") (A") (A") (A") (A') (A') (A') (A') (A")
                 (A") (A') (A') (A') (A") (A') (A') (A') (A') (A")
                 (A') (A") (A') (A') (A') (A") (A') (A") (A') (A')
                 (A') (A') (A') (A') (A") (A') (A") (A') (A') (A')
                 (A") (A') (A') (A") (A') (A') (A') (A') (A') (A")
                 (A') (A') (A") (A") (A') (A') (A') (A") (A") (A')
                 (A') (A') (A') (A') (A') (A') (A") (A') (A') (A")
                 (A') (A') (A') (A') (A') (A') (A') (A') (A') (A')
                 (A') (A') (A') (A') (A') (A') (A') (A') (A') (A')
                 (A') (A') (A') (A') (A') (A') (A') (A") (A') (A")
                 (A') (A') (A") (A") (A') (A") (A') (A") (A') (A")
                 (A") (A') (A') (A') (A") (A') (A') (A") (A") (A')
                 (A") (A") (A') (A') (A') (A") (A') (A') (A') (A")
                 (A') (A') (A') (A') (A') (A') (A") (A') (A') (A')
                 (A') (A') (A') (A') (A') (A') (A') (A') (A') (A")
                 (A") (A') (A") (A") (A') (A') (A') (A") (A") (A')
                 (A") (A') (A") (A") (A") (A') (A') (A') (A') (A')
                 (A') (A") (A") (A') (A') (A') (A') (A') (A') (A")
                 (A') (A') (A') (A') (A') (A") (A") (A') (A") (A")
                 (A') (A") (A') (A") (A') (A') (A') (A") (A') (A')
                 (A") (A") (A") (A') (A') (A") (A') (A") (A') (A')
                 (A") (A") (A') (A") (A') (A") (A') (A') (A') (A")
                 (A') (A') (A') (A') (A") (A') (A') (A') (A") (A")
                 (A') (A') (A') (A") (A') (A') (A") (A') (A") (A')
                 (A") (A') (A') (A') (A') (A") (A') (A') (A') (A")
                 (A') (A') (A") (A') (A") (A') (A') (A") (A') (A')
                 (A') (A") (A') (A") (A') (A') (A') (A") (A') (A")
                 (A') (A') (A') (A') (A") (A') (A") (A') (A") (A')
                 (A") (A') (A") (A") (A") (A') (A') (A') (A') (A')
                 (A') (A') (A') (A') (A') (A') (A') (A') (A') (A')
                 (A') (A') (A') (A') (A') (A") (A') (A') (A') (A')
                 (A') (A') (A') (A') (A') (A') (A') (A') (A') (A')
                 (A') (A') (A') (A') (A') (A') (A') (A') (A') (A')
                 (A') (A')
 The electronic state of the initial guess is 1-A'.
 Requested convergence on RMS density matrix=1.00D-08 within 128 cycles.
 Requested convergence on MAX density matrix=1.00D-06.
 Requested convergence on             energy=1.00D-06.
 No special actions if energy rises.
 SCF Done:  E(RM062X) =  -539.758525981     A.U. after   15 cycles
            NFock= 15  Conv=0.76D-08     -V/T= 2.0042
 DoSCS=F DFT=T ScalE2(SS,OS)=  1.000000  1.000000
 ExpMin= 3.60D-02 ExpMax= 4.56D+03 ExpMxC= 6.82D+02 IAcc=3 IRadAn=         5 AccDes= 0.00D+00
 HarFok:  IExCor=  205 AccDes= 0.00D+00 IRadAn=         5 IDoV=-2 UseB2=F ITyADJ=14
 ICtDFT= 12500011 ScaDFX=  1.000000  1.000000  1.000000  1.000000
 Range of M.O.s used for correlation:    15   379
 NBasis=   385 NAE=    47 NBE=    47 NFC=    14 NFV=     0
 NROrb=    365 NOA=    33 NOB=    33 NVA=   332 NVB=   332

 **** Warning!!: The largest alpha MO coefficient is  0.13315368D+03

 Orbital symmetries:
       Occupied  (A') (A') (A') (A') (A') (A') (A') (A') (A') (A')
                 (A') (A') (A') (A') (A') (A') (A') (A') (A') (A')
                 (A') (A') (A') (A') (A') (A') (A') (A') (A') (A')
                 (A') (A') (A") (A') (A') (A') (A') (A") (A") (A')
                 (A') (A') (A') (A") (A") (A") (A")
       Virtual   (A") (A") (A") (A") (A') (A') (A') (A') (A") (A')
                 (A') (A") (A') (A') (A") (A') (A") (A') (A') (A')
                 (A") (A") (A') (A') (A') (A") (A') (A") (A') (A')
                 (A") (A') (A") (A') (A') (A') (A') (A') (A") (A')
                 (A") (A') (A') (A") (A") (A') (A") (A') (A") (A')
                 (A') (A') (A') (A') (A') (A") (A') (A') (A') (A')
                 (A') (A") (A') (A') (A') (A') (A") (A') (A') (A')
                 (A') (A') (A') (A') (A') (A') (A') (A') (A') (A')
                 (A') (A') (A') (A') (A') (A') (A') (A') (A') (A')
                 (A') (A') (A') (A') (A") (A') (A") (A") (A') (A")
                 (A') (A') (A') (A') (A") (A") (A') (A") (A") (A')
                 (A') (A') (A") (A') (A') (A") (A') (A") (A') (A")
                 (A") (A') (A") (A') (A') (A') (A") (A') (A') (A')
                 (A') (A') (A') (A') (A') (A') (A') (A') (A') (A')
                 (A') (A') (A') (A") (A') (A') (A') (A') (A') (A')
                 (A') (A') (A") (A') (A") (A') (A") (A") (A') (A")
                 (A") (A') (A') (A") (A") (A") (A') (A") (A') (A')
                 (A') (A') (A') (A") (A") (A') (A') (A') (A') (A")
                 (A') (A') (A') (A") (A') (A") (A') (A') (A") (A")
                 (A") (A') (A') (A") (A") (A') (A') (A') (A') (A')
                 (A") (A") (A") (A') (A') (A") (A') (A") (A') (A')
                 (A') (A") (A') (A") (A") (A') (A") (A') (A') (A")
                 (A') (A') (A') (A') (A") (A') (A') (A') (A") (A")
                 (A') (A') (A') (A") (A') (A') (A') (A") (A") (A')
                 (A") (A') (A') (A") (A') (A') (A') (A') (A') (A')
                 (A") (A') (A') (A') (A') (A") (A") (A") (A') (A')
                 (A') (A') (A') (A') (A') (A') (A") (A') (A') (A')
                 (A') (A") (A') (A") (A") (A") (A') (A") (A') (A")
                 (A') (A") (A") (A') (A") (A") (A') (A') (A') (A')
                 (A') (A') (A') (A') (A') (A') (A') (A') (A') (A')
                 (A') (A') (A') (A') (A") (A') (A') (A') (A') (A')
                 (A') (A') (A') (A') (A') (A') (A') (A') (A') (A')
                 (A') (A') (A') (A') (A') (A') (A') (A') (A') (A')
                 (A') (A')
     4 initial guesses have been made.
 Convergence on wavefunction:    0.001000000000000
 Iteration     1 Dimension     4 NMult     0 NNew      4
 CISAX will form     4 AO SS matrices at one time.
 Iteration     2 Dimension     6 NMult     4 NNew      2
 Iteration     3 Dimension     8 NMult     6 NNew      2
 Iteration     4 Dimension    10 NMult     8 NNew      2
 Iteration     5 Dimension    12 NMult    10 NNew      2
 Iteration     6 Dimension    14 NMult    12 NNew      2
 ***********************************************************************
 Excited states from <AA,BB:AA,BB> singles matrix:
 ***********************************************************************
 
 Ground to excited state transition densities written to RWF  633
 Ground to excited state transition electric dipole moments (Au):
       state          X           Y           Z        Dip. S.      Osc.
         1        -0.5156      0.3014      0.0000      0.3567      0.0242
 Ground to excited state transition velocity dipole moments (Au):
       state          X           Y           Z        Dip. S.      Osc.
         1         0.0602     -0.0318     -0.0000      0.0046      0.0303
 Ground to excited state transition magnetic dipole moments (Au):
       state          X           Y           Z
         1        -0.0000      0.0000     -0.1517
 Ground to excited state transition velocity quadrupole moments (Au):
       state          XX          YY          ZZ          XY          XZ          YZ
         1         0.1379      0.1683     -0.0092      0.1366      0.0000      0.0000
 <0|del|b> * <b|rxdel|0> + <0|del|b> * <b|delr+rdel|0>
 Rotatory Strengths (R) in cgs (10**-40 erg-esu-cm/Gauss)
       state          XX          YY          ZZ    R(velocity)    E-M Angle
         1        -0.0000      0.0000     -0.0000     -0.0000       90.00
 1/2[<0|r|b>*<b|rxdel|0> + (<0|rxdel|b>*<b|r|0>)*]
 Rotatory Strengths (R) in cgs (10**-40 erg-esu-cm/Gauss)
       state          XX          YY          ZZ     R(length)
         1        -0.0000     -0.0000      0.0000     -0.0000
  1/2[<0|del|b>*<b|r|0> + (<0|r|b>*<b|del|0>)*] (Au)
       state          X           Y           Z        Dip. S.   Osc.(frdel)
         1        -0.0310     -0.0096     -0.0000      0.0406      0.0271

 Excitation energies and oscillator strengths:
 
 Excited State   1:      Singlet-A'     2.7699 eV  447.62 nm  f=0.0242  <S**2>=0.000
      47 -> 48         0.70382
 This state for optimization and/or second-order correction.
 Total Energy, E(TD-HF/TD-DFT) =  -539.656735127    
 Copying the excited state density for this state as the 1-particle RhoCI density.
 SavETr:  write IOETrn=   770 NScale= 10 NData=  16 NLR=1 NState=    1 LETran=      28.

 **********************************************************************

            Population analysis using the SCF Density.

 **********************************************************************

 Orbital symmetries:
       Occupied  (A') (A') (A') (A') (A') (A') (A') (A') (A') (A')
                 (A') (A') (A') (A') (A') (A') (A') (A') (A') (A')
                 (A') (A') (A') (A') (A') (A') (A') (A') (A') (A')
                 (A') (A') (A") (A') (A') (A') (A') (A") (A") (A')
                 (A') (A') (A') (A") (A") (A") (A")
       Virtual   (A") (A") (A") (A") (A') (A') (A') (A') (A") (A')
                 (A') (A") (A') (A') (A") (A') (A") (A') (A') (A')
                 (A") (A") (A') (A') (A') (A") (A') (A") (A') (A')
                 (A") (A') (A") (A') (A') (A') (A') (A') (A") (A')
                 (A") (A') (A') (A") (A") (A') (A") (A') (A") (A')
                 (A') (A') (A') (A') (A') (A") (A') (A') (A') (A')
                 (A') (A") (A') (A') (A') (A') (A") (A') (A') (A')
                 (A') (A') (A') (A') (A') (A') (A') (A') (A') (A')
                 (A') (A') (A') (A') (A') (A') (A') (A') (A') (A')
                 (A') (A') (A') (A') (A") (A') (A") (A") (A') (A")
                 (A') (A') (A') (A') (A") (A") (A') (A") (A") (A')
                 (A') (A') (A") (A') (A') (A") (A') (A") (A') (A")
                 (A") (A') (A") (A') (A') (A') (A") (A') (A') (A')
                 (A') (A') (A') (A') (A') (A') (A') (A') (A') (A')
                 (A') (A') (A') (A") (A') (A') (A') (A') (A') (A')
                 (A') (A') (A") (A') (A") (A') (A") (A") (A') (A")
                 (A") (A') (A') (A") (A") (A") (A') (A") (A') (A')
                 (A') (A') (A') (A") (A") (A') (A') (A') (A') (A")
                 (A') (A') (A') (A") (A') (A") (A') (A') (A") (A")
                 (A") (A') (A') (A") (A") (A') (A') (A') (A') (A')
                 (A") (A") (A") (A') (A') (A") (A') (A") (A') (A')
                 (A') (A") (A') (A") (A") (A') (A") (A') (A') (A")
                 (A') (A') (A') (A') (A") (A') (A') (A') (A") (A")
                 (A') (A') (A') (A") (A') (A') (A') (A") (A") (A')
                 (A") (A') (A') (A") (A') (A') (A') (A') (A') (A')
                 (A") (A') (A') (A') (A') (A") (A") (A") (A') (A')
                 (A') (A') (A') (A') (A') (A') (A") (A') (A') (A')
                 (A') (A") (A') (A") (A") (A") (A') (A") (A') (A")
                 (A') (A") (A") (A') (A") (A") (A') (A') (A') (A')
                 (A') (A') (A') (A') (A') (A') (A') (A') (A') (A')
                 (A') (A') (A') (A') (A") (A') (A') (A') (A') (A')
                 (A') (A') (A') (A') (A') (A') (A') (A') (A') (A')
                 (A') (A') (A') (A') (A') (A') (A') (A') (A') (A')
                 (A') (A')
 The electronic state is 1-A'.
 Alpha  occ. eigenvalues --  -10.77660 -10.73581 -10.72999 -10.72675 -10.72209
 Alpha  occ. eigenvalues --  -10.71640 -10.71521 -10.71093 -10.71009 -10.70492
 Alpha  occ. eigenvalues --  -10.70106 -10.69843 -10.69805 -10.69480  -1.16420
 Alpha  occ. eigenvalues --   -1.12434  -1.06944  -1.05682  -1.01304  -1.00193
 Alpha  occ. eigenvalues --   -0.95726  -0.91029  -0.86418  -0.85881  -0.83790
 Alpha  occ. eigenvalues --   -0.78373  -0.76014  -0.74397  -0.69649  -0.69257
 Alpha  occ. eigenvalues --   -0.68428  -0.68134  -0.68115  -0.64899  -0.64239
 Alpha  occ. eigenvalues --   -0.62891  -0.61779  -0.60225  -0.59499  -0.59124
 Alpha  occ. eigenvalues --   -0.56886  -0.55247  -0.54714  -0.52445  -0.46808
 Alpha  occ. eigenvalues --   -0.46091  -0.44292
 Alpha virt. eigenvalues --   -0.26112  -0.14663  -0.14094  -0.12774  -0.11179
 Alpha virt. eigenvalues --   -0.10082  -0.09238  -0.07976  -0.07968  -0.07477
 Alpha virt. eigenvalues --   -0.07199  -0.07138  -0.05647  -0.05576  -0.05334
 Alpha virt. eigenvalues --   -0.03833  -0.03650  -0.03276  -0.03137  -0.02166
 Alpha virt. eigenvalues --   -0.01359  -0.00936   0.00199   0.00592   0.00629
 Alpha virt. eigenvalues --    0.01058   0.01513   0.01945   0.02191   0.02307
 Alpha virt. eigenvalues --    0.02449   0.02668   0.02753   0.03320   0.03436
 Alpha virt. eigenvalues --    0.04238   0.04494   0.04709   0.05037   0.05373
 Alpha virt. eigenvalues --    0.06035   0.06286   0.06588   0.07029   0.07267
 Alpha virt. eigenvalues --    0.07892   0.08127   0.08348   0.08551   0.08923
 Alpha virt. eigenvalues --    0.09516   0.09573   0.10003   0.10830   0.10962
 Alpha virt. eigenvalues --    0.11128   0.12131   0.12240   0.12813   0.12987
 Alpha virt. eigenvalues --    0.13423   0.13527   0.13991   0.14376   0.16027
 Alpha virt. eigenvalues --    0.16361   0.16427   0.17337   0.17565   0.17795
 Alpha virt. eigenvalues --    0.18108   0.19090   0.19299   0.19601   0.19774
 Alpha virt. eigenvalues --    0.21485   0.21594   0.22689   0.23116   0.23539
 Alpha virt. eigenvalues --    0.23906   0.24602   0.25476   0.26927   0.27594
 Alpha virt. eigenvalues --    0.28818   0.29261   0.29841   0.31335   0.35745
 Alpha virt. eigenvalues --    0.36399   0.38199   0.39270   0.41114   0.41374
 Alpha virt. eigenvalues --    0.41922   0.42211   0.42985   0.43648   0.44318
 Alpha virt. eigenvalues --    0.44876   0.45065   0.45994   0.46258   0.47984
 Alpha virt. eigenvalues --    0.48484   0.48804   0.49049   0.50440   0.51009
 Alpha virt. eigenvalues --    0.51337   0.51803   0.52126   0.52814   0.54017
 Alpha virt. eigenvalues --    0.54103   0.54581   0.55674   0.55808   0.57644
 Alpha virt. eigenvalues --    0.58231   0.58850   0.61441   0.62256   0.62352
 Alpha virt. eigenvalues --    0.63180   0.63480   0.64867   0.65142   0.67199
 Alpha virt. eigenvalues --    0.70430   0.70595   0.71056   0.72418   0.72859
 Alpha virt. eigenvalues --    0.75713   0.76022   0.76309   0.76843   0.77104
 Alpha virt. eigenvalues --    0.77829   0.77876   0.78207   0.79918   0.80381
 Alpha virt. eigenvalues --    0.81208   0.81626   0.82240   0.82992   0.85156
 Alpha virt. eigenvalues --    0.87090   0.88105   0.88409   0.89194   0.90466
 Alpha virt. eigenvalues --    0.90989   0.91317   0.93218   0.94596   0.96341
 Alpha virt. eigenvalues --    0.96749   1.00365   1.01240   1.01648   1.02743
 Alpha virt. eigenvalues --    1.03209   1.03442   1.04770   1.05844   1.08758
 Alpha virt. eigenvalues --    1.19529   1.23181   1.24064   1.24859   1.28184
 Alpha virt. eigenvalues --    1.29617   1.31872   1.34373   1.35729   1.35979
 Alpha virt. eigenvalues --    1.39288   1.39960   1.40906   1.43071   1.43470
 Alpha virt. eigenvalues --    1.43479   1.44471   1.46100   1.46334   1.46638
 Alpha virt. eigenvalues --    1.47657   1.48016   1.51653   1.53615   1.55488
 Alpha virt. eigenvalues --    1.55822   1.56310   1.56602   1.57739   1.61377
 Alpha virt. eigenvalues --    1.63214   1.63434   1.63988   1.66055   1.68228
 Alpha virt. eigenvalues --    1.68339   1.68748   1.69802   1.74326   1.75965
 Alpha virt. eigenvalues --    1.77098   1.78055   1.79793   1.80033   1.80717
 Alpha virt. eigenvalues --    1.83010   1.83217   1.83542   1.83814   1.84208
 Alpha virt. eigenvalues --    1.84362   1.85676   1.86223   1.88243   1.91367
 Alpha virt. eigenvalues --    1.92044   1.94066   1.95189   1.97696   1.98113
 Alpha virt. eigenvalues --    1.99699   2.02136   2.04359   2.07276   2.11752
 Alpha virt. eigenvalues --    2.12029   2.14141   2.15241   2.18988   2.21090
 Alpha virt. eigenvalues --    2.22766   2.28671   2.29940   2.34492   2.34845
 Alpha virt. eigenvalues --    2.36258   2.38653   2.39622   2.42319   2.45022
 Alpha virt. eigenvalues --    2.46112   2.46155   2.49257   2.52864   2.53764
 Alpha virt. eigenvalues --    2.54044   2.56953   2.57845   2.58339   2.59532
 Alpha virt. eigenvalues --    2.59846   2.61547   2.62091   2.63508   2.63706
 Alpha virt. eigenvalues --    2.64780   2.65057   2.65119   2.65420   2.67757
 Alpha virt. eigenvalues --    2.68357   2.70917   2.71428   2.73338   2.74797
 Alpha virt. eigenvalues --    2.76298   2.78394   2.79652   2.82713   2.83073
 Alpha virt. eigenvalues --    2.84825   2.86183   2.92068   2.97070   2.99443
 Alpha virt. eigenvalues --    3.00036   3.04660   3.10260   3.11187   3.13408
 Alpha virt. eigenvalues --    3.20661   3.22543   3.26425   3.28237   3.30602
 Alpha virt. eigenvalues --    3.32758   3.34012   3.43557   3.45965   3.46396
 Alpha virt. eigenvalues --    3.48207   3.49927   3.56279   3.66564   3.66754
 Alpha virt. eigenvalues --    3.67501   3.94098   3.94265   3.95352   3.96248
 Alpha virt. eigenvalues --    4.03957   4.06669   4.07432   4.12560   4.35143
 Alpha virt. eigenvalues --    4.60651   4.69489   4.71419  23.45319  23.60270
 Alpha virt. eigenvalues --   23.81405  23.84062  23.86651  23.88938  23.91107
 Alpha virt. eigenvalues --   23.93739  23.96467  23.97987  24.01124  24.02671
 Alpha virt. eigenvalues --   24.10709  24.11263
          Condensed to atoms (all electrons):
               1          2          3          4          5          6
     1  C    8.525398   0.345582  -0.587543   1.980824  -0.037853  -0.091323
     2  C    0.345582   7.218475   0.379885  -1.087695  -0.021917  -0.014385
     3  C   -0.587543   0.379885   6.599337   0.755450  -0.120741   0.016913
     4  C    1.980824  -1.087695   0.755450  11.486601  -0.432650  -0.137174
     5  C   -0.037853  -0.021917  -0.120741  -0.432650  11.008975   0.820166
     6  C   -0.091323  -0.014385   0.016913  -0.137174   0.820166   6.596901
     7  C   -0.019304  -0.001094  -0.013285   0.009052  -1.207986   0.278292
     8  C    0.399905  -0.001770  -0.102449  -0.087815   2.263042  -0.432748
     9  C   -1.068122  -0.858437   0.302157  -0.033933  -0.288974   0.301784
    10  C   -1.283307   0.213575  -0.297942  -2.716504  -2.484990  -0.394992
    11  C    0.349467  -0.812370   0.928211  -0.361767  -1.465225  -0.136339
    12  C   -2.134490   1.228011  -1.390725  -1.761115  -0.277976  -0.246723
    13  C    0.246243  -0.221813  -0.200460  -1.565399  -0.349825   1.050852
    14  C   -1.122358  -0.243316  -0.150146  -0.408893  -1.750977  -1.485775
    15  H    0.369896  -0.109058  -0.001878   0.027337   0.005896   0.001177
    16  H   -0.019946   0.382985  -0.020344   0.015281  -0.001623  -0.000346
    17  H   -0.023899  -0.019591   0.379219  -0.070409   0.000231   0.000414
    18  H    0.050358   0.003287  -0.083912   0.467287   0.004901  -0.005161
    19  H   -0.045246  -0.008176   0.051711  -0.075538  -0.064511   0.052013
    20  H    0.006826   0.002125  -0.005289   0.004953   0.460047  -0.084338
    21  H   -0.001258  -0.000413   0.000397   0.000401  -0.068195   0.371569
    22  H    0.000568   0.000345  -0.000311  -0.001405   0.011436  -0.015121
    23  H    0.005952  -0.002388   0.001035   0.004787   0.029934   0.000729
    24  H    0.036901   0.015565  -0.001505  -0.011577  -0.012671  -0.001781
    25  H    0.036901   0.015565  -0.001505  -0.011577  -0.012671  -0.001781
               7          8          9         10         11         12
     1  C   -0.019304   0.399905  -1.068122  -1.283307   0.349467  -2.134490
     2  C   -0.001094  -0.001770  -0.858437   0.213575  -0.812370   1.228011
     3  C   -0.013285  -0.102449   0.302157  -0.297942   0.928211  -1.390725
     4  C    0.009052  -0.087815  -0.033933  -2.716504  -0.361767  -1.761115
     5  C   -1.207986   2.263042  -0.288974  -2.484990  -1.465225  -0.277976
     6  C    0.278292  -0.432748   0.301784  -0.394992  -0.136339  -0.246723
     7  C    7.229265   0.039520  -0.811831   0.318875  -0.276328  -0.119720
     8  C    0.039520   8.896924  -1.063085  -1.384372   0.303889  -1.078511
     9  C   -0.811831  -1.063085   9.527544   0.268743   1.473442  -1.956861
    10  C    0.318875  -1.384372   0.268743   9.039460  -0.271136   2.390118
    11  C   -0.276328   0.303889   1.473442  -0.271136  14.381464  -3.894271
    12  C   -0.119720  -1.078511  -1.956861   2.390118  -3.894271  16.204157
    13  C   -0.921338   0.327192   1.396411  -0.360484   1.106651  -4.688613
    14  C    1.627163  -2.585430  -1.742203   2.432350  -4.753320   3.225571
    15  H   -0.002743   0.004945   0.088387  -0.008695  -0.030069  -0.018117
    16  H    0.000395   0.000926   0.001569  -0.009517   0.023447  -0.029148
    17  H   -0.000387  -0.001357  -0.004967   0.020010  -0.025436   0.089923
    18  H    0.002182   0.006838  -0.022997   0.006310  -0.005655  -0.054118
    19  H   -0.007705  -0.047609   0.074450   0.421678   0.077236  -0.077334
    20  H    0.002092   0.054215  -0.024972   0.010625  -0.012090  -0.012228
    21  H   -0.010997  -0.031195  -0.005851   0.020034  -0.006179   0.005322
    22  H    0.377574  -0.017905   0.002852  -0.008131   0.002632  -0.008205
    23  H   -0.110419   0.371969   0.092554  -0.010530   0.004544   0.005296
    24  H    0.013892   0.031558   0.354345   0.005094   0.020162  -0.060741
    25  H    0.013892   0.031558   0.354345   0.005094   0.020162  -0.060741
              13         14         15         16         17         18
     1  C    0.246243  -1.122358   0.369896  -0.019946  -0.023899   0.050358
     2  C   -0.221813  -0.243316  -0.109058   0.382985  -0.019591   0.003287
     3  C   -0.200460  -0.150146  -0.001878  -0.020344   0.379219  -0.083912
     4  C   -1.565399  -0.408893   0.027337   0.015281  -0.070409   0.467287
     5  C   -0.349825  -1.750977   0.005896  -0.001623   0.000231   0.004901
     6  C    1.050852  -1.485775   0.001177  -0.000346   0.000414  -0.005161
     7  C   -0.921338   1.627163  -0.002743   0.000395  -0.000387   0.002182
     8  C    0.327192  -2.585430   0.004945   0.000926  -0.001357   0.006838
     9  C    1.396411  -1.742203   0.088387   0.001569  -0.004967  -0.022997
    10  C   -0.360484   2.432350  -0.008695  -0.009517   0.020010   0.006310
    11  C    1.106651  -4.753320  -0.030069   0.023447  -0.025436  -0.005655
    12  C   -4.688613   3.225571  -0.018117  -0.029148   0.089923  -0.054118
    13  C   14.204342  -3.453018  -0.001500   0.003218  -0.006240  -0.012300
    14  C   -3.453018  15.938289   0.007079  -0.009796   0.005316  -0.019562
    15  H   -0.001500   0.007079   0.436849  -0.009079   0.001596   0.000186
    16  H    0.003218  -0.009796  -0.009079   0.417937  -0.006909   0.001963
    17  H   -0.006240   0.005316   0.001596  -0.006909   0.421045  -0.010307
    18  H   -0.012300  -0.019562   0.000186   0.001963  -0.010307   0.451517
    19  H    0.079630  -0.055060   0.000380  -0.000589   0.001607  -0.006058
    20  H   -0.002017  -0.063968  -0.000122   0.000018  -0.000158   0.001232
    21  H   -0.026144   0.096221   0.000016  -0.000007   0.000011  -0.000132
    22  H    0.023948  -0.030855  -0.000127   0.000008  -0.000007   0.000013
    23  H   -0.032435  -0.031298   0.000539  -0.000130   0.000013  -0.000109
    24  H    0.007767  -0.060824  -0.000955   0.000634  -0.000140   0.000169
    25  H    0.007767  -0.060824  -0.000955   0.000634  -0.000140   0.000169
              19         20         21         22         23         24
     1  C   -0.045246   0.006826  -0.001258   0.000568   0.005952   0.036901
     2  C   -0.008176   0.002125  -0.000413   0.000345  -0.002388   0.015565
     3  C    0.051711  -0.005289   0.000397  -0.000311   0.001035  -0.001505
     4  C   -0.075538   0.004953   0.000401  -0.001405   0.004787  -0.011577
     5  C   -0.064511   0.460047  -0.068195   0.011436   0.029934  -0.012671
     6  C    0.052013  -0.084338   0.371569  -0.015121   0.000729  -0.001781
     7  C   -0.007705   0.002092  -0.010997   0.377574  -0.110419   0.013892
     8  C   -0.047609   0.054215  -0.031195  -0.017905   0.371969   0.031558
     9  C    0.074450  -0.024972  -0.005851   0.002852   0.092554   0.354345
    10  C    0.421678   0.010625   0.020034  -0.008131  -0.010530   0.005094
    11  C    0.077236  -0.012090  -0.006179   0.002632   0.004544   0.020162
    12  C   -0.077334  -0.012228   0.005322  -0.008205   0.005296  -0.060741
    13  C    0.079630  -0.002017  -0.026144   0.023948  -0.032435   0.007767
    14  C   -0.055060  -0.063968   0.096221  -0.030855  -0.031298  -0.060824
    15  H    0.000380  -0.000122   0.000016  -0.000127   0.000539  -0.000955
    16  H   -0.000589   0.000018  -0.000007   0.000008  -0.000130   0.000634
    17  H    0.001607  -0.000158   0.000011  -0.000007   0.000013  -0.000140
    18  H   -0.006058   0.001232  -0.000132   0.000013  -0.000109   0.000169
    19  H    0.443236  -0.006675   0.001272  -0.000517   0.000278   0.000561
    20  H   -0.006675   0.457439  -0.010466   0.001916   0.000083   0.000215
    21  H    0.001272  -0.010466   0.423817  -0.006263   0.001343  -0.000148
    22  H   -0.000517   0.001916  -0.006263   0.421471  -0.009076   0.000638
    23  H    0.000278   0.000083   0.001343  -0.009076   0.442706  -0.000914
    24  H    0.000561   0.000215  -0.000148   0.000638  -0.000914   0.492510
    25  H    0.000561   0.000215  -0.000148   0.000638  -0.000914  -0.077934
              25
     1  C    0.036901
     2  C    0.015565
     3  C   -0.001505
     4  C   -0.011577
     5  C   -0.012671
     6  C   -0.001781
     7  C    0.013892
     8  C    0.031558
     9  C    0.354345
    10  C    0.005094
    11  C    0.020162
    12  C   -0.060741
    13  C    0.007767
    14  C   -0.060824
    15  H   -0.000955
    16  H    0.000634
    17  H   -0.000140
    18  H    0.000169
    19  H    0.000561
    20  H    0.000215
    21  H   -0.000148
    22  H    0.000638
    23  H   -0.000914
    24  H   -0.077934
    25  H    0.492510
 Mulliken charges:
               1
     1  C    0.079829
     2  C   -0.402976
     3  C   -0.436281
     4  C    0.011479
     5  C   -0.005845
     6  C   -0.442822
     7  C   -0.409056
     8  C    0.101766
     9  C   -0.356350
    10  C    0.078634
    11  C   -0.641121
    12  C    0.721241
    13  C   -0.612436
    14  C    0.695634
    15  H    0.239015
    16  H    0.258419
    17  H    0.250566
    18  H    0.223899
    19  H    0.190404
    20  H    0.220322
    21  H    0.246992
    22  H    0.253884
    23  H    0.236450
    24  H    0.249177
    25  H    0.249177
 Sum of Mulliken charges =   1.00000
 Mulliken charges with hydrogens summed into heavy atoms:
               1
     1  C    0.318844
     2  C   -0.144556
     3  C   -0.185715
     4  C    0.235378
     5  C    0.214476
     6  C   -0.195830
     7  C   -0.155173
     8  C    0.338216
     9  C    0.142005
    10  C    0.269038
    11  C   -0.641121
    12  C    0.721241
    13  C   -0.612436
    14  C    0.695634
 Electronic spatial extent (au):  <R**2>=           2858.6723
 Charge=              1.0000 electrons
 Dipole moment (field-independent basis, Debye):
    X=             -0.0952    Y=             -0.5838    Z=             -0.0000  Tot=              0.5915
 Quadrupole moment (field-independent basis, Debye-Ang):
   XX=            -50.9361   YY=            -36.3853   ZZ=            -84.1407
   XY=             10.3153   XZ=              0.0000   YZ=              0.0000
 Traceless Quadrupole moment (field-independent basis, Debye-Ang):
   XX=              6.2179   YY=             20.7687   ZZ=            -26.9867
   XY=             10.3153   XZ=              0.0000   YZ=              0.0000
 Octapole moment (field-independent basis, Debye-Ang**2):
  XXX=             -1.5446  YYY=              0.3573  ZZZ=              0.0000  XYY=             -1.7605
  XXY=             -6.7619  XXZ=              0.0000  XZZ=             -3.1395  YZZ=              0.7495
  YYZ=             -0.0000  XYZ=              0.0000
 Hexadecapole moment (field-independent basis, Debye-Ang**3):
 XXXX=           -992.8150 YYYY=          -1847.6722 ZZZZ=            -99.3461 XXXY=           -348.9620
 XXXZ=             -0.0000 YYYX=           -275.0825 YYYZ=              0.0000 ZZZX=              0.0000
 ZZZY=             -0.0000 XXYY=           -454.6042 XXZZ=           -242.5912 YYZZ=           -494.5327
 XXYZ=             -0.0000 YYXZ=             -0.0000 ZZXY=           -183.7263
 N-N= 7.808122331743D+02 E-N=-2.797956864786D+03  KE= 5.374916926396D+02
 Symmetry A'   KE= 5.228426696309D+02
 Symmetry A"   KE= 1.464902300870D+01
 Unable to Open any file for archive entry.
 1\1\GINC-GADI-CPU-CLX-1762\SP\RM062X TD-FC\6-311++G(d,p)\C14H11(1+)\TS
 1578\02-Aug-2022\0\\#n M062X/6-311++G(d,p) TD(NStates=1) EmpiricalDisp
 ersion=GD3 SP\\SP_150\\1,1\C,0,2.482755,1.359831,0.\C,0,3.686958,0.664
 239,0.\C,0,3.680461,-0.72823,0.\C,0,2.478956,-1.417038,0.\C,0,-2.44775
 6,-1.398838,0.\C,0,-3.689661,-0.70343,0.\C,0,-3.719858,0.678339,0.\C,0
 ,-2.510155,1.358631,0.\C,0,-0.00885,1.462169,0.\C,0,0.0244,-1.429589,0
 .\C,0,1.266005,0.684815,0.\C,0,1.246671,-0.731404,0.\C,0,-1.258705,0.6
 69515,0.\C,0,-1.226671,-0.729004,0.\H,0,2.488271,2.442797,0.\H,0,4.622
 403,1.204439,0.\H,0,4.612762,-1.274399,0.\H,0,2.47425,-2.499209,0.\H,0
 ,0.0225,-2.510466,0.\H,0,-2.45965,-2.481509,0.\H,0,-4.606962,-1.275299
 ,0.\H,0,-4.655703,1.215939,0.\H,0,-2.496671,2.441897,0.\H,0,-0.032,2.1
 47787,-0.861785\H,0,-0.032,2.147787,0.861785\\Version=ES64L-G16RevC.01
 \State=1-A'\HF=-539.758526\RMSD=7.569e-09\PG=CS [SG(C14H9),X(H2)]\\@
 The archive entry for this job was punched.


 IF YOU GIVE EVERYONE A PIECE OF YOUR MIND,
 PRETTY SOON IT WILL BE ALL GONE.
 Job cpu time:       0 days  0 hours 52 minutes 24.8 seconds.
 Elapsed time:       0 days  0 hours  1 minutes  5.7 seconds.
 File lengths (MBytes):  RWF=    460 Int=      0 D2E=      0 Chk=     15 Scr=      1
 Normal termination of Gaussian 16 at Tue Aug  2 13:34:42 2022.
