 Entering Gaussian System, Link 0=g16
 Initial command:
 /apps/gaussian/g16c01/g16/l1.exe "/jobfs/53796104.gadi-pbs/Gau-3637649.inp" -scrdir="/jobfs/53796104.gadi-pbs/"
 Entering Link 1 = /apps/gaussian/g16c01/g16/l1.exe PID=   3637650.
  
 Copyright (c) 1988-2019, Gaussian, Inc.  All Rights Reserved.
  
 This is part of the Gaussian(R) 16 program.  It is based on
 the Gaussian(R) 09 system (copyright 2009, Gaussian, Inc.),
 the Gaussian(R) 03 system (copyright 2003, Gaussian, Inc.),
 the Gaussian(R) 98 system (copyright 1998, Gaussian, Inc.),
 the Gaussian(R) 94 system (copyright 1995, Gaussian, Inc.),
 the Gaussian 92(TM) system (copyright 1992, Gaussian, Inc.),
 the Gaussian 90(TM) system (copyright 1990, Gaussian, Inc.),
 the Gaussian 88(TM) system (copyright 1988, Gaussian, Inc.),
 the Gaussian 86(TM) system (copyright 1986, Carnegie Mellon
 University), and the Gaussian 82(TM) system (copyright 1983,
 Carnegie Mellon University). Gaussian is a federally registered
 trademark of Gaussian, Inc.
  
 This software contains proprietary and confidential information,
 including trade secrets, belonging to Gaussian, Inc.
  
 This software is provided under written license and may be
 used, copied, transmitted, or stored only in accord with that
 written license.
  
 The following legend is applicable only to US Government
 contracts under FAR:
  
                    RESTRICTED RIGHTS LEGEND
  
 Use, reproduction and disclosure by the US Government is
 subject to restrictions as set forth in subparagraphs (a)
 and (c) of the Commercial Computer Software - Restricted
 Rights clause in FAR 52.227-19.
  
 Gaussian, Inc.
 340 Quinnipiac St., Bldg. 40, Wallingford CT 06492
  
  
 ---------------------------------------------------------------
 Warning -- This program may not be used in any manner that
 competes with the business of Gaussian, Inc. or will provide
 assistance to any competitor of Gaussian, Inc.  The licensee
 of this program is prohibited from giving any competitor of
 Gaussian, Inc. access to this program.  By using this program,
 the user acknowledges that Gaussian, Inc. is engaged in the
 business of creating and licensing software in the field of
 computational chemistry and represents and warrants to the
 licensee that it is not a competitor of Gaussian, Inc. and that
 it will not use this program in any manner prohibited above.
 ---------------------------------------------------------------
  

 Cite this work as:
 Gaussian 16, Revision C.01,
 M. J. Frisch, G. W. Trucks, H. B. Schlegel, G. E. Scuseria, 
 M. A. Robb, J. R. Cheeseman, G. Scalmani, V. Barone, 
 G. A. Petersson, H. Nakatsuji, X. Li, M. Caricato, A. V. Marenich, 
 J. Bloino, B. G. Janesko, R. Gomperts, B. Mennucci, H. P. Hratchian, 
 J. V. Ortiz, A. F. Izmaylov, J. L. Sonnenberg, D. Williams-Young, 
 F. Ding, F. Lipparini, F. Egidi, J. Goings, B. Peng, A. Petrone, 
 T. Henderson, D. Ranasinghe, V. G. Zakrzewski, J. Gao, N. Rega, 
 G. Zheng, W. Liang, M. Hada, M. Ehara, K. Toyota, R. Fukuda, 
 J. Hasegawa, M. Ishida, T. Nakajima, Y. Honda, O. Kitao, H. Nakai, 
 T. Vreven, K. Throssell, J. A. Montgomery, Jr., J. E. Peralta, 
 F. Ogliaro, M. J. Bearpark, J. J. Heyd, E. N. Brothers, K. N. Kudin, 
 V. N. Staroverov, T. A. Keith, R. Kobayashi, J. Normand, 
 K. Raghavachari, A. P. Rendell, J. C. Burant, S. S. Iyengar, 
 J. Tomasi, M. Cossi, J. M. Millam, M. Klene, C. Adamo, R. Cammi, 
 J. W. Ochterski, R. L. Martin, K. Morokuma, O. Farkas, 
 J. B. Foresman, and D. J. Fox, Gaussian, Inc., Wallingford CT, 2019.
 
 ******************************************
 Gaussian 16:  ES64L-G16RevC.01  3-Jul-2019
                 2-Aug-2022 
 ******************************************
 %NProcShared=48
 Will use up to   48 processors via shared memory.
 %mem = 190GB
 ---------------------------------------------------------------
 #n M062X/6-311++G(d,p) TD(NStates=1) EmpiricalDispersion=GD3 SP
 ---------------------------------------------------------------
 1/38=1,172=1/1;
 2/12=2,17=6,18=5,40=1/2;
 3/5=4,6=6,7=1111,11=9,25=1,30=1,74=-55,124=31/1,2,3,8;
 4//1;
 5/5=2,38=5/2;
 8/6=1,10=2,108=1/1;
 9/41=1,42=1,70=2/14;
 6/7=2,8=2,9=2,10=2/1;
 99/5=1,9=1/99;
 -----
 SP_25
 -----
 Symbolic Z-matrix:
 Charge =  1 Multiplicity = 1
 C                     2.46631   1.36223   0. 
 C                     3.67153   0.66009   0. 
 C                     3.67506  -0.73428   0. 
 C                     2.49033  -1.42321   0. 
 C                    -2.43573  -1.39136   0. 
 C                    -3.69116  -0.69088   0. 
 C                    -3.72911   0.68476   0. 
 C                    -2.51426   1.36013   0. 
 C                    -0.01525   1.44787   0. 
 C                     0.0427   -1.42894   0. 
 C                     1.26826   0.69039   0. 
 C                     1.25547  -0.73328   0. 
 C                    -1.25548   0.66362   0. 
 C                    -1.22047  -0.72908   0. 
 H                     2.47797   2.44525   0. 
 H                     4.60618   1.20256   0. 
 H                     4.61396  -1.27      0. 
 H                     2.4807   -2.50536   0. 
 H                     0.03938  -2.51014   0. 
 H                    -2.45515  -2.47438   0. 
 H                    -4.60381  -1.27157   0. 
 H                    -4.66445   1.22269   0. 
 H                    -2.49267   2.44367   0. 
 H                    -0.056     2.14454  -0.85821 
 H                    -0.056     2.14454   0.85821 
 
                          Input orientation:                          
 ---------------------------------------------------------------------
 Center     Atomic      Atomic             Coordinates (Angstroms)
 Number     Number       Type             X           Y           Z
 ---------------------------------------------------------------------
      1          6           0        2.466305    1.362231    0.000000
      2          6           0        3.671533    0.660089    0.000000
      3          6           0        3.675061   -0.734280    0.000000
      4          6           0        2.490331   -1.423213    0.000000
      5          6           0       -2.435731   -1.391363    0.000000
      6          6           0       -3.691161   -0.690880    0.000000
      7          6           0       -3.729108    0.684764    0.000000
      8          6           0       -2.514255    1.360131    0.000000
      9          6           0       -0.015250    1.447869    0.000000
     10          6           0        0.042700   -1.428939    0.000000
     11          6           0        1.268255    0.690390    0.000000
     12          6           0        1.255471   -0.733279    0.000000
     13          6           0       -1.255480    0.663615    0.000000
     14          6           0       -1.220471   -0.729079    0.000000
     15          1           0        2.477971    2.445247    0.000000
     16          1           0        4.606178    1.202564    0.000000
     17          1           0        4.613962   -1.269999    0.000000
     18          1           0        2.480700   -2.505359    0.000000
     19          1           0        0.039375   -2.510141    0.000000
     20          1           0       -2.455150   -2.474384    0.000000
     21          1           0       -4.603812   -1.271574    0.000000
     22          1           0       -4.664453    1.222689    0.000000
     23          1           0       -2.492671    2.443672    0.000000
     24          1           0       -0.056000    2.144537   -0.858210
     25          1           0       -0.056000    2.144537    0.858210
 ---------------------------------------------------------------------
                    Distance matrix (angstroms):
                    1          2          3          4          5
     1  C    0.000000
     2  C    1.394840   0.000000
     3  C    2.420010   1.394373   0.000000
     4  C    2.785548   2.394866   1.370479   0.000000
     5  C    5.622476   6.442603   6.146018   4.926165   0.000000
     6  C    6.490736   7.485612   7.366350   6.224721   1.437630
     7  C    6.232343   7.400682   7.538926   6.566962   2.446043
     8  C    4.980560   6.225274   6.534079   5.726507   2.752614
     9  C    2.483032   3.770009   4.287210   3.810649   3.730947
    10  C    3.696551   4.187179   3.698188   2.447638   2.478716
    11  C    1.373570   2.403469   2.796855   2.441472   4.248907
    12  C    2.420182   2.789055   2.419590   1.414528   3.749406
    13  C    3.786786   4.927014   5.124875   4.287884   2.369795
    14  C    4.238619   5.085419   4.895535   3.775165   1.384008
    15  H    1.083079   2.147412   3.397413   3.868480   6.234103
    16  H    2.145822   1.080667   2.149033   3.372167   7.504461
    17  H    3.397214   2.147885   1.080986   2.129151   7.050738
    18  H    3.867617   3.382033   2.136169   1.082189   5.041059
    19  H    4.570039   4.821092   4.046220   2.681156   2.716213
    20  H    6.240219   6.881945   6.372397   5.055961   1.083195
    21  H    7.544765   8.497803   8.296290   7.095763   2.171388
    22  H    7.132123   8.354950   8.566051   7.628351   3.435181
    23  H    5.075525   6.417054   6.938321   6.307385   3.835458
    24  H    2.776788   4.103000   4.790086   4.466449   4.347670
    25  H    2.776788   4.103000   4.790086   4.466449   4.347670
                    6          7          8          9         10
     6  C    0.000000
     7  C    1.376167   0.000000
     8  C    2.364689   1.389960   0.000000
     9  C    4.252831   3.791447   2.500545   0.000000
    10  C    3.806107   4.323688   3.783772   2.877392   0.000000
    11  C    5.148176   4.997366   3.841345   1.490356   2.448171
    12  C    4.946814   5.182362   4.311983   2.524310   1.398126
    13  C    2.786969   2.473718   1.438627   1.467387   2.462530
    14  C    2.470985   2.879620   2.457372   2.488305   1.444093
    15  H    6.920512   6.451909   5.108796   2.685314   4.576009
    16  H    8.510638   8.351354   7.122176   4.627934   5.267840
    17  H    8.325290   8.569009   7.597964   5.368092   4.574024
    18  H    6.433055   6.981304   6.315979   4.675230   2.665056
    19  H    4.150495   4.940535   4.636813   3.958387   1.081207
    20  H    2.169933   3.406345   3.834970   4.619219   2.707805
    21  H    1.081729   2.142981   3.360375   5.333880   4.649176
    22  H    2.146868   1.078997   2.154586   4.654653   5.402631
    23  H    3.355860   2.150008   1.083756   2.670063   4.628739
    24  H    4.689404   4.044649   2.719345   1.106133   3.676411
    25  H    4.689404   4.044649   2.719345   1.106133   3.676411
                   11         12         13         14         15
    11  C    0.000000
    12  C    1.423726   0.000000
    13  C    2.523877   2.873358   0.000000
    14  C    2.865074   2.475946   1.393134   0.000000
    15  H    2.131416   3.405515   4.136770   4.873892   0.000000
    16  H    3.376989   3.869719   5.886383   6.138492   2.464452
    17  H    3.877742   3.401107   6.179742   5.859454   4.285500
    18  H    3.418016   2.154403   4.899126   4.105343   4.950607
    19  H    3.428344   2.153167   3.427736   2.181603   5.522918
    20  H    4.886670   4.098799   3.359501   2.137878   6.966954
    21  H    6.191161   5.883958   3.867335   3.426558   7.997900
    22  H    5.956540   6.234686   3.454513   3.958587   7.246300
    23  H    4.149526   4.913409   2.167774   3.418310   4.970642
    24  H    2.145861   3.276935   2.090073   3.217171   2.692204
    25  H    2.145861   3.276935   2.090073   3.217171   2.692204
                   16         17         18         19         20
    16  H    0.000000
    17  H    2.472575   0.000000
    18  H    4.273915   2.465141   0.000000
    19  H    5.885564   4.739704   2.441330   0.000000
    20  H    7.961300   7.170975   4.935947   2.494781   0.000000
    21  H    9.536523   9.217774   7.191143   4.805542   2.462418
    22  H    9.270653   9.607418   8.059253   6.004999   4.306898
    23  H    7.206525   8.018453   7.016219   5.563409   4.918199
    24  H    4.833192   5.848429   5.365902   4.734094   5.275119
    25  H    4.833192   5.848429   5.365902   4.734094   5.275119
                   21         22         23         24         25
    21  H    0.000000
    22  H    2.495000   0.000000
    23  H    4.273169   2.491473   0.000000
    24  H    5.752298   4.777465   2.600648   0.000000
    25  H    5.752298   4.777465   2.600648   1.716420   0.000000
 Stoichiometry    C14H11(1+)
 Framework group  CS[SG(C14H9),X(H2)]
 Deg. of freedom    46
 Full point group                 CS      NOp   2
 Largest Abelian subgroup         CS      NOp   2
 Largest concise Abelian subgroup CS      NOp   2
                         Standard orientation:                         
 ---------------------------------------------------------------------
 Center     Atomic      Atomic             Coordinates (Angstroms)
 Number     Number       Type             X           Y           Z
 ---------------------------------------------------------------------
      1          6           0       -2.357489   -1.543933    0.000000
      2          6           0       -2.300236   -2.937597    0.000000
      3          6           0       -1.069269   -3.592576    0.000000
      4          6           0        0.093600   -2.867352    0.000000
      5          6           0        2.368353    1.502156    0.000000
      6          6           0        2.336036    2.939423    0.000000
      7          6           0        1.137713    3.616074    0.000000
      8          6           0       -0.027246    2.857880    0.000000
      9          6           0       -1.273078    0.689787    0.000000
     10          6           0        1.242917   -0.706334    0.000000
     11          6           0       -1.203502   -0.798944    0.000000
     12          6           0        0.060992   -1.453201    0.000000
     13          6           0        0.000000    1.419510    0.000000
     14          6           0        1.214769    0.737485    0.000000
     15          1           0       -3.320324   -1.047941    0.000000
     16          1           0       -3.216723   -3.510215    0.000000
     17          1           0       -1.034627   -4.673006    0.000000
     18          1           0        1.054715   -3.364736    0.000000
     19          1           0        2.200249   -1.208851    0.000000
     20          1           0        3.334817    1.013015    0.000000
     21          1           0        3.276027    3.474731    0.000000
     22          1           0        1.099458    4.694392    0.000000
     23          1           0       -0.995183    3.345349    0.000000
     24          1           0       -1.869880    1.051498    0.858210
     25          1           0       -1.869880    1.051498   -0.858210
 ---------------------------------------------------------------------
 Rotational constants (GHZ):           2.1383503           0.4448335           0.3690299
 Standard basis: 6-311++G(d,p) (5D, 7F)
 There are   299 symmetry adapted cartesian basis functions of A'  symmetry.
 There are   100 symmetry adapted cartesian basis functions of A"  symmetry.
 There are   285 symmetry adapted basis functions of A'  symmetry.
 There are   100 symmetry adapted basis functions of A"  symmetry.
   385 basis functions,   603 primitive gaussians,   399 cartesian basis functions
    47 alpha electrons       47 beta electrons
       nuclear repulsion energy       781.4879133903 Hartrees.
 NAtoms=   25 NActive=   25 NUniq=   24 SFac= 1.09D+00 NAtFMM=   60 NAOKFM=F Big=F
 Integral buffers will be    131072 words long.
 Regular integral format.
 Two-electron integral symmetry is turned on.
 Nuclear repulsion after empirical dispersion term =      781.4869343153 Hartrees.
 One-electron integrals computed using PRISM.
 NBasis=   385 RedAO= T EigKep=  1.11D-06  NBF=   285   100
 NBsUse=   379 1.00D-06 EigRej=  8.33D-07 NBFU=   279   100
 ExpMin= 3.60D-02 ExpMax= 4.56D+03 ExpMxC= 6.82D+02 IAcc=3 IRadAn=         5 AccDes= 0.00D+00
 Harris functional with IExCor= 1009 and IRadAn=       5 diagonalized for initial guess.
 HarFok:  IExCor= 1009 AccDes= 0.00D+00 IRadAn=         5 IDoV= 1 UseB2=F ITyADJ=14
 ICtDFT=  3500011 ScaDFX=  1.000000  1.000000  1.000000  1.000000
 FoFCou: FMM=F IPFlag=           0 FMFlag=      100000 FMFlg1=           0
         NFxFlg=           0 DoJE=T BraDBF=F KetDBF=T FulRan=T
         wScrn=  0.000000 ICntrl=       500 IOpCl=  0 I1Cent=   200000004 NGrid=           0
         NMat0=    1 NMatS0=      1 NMatT0=    0 NMatD0=    1 NMtDS0=    0 NMtDT0=    0
 Petite list used in FoFCou.
 Initial guess orbital symmetries:
       Occupied  (A') (A') (A') (A') (A') (A') (A') (A') (A') (A')
                 (A') (A') (A') (A') (A') (A') (A') (A') (A') (A')
                 (A') (A') (A') (A') (A') (A') (A') (A') (A') (A')
                 (A') (A') (A") (A') (A') (A') (A') (A') (A") (A')
                 (A") (A') (A') (A") (A") (A") (A")
       Virtual   (A") (A") (A") (A") (A") (A') (A') (A') (A') (A")
                 (A") (A') (A') (A') (A") (A') (A') (A') (A') (A")
                 (A') (A") (A') (A') (A') (A") (A') (A") (A') (A')
                 (A') (A') (A') (A') (A") (A') (A") (A') (A') (A')
                 (A") (A') (A") (A') (A') (A') (A') (A') (A') (A")
                 (A') (A') (A") (A") (A') (A') (A') (A") (A") (A')
                 (A') (A') (A') (A') (A') (A') (A") (A') (A') (A")
                 (A') (A') (A') (A') (A') (A') (A') (A') (A') (A')
                 (A') (A') (A') (A') (A') (A') (A') (A') (A') (A')
                 (A') (A') (A') (A') (A') (A') (A') (A") (A') (A")
                 (A') (A') (A") (A") (A') (A") (A') (A") (A") (A')
                 (A") (A') (A') (A') (A") (A') (A') (A") (A") (A')
                 (A") (A") (A') (A') (A') (A") (A') (A') (A') (A")
                 (A') (A') (A') (A') (A') (A') (A") (A') (A') (A')
                 (A') (A') (A') (A') (A') (A') (A') (A') (A') (A")
                 (A") (A') (A") (A") (A') (A') (A') (A") (A") (A')
                 (A") (A') (A") (A") (A") (A') (A') (A') (A') (A')
                 (A') (A") (A') (A') (A") (A') (A') (A') (A') (A")
                 (A') (A') (A') (A') (A") (A") (A') (A') (A") (A")
                 (A") (A') (A') (A") (A') (A') (A') (A") (A') (A')
                 (A") (A") (A") (A') (A') (A") (A') (A") (A') (A')
                 (A") (A") (A') (A") (A') (A") (A') (A') (A') (A")
                 (A') (A') (A') (A') (A") (A') (A') (A') (A") (A")
                 (A') (A') (A') (A") (A') (A') (A") (A') (A") (A')
                 (A") (A') (A') (A') (A') (A") (A') (A') (A') (A")
                 (A') (A') (A') (A") (A") (A') (A') (A") (A') (A')
                 (A') (A") (A') (A") (A') (A') (A') (A") (A') (A")
                 (A') (A') (A') (A') (A") (A') (A") (A') (A") (A')
                 (A") (A') (A") (A") (A") (A') (A') (A') (A') (A')
                 (A') (A') (A') (A') (A') (A') (A') (A') (A') (A')
                 (A') (A') (A') (A") (A') (A') (A') (A') (A') (A')
                 (A') (A') (A') (A') (A') (A') (A') (A') (A') (A')
                 (A') (A') (A') (A') (A') (A') (A') (A') (A') (A')
                 (A') (A')
 The electronic state of the initial guess is 1-A'.
 Requested convergence on RMS density matrix=1.00D-08 within 128 cycles.
 Requested convergence on MAX density matrix=1.00D-06.
 Requested convergence on             energy=1.00D-06.
 No special actions if energy rises.
 SCF Done:  E(RM062X) =  -539.754778867     A.U. after   15 cycles
            NFock= 15  Conv=0.93D-08     -V/T= 2.0041
 DoSCS=F DFT=T ScalE2(SS,OS)=  1.000000  1.000000
 ExpMin= 3.60D-02 ExpMax= 4.56D+03 ExpMxC= 6.82D+02 IAcc=3 IRadAn=         5 AccDes= 0.00D+00
 HarFok:  IExCor=  205 AccDes= 0.00D+00 IRadAn=         5 IDoV=-2 UseB2=F ITyADJ=14
 ICtDFT= 12500011 ScaDFX=  1.000000  1.000000  1.000000  1.000000
 Range of M.O.s used for correlation:    15   379
 NBasis=   385 NAE=    47 NBE=    47 NFC=    14 NFV=     0
 NROrb=    365 NOA=    33 NOB=    33 NVA=   332 NVB=   332

 **** Warning!!: The largest alpha MO coefficient is  0.14059591D+03

 Orbital symmetries:
       Occupied  (A') (A') (A') (A') (A') (A') (A') (A') (A') (A')
                 (A') (A') (A') (A') (A') (A') (A') (A') (A') (A')
                 (A') (A') (A') (A') (A') (A') (A') (A') (A') (A')
                 (A') (A') (A") (A') (A') (A') (A') (A") (A") (A')
                 (A') (A') (A') (A") (A") (A") (A")
       Virtual   (A") (A") (A") (A") (A') (A') (A') (A') (A") (A')
                 (A') (A") (A') (A') (A") (A') (A") (A') (A') (A')
                 (A") (A") (A') (A') (A') (A") (A') (A") (A') (A')
                 (A") (A') (A") (A') (A') (A') (A') (A') (A") (A')
                 (A") (A') (A') (A") (A") (A') (A") (A') (A") (A')
                 (A') (A') (A') (A') (A') (A") (A') (A') (A') (A')
                 (A') (A") (A') (A') (A') (A") (A') (A') (A') (A')
                 (A') (A') (A') (A') (A') (A') (A') (A') (A') (A')
                 (A') (A') (A') (A') (A') (A') (A') (A') (A') (A')
                 (A') (A') (A') (A') (A") (A') (A") (A") (A') (A")
                 (A') (A') (A') (A') (A") (A") (A') (A") (A") (A')
                 (A') (A') (A") (A') (A") (A') (A') (A") (A') (A")
                 (A") (A') (A") (A') (A') (A') (A") (A') (A') (A')
                 (A') (A') (A') (A') (A') (A') (A') (A') (A') (A')
                 (A') (A') (A') (A") (A') (A') (A') (A') (A') (A')
                 (A') (A") (A') (A') (A") (A') (A") (A") (A') (A")
                 (A") (A') (A') (A") (A") (A') (A") (A") (A') (A')
                 (A') (A') (A') (A") (A") (A') (A') (A') (A') (A")
                 (A') (A') (A') (A") (A") (A') (A') (A") (A") (A')
                 (A") (A') (A') (A") (A') (A") (A') (A') (A') (A')
                 (A") (A") (A") (A') (A") (A') (A') (A") (A') (A')
                 (A') (A") (A') (A") (A") (A') (A") (A') (A') (A")
                 (A') (A') (A') (A') (A") (A') (A') (A') (A") (A")
                 (A') (A') (A') (A") (A') (A') (A') (A") (A") (A')
                 (A") (A') (A') (A") (A') (A') (A') (A') (A') (A')
                 (A") (A') (A') (A') (A') (A") (A") (A") (A') (A')
                 (A') (A') (A') (A') (A') (A') (A') (A") (A') (A')
                 (A') (A") (A') (A") (A") (A") (A') (A") (A") (A')
                 (A') (A") (A") (A') (A") (A") (A') (A') (A') (A')
                 (A') (A') (A') (A') (A') (A') (A') (A') (A') (A')
                 (A') (A') (A') (A") (A') (A') (A') (A') (A') (A')
                 (A') (A') (A') (A') (A') (A') (A') (A') (A') (A')
                 (A') (A') (A') (A') (A') (A') (A') (A') (A') (A')
                 (A') (A')
     4 initial guesses have been made.
 Convergence on wavefunction:    0.001000000000000
 Iteration     1 Dimension     4 NMult     0 NNew      4
 CISAX will form     4 AO SS matrices at one time.
 Iteration     2 Dimension     6 NMult     4 NNew      2
 Iteration     3 Dimension     8 NMult     6 NNew      2
 Iteration     4 Dimension    10 NMult     8 NNew      2
 Iteration     5 Dimension    12 NMult    10 NNew      2
 Iteration     6 Dimension    14 NMult    12 NNew      2
 ***********************************************************************
 Excited states from <AA,BB:AA,BB> singles matrix:
 ***********************************************************************
 
 Ground to excited state transition densities written to RWF  633
 Ground to excited state transition electric dipole moments (Au):
       state          X           Y           Z        Dip. S.      Osc.
         1        -0.4728      0.3068      0.0000      0.3177      0.0209
 Ground to excited state transition velocity dipole moments (Au):
       state          X           Y           Z        Dip. S.      Osc.
         1         0.0546     -0.0304      0.0000      0.0039      0.0263
 Ground to excited state transition magnetic dipole moments (Au):
       state          X           Y           Z
         1        -0.0000     -0.0000     -0.1649
 Ground to excited state transition velocity quadrupole moments (Au):
       state          XX          YY          ZZ          XY          XZ          YZ
         1         0.1399      0.1307     -0.0084      0.1359      0.0000      0.0000
 <0|del|b> * <b|rxdel|0> + <0|del|b> * <b|delr+rdel|0>
 Rotatory Strengths (R) in cgs (10**-40 erg-esu-cm/Gauss)
       state          XX          YY          ZZ    R(velocity)    E-M Angle
         1         0.0000     -0.0000     -0.0000     -0.0000       90.00
 1/2[<0|r|b>*<b|rxdel|0> + (<0|rxdel|b>*<b|r|0>)*]
 Rotatory Strengths (R) in cgs (10**-40 erg-esu-cm/Gauss)
       state          XX          YY          ZZ     R(length)
         1        -0.0000      0.0000      0.0000      0.0000
  1/2[<0|del|b>*<b|r|0> + (<0|r|b>*<b|del|0>)*] (Au)
       state          X           Y           Z        Dip. S.   Osc.(frdel)
         1        -0.0258     -0.0093      0.0000      0.0351      0.0234

 Excitation energies and oscillator strengths:
 
 Excited State   1:      Singlet-A'     2.6883 eV  461.21 nm  f=0.0209  <S**2>=0.000
      47 -> 48         0.70351
 This state for optimization and/or second-order correction.
 Total Energy, E(TD-HF/TD-DFT) =  -539.655986899    
 Copying the excited state density for this state as the 1-particle RhoCI density.
 SavETr:  write IOETrn=   770 NScale= 10 NData=  16 NLR=1 NState=    1 LETran=      28.

 **********************************************************************

            Population analysis using the SCF Density.

 **********************************************************************

 Orbital symmetries:
       Occupied  (A') (A') (A') (A') (A') (A') (A') (A') (A') (A')
                 (A') (A') (A') (A') (A') (A') (A') (A') (A') (A')
                 (A') (A') (A') (A') (A') (A') (A') (A') (A') (A')
                 (A') (A') (A") (A') (A') (A') (A') (A") (A") (A')
                 (A') (A') (A') (A") (A") (A") (A")
       Virtual   (A") (A") (A") (A") (A') (A') (A') (A') (A") (A')
                 (A') (A") (A') (A') (A") (A') (A") (A') (A') (A')
                 (A") (A") (A') (A') (A') (A") (A') (A") (A') (A')
                 (A") (A') (A") (A') (A') (A') (A') (A') (A") (A')
                 (A") (A') (A') (A") (A") (A') (A") (A') (A") (A')
                 (A') (A') (A') (A') (A') (A") (A') (A') (A') (A')
                 (A') (A") (A') (A') (A') (A") (A') (A') (A') (A')
                 (A') (A') (A') (A') (A') (A') (A') (A') (A') (A')
                 (A') (A') (A') (A') (A') (A') (A') (A') (A') (A')
                 (A') (A') (A') (A') (A") (A') (A") (A") (A') (A")
                 (A') (A') (A') (A') (A") (A") (A') (A") (A") (A')
                 (A') (A') (A") (A') (A") (A') (A') (A") (A') (A")
                 (A") (A') (A") (A') (A') (A') (A") (A') (A') (A')
                 (A') (A') (A') (A') (A') (A') (A') (A') (A') (A')
                 (A') (A') (A') (A") (A') (A') (A') (A') (A') (A')
                 (A') (A") (A') (A') (A") (A') (A") (A") (A') (A")
                 (A") (A') (A') (A") (A") (A') (A") (A") (A') (A')
                 (A') (A') (A') (A") (A") (A') (A') (A') (A') (A")
                 (A') (A') (A') (A") (A") (A') (A') (A") (A") (A')
                 (A") (A') (A') (A") (A') (A") (A') (A') (A') (A')
                 (A") (A") (A") (A') (A") (A') (A') (A") (A') (A')
                 (A') (A") (A') (A") (A") (A') (A") (A') (A') (A")
                 (A') (A') (A') (A') (A") (A') (A') (A') (A") (A")
                 (A') (A') (A') (A") (A') (A') (A') (A") (A") (A')
                 (A") (A') (A') (A") (A') (A') (A') (A') (A') (A')
                 (A") (A') (A') (A') (A') (A") (A") (A") (A') (A')
                 (A') (A') (A') (A') (A') (A') (A') (A") (A') (A')
                 (A') (A") (A') (A") (A") (A") (A') (A") (A") (A')
                 (A') (A") (A") (A') (A") (A") (A') (A') (A') (A')
                 (A') (A') (A') (A') (A') (A') (A') (A') (A') (A')
                 (A') (A') (A') (A") (A') (A') (A') (A') (A') (A')
                 (A') (A') (A') (A') (A') (A') (A') (A') (A') (A')
                 (A') (A') (A') (A') (A') (A') (A') (A') (A') (A')
                 (A') (A')
 The electronic state is 1-A'.
 Alpha  occ. eigenvalues --  -10.77583 -10.73697 -10.72797 -10.72697 -10.71984
 Alpha  occ. eigenvalues --  -10.71940 -10.71820 -10.70966 -10.70864 -10.70198
 Alpha  occ. eigenvalues --  -10.70145 -10.69905 -10.69746 -10.69333  -1.16559
 Alpha  occ. eigenvalues --   -1.12495  -1.06938  -1.05889  -1.01292  -1.00417
 Alpha  occ. eigenvalues --   -0.95598  -0.91048  -0.86442  -0.85906  -0.83794
 Alpha  occ. eigenvalues --   -0.78351  -0.76153  -0.74380  -0.69739  -0.69316
 Alpha  occ. eigenvalues --   -0.68351  -0.68098  -0.68083  -0.65204  -0.64252
 Alpha  occ. eigenvalues --   -0.62823  -0.61651  -0.60384  -0.59299  -0.59147
 Alpha  occ. eigenvalues --   -0.56951  -0.55261  -0.54608  -0.52435  -0.47215
 Alpha  occ. eigenvalues --   -0.46113  -0.43886
 Alpha virt. eigenvalues --   -0.26089  -0.14670  -0.14080  -0.12760  -0.11191
 Alpha virt. eigenvalues --   -0.10097  -0.09254  -0.07964  -0.07927  -0.07484
 Alpha virt. eigenvalues --   -0.07215  -0.07140  -0.05644  -0.05577  -0.05352
 Alpha virt. eigenvalues --   -0.03847  -0.03663  -0.03275  -0.03130  -0.02156
 Alpha virt. eigenvalues --   -0.01354  -0.00953   0.00182   0.00594   0.00666
 Alpha virt. eigenvalues --    0.01065   0.01503   0.01928   0.02151   0.02299
 Alpha virt. eigenvalues --    0.02449   0.02676   0.02791   0.03214   0.03429
 Alpha virt. eigenvalues --    0.04221   0.04503   0.04714   0.05035   0.05386
 Alpha virt. eigenvalues --    0.06021   0.06296   0.06583   0.07064   0.07263
 Alpha virt. eigenvalues --    0.07905   0.08096   0.08360   0.08641   0.08912
 Alpha virt. eigenvalues --    0.09496   0.09590   0.09989   0.10844   0.11009
 Alpha virt. eigenvalues --    0.11120   0.12120   0.12257   0.12732   0.13042
 Alpha virt. eigenvalues --    0.13469   0.13522   0.13996   0.14324   0.15935
 Alpha virt. eigenvalues --    0.16318   0.16515   0.17331   0.17496   0.17780
 Alpha virt. eigenvalues --    0.18134   0.19040   0.19352   0.19677   0.19902
 Alpha virt. eigenvalues --    0.21511   0.21673   0.22696   0.23147   0.23579
 Alpha virt. eigenvalues --    0.23892   0.24512   0.25331   0.26945   0.27627
 Alpha virt. eigenvalues --    0.28882   0.29275   0.29950   0.31373   0.35822
 Alpha virt. eigenvalues --    0.36495   0.38208   0.39286   0.41078   0.41298
 Alpha virt. eigenvalues --    0.42003   0.42095   0.42982   0.43737   0.44385
 Alpha virt. eigenvalues --    0.44781   0.45144   0.45906   0.46397   0.47858
 Alpha virt. eigenvalues --    0.48420   0.48822   0.49022   0.50523   0.51202
 Alpha virt. eigenvalues --    0.51322   0.52086   0.52138   0.52815   0.54115
 Alpha virt. eigenvalues --    0.54136   0.54639   0.55630   0.55941   0.57455
 Alpha virt. eigenvalues --    0.58227   0.58954   0.61511   0.62216   0.62433
 Alpha virt. eigenvalues --    0.63178   0.63482   0.65007   0.65175   0.67532
 Alpha virt. eigenvalues --    0.70310   0.70455   0.71224   0.72522   0.72922
 Alpha virt. eigenvalues --    0.75577   0.76073   0.76428   0.76762   0.77132
 Alpha virt. eigenvalues --    0.77886   0.78031   0.78315   0.79895   0.80405
 Alpha virt. eigenvalues --    0.81262   0.81532   0.82389   0.83005   0.85273
 Alpha virt. eigenvalues --    0.87079   0.88223   0.88224   0.89288   0.90618
 Alpha virt. eigenvalues --    0.91118   0.91417   0.93296   0.94621   0.96300
 Alpha virt. eigenvalues --    0.96905   1.00189   1.01294   1.01527   1.02836
 Alpha virt. eigenvalues --    1.03049   1.03274   1.04871   1.06336   1.08909
 Alpha virt. eigenvalues --    1.19604   1.22975   1.24178   1.24425   1.28964
 Alpha virt. eigenvalues --    1.29284   1.32266   1.34217   1.35785   1.35977
 Alpha virt. eigenvalues --    1.39371   1.39724   1.40853   1.42889   1.43439
 Alpha virt. eigenvalues --    1.43538   1.44330   1.46389   1.46615   1.46835
 Alpha virt. eigenvalues --    1.47700   1.48229   1.51848   1.53682   1.55755
 Alpha virt. eigenvalues --    1.55982   1.56297   1.56582   1.57857   1.61529
 Alpha virt. eigenvalues --    1.62995   1.63313   1.64163   1.66127   1.68299
 Alpha virt. eigenvalues --    1.68429   1.68690   1.69807   1.74473   1.76052
 Alpha virt. eigenvalues --    1.77234   1.78083   1.79979   1.80056   1.80901
 Alpha virt. eigenvalues --    1.82870   1.83186   1.83674   1.83864   1.84151
 Alpha virt. eigenvalues --    1.84555   1.85469   1.86426   1.88374   1.91445
 Alpha virt. eigenvalues --    1.92188   1.94099   1.95379   1.97804   1.98190
 Alpha virt. eigenvalues --    1.99846   2.02631   2.04602   2.07316   2.11758
 Alpha virt. eigenvalues --    2.12210   2.14265   2.15263   2.19155   2.21328
 Alpha virt. eigenvalues --    2.22749   2.28410   2.30470   2.34570   2.34847
 Alpha virt. eigenvalues --    2.36355   2.38599   2.39688   2.42374   2.44288
 Alpha virt. eigenvalues --    2.46152   2.46777   2.49251   2.52996   2.53812
 Alpha virt. eigenvalues --    2.54433   2.56739   2.57929   2.58415   2.59455
 Alpha virt. eigenvalues --    2.59939   2.61573   2.62173   2.63600   2.63785
 Alpha virt. eigenvalues --    2.64849   2.65077   2.65114   2.65614   2.68097
 Alpha virt. eigenvalues --    2.68512   2.70957   2.71475   2.73385   2.74828
 Alpha virt. eigenvalues --    2.76283   2.78651   2.79691   2.83230   2.83263
 Alpha virt. eigenvalues --    2.84908   2.86354   2.92156   2.97072   2.99453
 Alpha virt. eigenvalues --    3.00183   3.05302   3.09780   3.11369   3.14188
 Alpha virt. eigenvalues --    3.20830   3.22684   3.26427   3.29023   3.30653
 Alpha virt. eigenvalues --    3.32863   3.34653   3.43891   3.46239   3.46989
 Alpha virt. eigenvalues --    3.48517   3.50208   3.56579   3.65120   3.67189
 Alpha virt. eigenvalues --    3.67915   3.93689   3.94087   3.95367   3.96507
 Alpha virt. eigenvalues --    4.03955   4.06584   4.07764   4.12527   4.35535
 Alpha virt. eigenvalues --    4.61401   4.69338   4.71269  23.45226  23.60217
 Alpha virt. eigenvalues --   23.80417  23.82819  23.85544  23.89433  23.91813
 Alpha virt. eigenvalues --   23.95337  23.95848  23.97689  24.03324  24.05761
 Alpha virt. eigenvalues --   24.11320  24.12931
          Condensed to atoms (all electrons):
               1          2          3          4          5          6
     1  C    8.339138   0.588455  -0.662680   1.652635   0.015165  -0.083922
     2  C    0.588455   7.130026   0.434578  -0.945809  -0.046530  -0.015758
     3  C   -0.662680   0.434578   6.608443   0.703046  -0.110302   0.016876
     4  C    1.652635  -0.945809   0.703046  11.314778  -0.328887  -0.135590
     5  C    0.015165  -0.046530  -0.110302  -0.328887  10.550912   0.807600
     6  C   -0.083922  -0.015758   0.016876  -0.135590   0.807600   6.589557
     7  C   -0.038516   0.002086  -0.013594   0.003435  -1.146497   0.266587
     8  C    0.410571  -0.007874  -0.105386  -0.059314   2.172823  -0.415198
     9  C   -1.236834  -0.837360   0.288425  -0.015896  -0.452672   0.286450
    10  C   -1.157941   0.147526  -0.271010  -2.755006  -2.372647  -0.441124
    11  C    0.290341  -0.825154   0.901049  -0.262516  -1.419945  -0.116757
    12  C   -1.621994   1.008211  -1.319544  -1.510804  -0.207740  -0.282906
    13  C    0.161487  -0.211730  -0.229574  -1.584422  -0.286974   1.126526
    14  C   -1.145121  -0.300843  -0.122039  -0.456152  -1.525912  -1.475636
    15  H    0.364723  -0.103114  -0.003626   0.024144   0.006605   0.001236
    16  H   -0.020123   0.381440  -0.020853   0.017263  -0.001686  -0.000356
    17  H   -0.018153  -0.022586   0.380429  -0.068536   0.000107   0.000407
    18  H    0.045911   0.003438  -0.084218   0.462089   0.007220  -0.004902
    19  H   -0.043499  -0.008098   0.050674  -0.081212  -0.062592   0.051109
    20  H    0.007161   0.001964  -0.005167   0.007041   0.450749  -0.084553
    21  H   -0.001249  -0.000417   0.000380   0.000490  -0.065336   0.367905
    22  H    0.000380   0.000314  -0.000298  -0.001368   0.010195  -0.011198
    23  H    0.006887  -0.002398   0.000972   0.004914   0.029056   0.000587
    24  H    0.036824   0.015698  -0.001228  -0.011422  -0.013301  -0.001723
    25  H    0.036824   0.015698  -0.001228  -0.011422  -0.013301  -0.001723
               7          8          9         10         11         12
     1  C   -0.038516   0.410571  -1.236834  -1.157941   0.290341  -1.621994
     2  C    0.002086  -0.007874  -0.837360   0.147526  -0.825154   1.008211
     3  C   -0.013594  -0.105386   0.288425  -0.271010   0.901049  -1.319544
     4  C    0.003435  -0.059314  -0.015896  -2.755006  -0.262516  -1.510804
     5  C   -1.146497   2.172823  -0.452672  -2.372647  -1.419945  -0.207740
     6  C    0.266587  -0.415198   0.286450  -0.441124  -0.116757  -0.282906
     7  C    7.126205   0.093317  -0.756524   0.335323  -0.295376  -0.092901
     8  C    0.093317   8.871832  -1.200514  -1.354615   0.221719  -1.025805
     9  C   -0.756524  -1.200514   9.683708   0.243357   1.758872  -2.162583
    10  C    0.335323  -1.354615   0.243357   9.211968  -0.415643   2.387198
    11  C   -0.295376   0.221719   1.758872  -0.415643  14.677919  -4.125097
    12  C   -0.092901  -1.025805  -2.162583   2.387198  -4.125097  16.250444
    13  C   -1.021212   0.267338   1.603228  -0.595865   1.063185  -4.777519
    14  C    1.672787  -2.373970  -1.796634   2.479673  -4.874219   2.996281
    15  H   -0.002944   0.005107   0.087856  -0.007767  -0.028952  -0.012848
    16  H    0.000395   0.001015   0.002885  -0.010754   0.027214  -0.032309
    17  H   -0.000371  -0.001413  -0.004963   0.020081  -0.026078   0.084498
    18  H    0.002014   0.007377  -0.023272   0.010943  -0.011407  -0.044587
    19  H   -0.007194  -0.048907   0.075659   0.422607   0.076319  -0.086373
    20  H    0.002258   0.052495  -0.026598   0.017594  -0.012023  -0.007020
    21  H   -0.008794  -0.030359  -0.006696   0.020885  -0.006360   0.005382
    22  H    0.372874  -0.017148   0.004865  -0.008486   0.002614  -0.007765
    23  H   -0.105502   0.367606   0.096215  -0.011304   0.007009   0.005163
    24  H    0.012775   0.026668   0.357937   0.005693   0.024538  -0.059035
    25  H    0.012775   0.026668   0.357937   0.005693   0.024538  -0.059035
              13         14         15         16         17         18
     1  C    0.161487  -1.145121   0.364723  -0.020123  -0.018153   0.045911
     2  C   -0.211730  -0.300843  -0.103114   0.381440  -0.022586   0.003438
     3  C   -0.229574  -0.122039  -0.003626  -0.020853   0.380429  -0.084218
     4  C   -1.584422  -0.456152   0.024144   0.017263  -0.068536   0.462089
     5  C   -0.286974  -1.525912   0.006605  -0.001686   0.000107   0.007220
     6  C    1.126526  -1.475636   0.001236  -0.000356   0.000407  -0.004902
     7  C   -1.021212   1.672787  -0.002944   0.000395  -0.000371   0.002014
     8  C    0.267338  -2.373970   0.005107   0.001015  -0.001413   0.007377
     9  C    1.603228  -1.796634   0.087856   0.002885  -0.004963  -0.023272
    10  C   -0.595865   2.479673  -0.007767  -0.010754   0.020081   0.010943
    11  C    1.063185  -4.874219  -0.028952   0.027214  -0.026078  -0.011407
    12  C   -4.777519   2.996281  -0.012848  -0.032309   0.084498  -0.044587
    13  C   14.501409  -3.430127  -0.003214   0.003441  -0.006347  -0.012183
    14  C   -3.430127  15.926640   0.007584  -0.010396   0.005146  -0.019675
    15  H   -0.003214   0.007584   0.433773  -0.008814   0.001649   0.000261
    16  H    0.003441  -0.010396  -0.008814   0.415885  -0.007061   0.001957
    17  H   -0.006347   0.005146   0.001649  -0.007061   0.419758  -0.009952
    18  H   -0.012183  -0.019675   0.000261   0.001957  -0.009952   0.447948
    19  H    0.082780  -0.045532   0.000398  -0.000594   0.001701  -0.005684
    20  H   -0.005212  -0.062243  -0.000124   0.000019  -0.000165   0.001281
    21  H   -0.028761   0.096678   0.000016  -0.000007   0.000010  -0.000119
    22  H    0.028391  -0.035586  -0.000123   0.000007  -0.000007   0.000010
    23  H   -0.033322  -0.036062   0.000594  -0.000130   0.000010  -0.000100
    24  H    0.001791  -0.060148  -0.000910   0.000622  -0.000132   0.000135
    25  H    0.001791  -0.060148  -0.000910   0.000622  -0.000132   0.000135
              19         20         21         22         23         24
     1  C   -0.043499   0.007161  -0.001249   0.000380   0.006887   0.036824
     2  C   -0.008098   0.001964  -0.000417   0.000314  -0.002398   0.015698
     3  C    0.050674  -0.005167   0.000380  -0.000298   0.000972  -0.001228
     4  C   -0.081212   0.007041   0.000490  -0.001368   0.004914  -0.011422
     5  C   -0.062592   0.450749  -0.065336   0.010195   0.029056  -0.013301
     6  C    0.051109  -0.084553   0.367905  -0.011198   0.000587  -0.001723
     7  C   -0.007194   0.002258  -0.008794   0.372874  -0.105502   0.012775
     8  C   -0.048907   0.052495  -0.030359  -0.017148   0.367606   0.026668
     9  C    0.075659  -0.026598  -0.006696   0.004865   0.096215   0.357937
    10  C    0.422607   0.017594   0.020885  -0.008486  -0.011304   0.005693
    11  C    0.076319  -0.012023  -0.006360   0.002614   0.007009   0.024538
    12  C   -0.086373  -0.007020   0.005382  -0.007765   0.005163  -0.059035
    13  C    0.082780  -0.005212  -0.028761   0.028391  -0.033322   0.001791
    14  C   -0.045532  -0.062243   0.096678  -0.035586  -0.036062  -0.060148
    15  H    0.000398  -0.000124   0.000016  -0.000123   0.000594  -0.000910
    16  H   -0.000594   0.000019  -0.000007   0.000007  -0.000130   0.000622
    17  H    0.001701  -0.000165   0.000010  -0.000007   0.000010  -0.000132
    18  H   -0.005684   0.001281  -0.000119   0.000010  -0.000100   0.000135
    19  H    0.443566  -0.006713   0.001118  -0.000470   0.000206   0.000622
    20  H   -0.006713   0.458388  -0.010329   0.001872   0.000089   0.000215
    21  H    0.001118  -0.010329   0.424795  -0.006008   0.001233  -0.000149
    22  H   -0.000470   0.001872  -0.006008   0.422062  -0.008856   0.000630
    23  H    0.000206   0.000089   0.001233  -0.008856   0.443908  -0.000861
    24  H    0.000622   0.000215  -0.000149   0.000630  -0.000861   0.494338
    25  H    0.000622   0.000215  -0.000149   0.000630  -0.000861  -0.080435
              25
     1  C    0.036824
     2  C    0.015698
     3  C   -0.001228
     4  C   -0.011422
     5  C   -0.013301
     6  C   -0.001723
     7  C    0.012775
     8  C    0.026668
     9  C    0.357937
    10  C    0.005693
    11  C    0.024538
    12  C   -0.059035
    13  C    0.001791
    14  C   -0.060148
    15  H   -0.000910
    16  H    0.000622
    17  H   -0.000132
    18  H    0.000135
    19  H    0.000622
    20  H    0.000215
    21  H   -0.000149
    22  H    0.000630
    23  H   -0.000861
    24  H   -0.080435
    25  H    0.494338
 Mulliken charges:
               1
     1  C    0.073532
     2  C   -0.401762
     3  C   -0.434124
     4  C    0.038521
     5  C    0.003891
     6  C   -0.443492
     7  C   -0.413408
     8  C    0.115966
     9  C   -0.326849
    10  C    0.093621
    11  C   -0.655792
    12  C    0.698690
    13  C   -0.614906
    14  C    0.645654
    15  H    0.239401
    16  H    0.260319
    17  H    0.252103
    18  H    0.225376
    19  H    0.189486
    20  H    0.218806
    21  H    0.245839
    22  H    0.252466
    23  H    0.234947
    24  H    0.250857
    25  H    0.250857
 Sum of Mulliken charges =   1.00000
 Mulliken charges with hydrogens summed into heavy atoms:
               1
     1  C    0.312933
     2  C   -0.141443
     3  C   -0.182021
     4  C    0.263897
     5  C    0.222696
     6  C   -0.197652
     7  C   -0.160942
     8  C    0.350912
     9  C    0.174866
    10  C    0.283107
    11  C   -0.655792
    12  C    0.698690
    13  C   -0.614906
    14  C    0.645654
 Electronic spatial extent (au):  <R**2>=           2854.4081
 Charge=              1.0000 electrons
 Dipole moment (field-independent basis, Debye):
    X=             -0.3068    Y=             -0.9420    Z=              0.0000  Tot=              0.9907
 Quadrupole moment (field-independent basis, Debye-Ang):
   XX=            -51.1507   YY=            -36.1727   ZZ=            -84.1319
   XY=             10.1538   XZ=             -0.0000   YZ=              0.0000
 Traceless Quadrupole moment (field-independent basis, Debye-Ang):
   XX=              6.0011   YY=             20.9791   ZZ=            -26.9801
   XY=             10.1538   XZ=             -0.0000   YZ=              0.0000
 Octapole moment (field-independent basis, Debye-Ang**2):
  XXX=             -3.1966  YYY=             -3.1722  ZZZ=             -0.0000  XYY=             -2.7456
  XXY=             -7.8896  XXZ=              0.0000  XZZ=             -3.3743  YZZ=              0.1800
  YYZ=              0.0000  XYZ=             -0.0000
 Hexadecapole moment (field-independent basis, Debye-Ang**3):
 XXXX=           -983.2288 YYYY=          -1851.1223 ZZZZ=            -99.3018 XXXY=           -346.6056
 XXXZ=             -0.0000 YYYX=           -272.5529 YYYZ=              0.0000 ZZZX=             -0.0000
 ZZZY=              0.0000 XXYY=           -454.9901 XXZZ=           -240.2070 YYZZ=           -495.7672
 XXYZ=              0.0000 YYXZ=             -0.0000 ZZXY=           -181.9555
 N-N= 7.814869343153D+02 E-N=-2.799337351425D+03  KE= 5.375408860947D+02
 Symmetry A'   KE= 5.228881421861D+02
 Symmetry A"   KE= 1.465274390860D+01
 Unable to Open any file for archive entry.
 1\1\GINC-GADI-CPU-CLX-1762\SP\RM062X TD-FC\6-311++G(d,p)\C14H11(1+)\TS
 1578\02-Aug-2022\0\\#n M062X/6-311++G(d,p) TD(NStates=1) EmpiricalDisp
 ersion=GD3 SP\\SP_25\\1,1\C,0,2.466305,1.362231,0.\C,0,3.671533,0.6600
 89,0.\C,0,3.675061,-0.73428,0.\C,0,2.490331,-1.423213,0.\C,0,-2.435731
 ,-1.391363,0.\C,0,-3.691161,-0.69088,0.\C,0,-3.729108,0.684764,0.\C,0,
 -2.514255,1.360131,0.\C,0,-0.01525,1.447869,0.\C,0,0.0427,-1.428939,0.
 \C,0,1.268255,0.69039,0.\C,0,1.255471,-0.733279,0.\C,0,-1.25548,0.6636
 15,0.\C,0,-1.220471,-0.729079,0.\H,0,2.477971,2.445247,0.\H,0,4.606178
 ,1.202564,0.\H,0,4.613962,-1.269999,0.\H,0,2.4807,-2.505359,0.\H,0,0.0
 39375,-2.510141,0.\H,0,-2.45515,-2.474384,0.\H,0,-4.603812,-1.271574,0
 .\H,0,-4.664453,1.222689,0.\H,0,-2.492671,2.443672,0.\H,0,-0.056,2.144
 537,-0.85821\H,0,-0.056,2.144537,0.85821\\Version=ES64L-G16RevC.01\Sta
 te=1-A'\HF=-539.7547789\RMSD=9.263e-09\PG=CS [SG(C14H9),X(H2)]\\@
 The archive entry for this job was punched.


 ART, GLORY, FREEDOM FAIL, BUT NATURE STILL IS FAIR.

                                           -- BYRON
 Job cpu time:       0 days  0 hours 51 minutes 47.4 seconds.
 Elapsed time:       0 days  0 hours  1 minutes  4.8 seconds.
 File lengths (MBytes):  RWF=    460 Int=      0 D2E=      0 Chk=     15 Scr=      1
 Normal termination of Gaussian 16 at Tue Aug  2 12:13:58 2022.
