 Entering Gaussian System, Link 0=g16
 Initial command:
 /apps/gaussian/g16c01/g16/l1.exe "/jobfs/53796104.gadi-pbs/Gau-3591062.inp" -scrdir="/jobfs/53796104.gadi-pbs/"
 Entering Link 1 = /apps/gaussian/g16c01/g16/l1.exe PID=   3591063.
  
 Copyright (c) 1988-2019, Gaussian, Inc.  All Rights Reserved.
  
 This is part of the Gaussian(R) 16 program.  It is based on
 the Gaussian(R) 09 system (copyright 2009, Gaussian, Inc.),
 the Gaussian(R) 03 system (copyright 2003, Gaussian, Inc.),
 the Gaussian(R) 98 system (copyright 1998, Gaussian, Inc.),
 the Gaussian(R) 94 system (copyright 1995, Gaussian, Inc.),
 the Gaussian 92(TM) system (copyright 1992, Gaussian, Inc.),
 the Gaussian 90(TM) system (copyright 1990, Gaussian, Inc.),
 the Gaussian 88(TM) system (copyright 1988, Gaussian, Inc.),
 the Gaussian 86(TM) system (copyright 1986, Carnegie Mellon
 University), and the Gaussian 82(TM) system (copyright 1983,
 Carnegie Mellon University). Gaussian is a federally registered
 trademark of Gaussian, Inc.
  
 This software contains proprietary and confidential information,
 including trade secrets, belonging to Gaussian, Inc.
  
 This software is provided under written license and may be
 used, copied, transmitted, or stored only in accord with that
 written license.
  
 The following legend is applicable only to US Government
 contracts under FAR:
  
                    RESTRICTED RIGHTS LEGEND
  
 Use, reproduction and disclosure by the US Government is
 subject to restrictions as set forth in subparagraphs (a)
 and (c) of the Commercial Computer Software - Restricted
 Rights clause in FAR 52.227-19.
  
 Gaussian, Inc.
 340 Quinnipiac St., Bldg. 40, Wallingford CT 06492
  
  
 ---------------------------------------------------------------
 Warning -- This program may not be used in any manner that
 competes with the business of Gaussian, Inc. or will provide
 assistance to any competitor of Gaussian, Inc.  The licensee
 of this program is prohibited from giving any competitor of
 Gaussian, Inc. access to this program.  By using this program,
 the user acknowledges that Gaussian, Inc. is engaged in the
 business of creating and licensing software in the field of
 computational chemistry and represents and warrants to the
 licensee that it is not a competitor of Gaussian, Inc. and that
 it will not use this program in any manner prohibited above.
 ---------------------------------------------------------------
  

 Cite this work as:
 Gaussian 16, Revision C.01,
 M. J. Frisch, G. W. Trucks, H. B. Schlegel, G. E. Scuseria, 
 M. A. Robb, J. R. Cheeseman, G. Scalmani, V. Barone, 
 G. A. Petersson, H. Nakatsuji, X. Li, M. Caricato, A. V. Marenich, 
 J. Bloino, B. G. Janesko, R. Gomperts, B. Mennucci, H. P. Hratchian, 
 J. V. Ortiz, A. F. Izmaylov, J. L. Sonnenberg, D. Williams-Young, 
 F. Ding, F. Lipparini, F. Egidi, J. Goings, B. Peng, A. Petrone, 
 T. Henderson, D. Ranasinghe, V. G. Zakrzewski, J. Gao, N. Rega, 
 G. Zheng, W. Liang, M. Hada, M. Ehara, K. Toyota, R. Fukuda, 
 J. Hasegawa, M. Ishida, T. Nakajima, Y. Honda, O. Kitao, H. Nakai, 
 T. Vreven, K. Throssell, J. A. Montgomery, Jr., J. E. Peralta, 
 F. Ogliaro, M. J. Bearpark, J. J. Heyd, E. N. Brothers, K. N. Kudin, 
 V. N. Staroverov, T. A. Keith, R. Kobayashi, J. Normand, 
 K. Raghavachari, A. P. Rendell, J. C. Burant, S. S. Iyengar, 
 J. Tomasi, M. Cossi, J. M. Millam, M. Klene, C. Adamo, R. Cammi, 
 J. W. Ochterski, R. L. Martin, K. Morokuma, O. Farkas, 
 J. B. Foresman, and D. J. Fox, Gaussian, Inc., Wallingford CT, 2019.
 
 ******************************************
 Gaussian 16:  ES64L-G16RevC.01  3-Jul-2019
                 2-Aug-2022 
 ******************************************
 %NProcShared=48
 Will use up to   48 processors via shared memory.
 %mem = 190GB
 ---------------------------------------------------------------
 #n M062X/6-311++G(d,p) TD(NStates=1) EmpiricalDispersion=GD3 SP
 ---------------------------------------------------------------
 1/38=1,172=1/1;
 2/12=2,17=6,18=5,40=1/2;
 3/5=4,6=6,7=1111,11=9,25=1,30=1,74=-55,124=31/1,2,3,8;
 4//1;
 5/5=2,38=5/2;
 8/6=1,10=2,108=1/1;
 9/41=1,42=1,70=2/14;
 6/7=2,8=2,9=2,10=2/1;
 99/5=1,9=1/99;
 -------
 SP_-125
 -------
 Symbolic Z-matrix:
 Charge =  1 Multiplicity = 1
 C                     2.49571   1.36133   0. 
 C                     3.70783   0.67621   0. 
 C                     3.68496  -0.70563   0. 
 C                     2.45516  -1.40259   0. 
 C                    -2.47076  -1.41169   0. 
 C                    -3.68036  -0.71803   0. 
 C                    -3.69138   0.66916   0. 
 C                    -2.48201   1.36193   0. 
 C                     0.00448   1.44457   0. 
 C                    -0.0122   -1.42879   0. 
 C                     1.25993   0.67314   0. 
 C                     1.23327  -0.7308    0. 
 C                    -1.26358   0.68079   0. 
 C                    -1.24327  -0.732     0. 
 H                     2.48577   2.44472   0. 
 H                     4.64278   1.21606   0. 
 H                     4.60721  -1.27007   0. 
 H                     2.4645   -2.48533   0. 
 H                    -0.01125  -2.51007   0. 
 H                    -2.4718   -2.49418   0. 
 H                    -4.61011  -1.26962   0. 
 H                    -4.62613   1.21031   0. 
 H                    -2.48157   2.44517   0. 
 H                     0.016     2.14379  -0.85739 
 H                     0.016     2.14379   0.85739 
 
                          Input orientation:                          
 ---------------------------------------------------------------------
 Center     Atomic      Atomic             Coordinates (Angstroms)
 Number     Number       Type             X           Y           Z
 ---------------------------------------------------------------------
      1          6           0        2.495705    1.361331    0.000000
      2          6           0        3.707833    0.676214    0.000000
      3          6           0        3.684961   -0.705630    0.000000
      4          6           0        2.455156   -1.402588    0.000000
      5          6           0       -2.470756   -1.411688    0.000000
      6          6           0       -3.680361   -0.718030    0.000000
      7          6           0       -3.691383    0.669164    0.000000
      8          6           0       -2.482005    1.361931    0.000000
      9          6           0        0.004475    1.444569    0.000000
     10          6           0       -0.012200   -1.428789    0.000000
     11          6           0        1.259930    0.673140    0.000000
     12          6           0        1.233271   -0.730804    0.000000
     13          6           0       -1.263580    0.680790    0.000000
     14          6           0       -1.243271   -0.732004    0.000000
     15          1           0        2.485771    2.444722    0.000000
     16          1           0        4.642778    1.216064    0.000000
     17          1           0        4.607212   -1.270074    0.000000
     18          1           0        2.464500   -2.485334    0.000000
     19          1           0       -0.011250   -2.510066    0.000000
     20          1           0       -2.471800   -2.494184    0.000000
     21          1           0       -4.610112   -1.269624    0.000000
     22          1           0       -4.626128    1.210314    0.000000
     23          1           0       -2.481571    2.445172    0.000000
     24          1           0        0.016000    2.143787   -0.857385
     25          1           0        0.016000    2.143787    0.857385
 ---------------------------------------------------------------------
                    Distance matrix (angstroms):
                    1          2          3          4          5
     1  C    0.000000
     2  C    1.392350   0.000000
     3  C    2.384671   1.382033   0.000000
     4  C    2.764216   2.427059   1.413567   0.000000
     5  C    5.688178   6.521832   6.196077   4.925920   0.000000
     6  C    6.516712   7.518599   7.365332   6.173588   1.394384
     7  C    6.225685   7.399219   7.503367   6.486301   2.412442
     8  C    4.977710   6.227704   6.504328   5.658456   2.773642
     9  C    2.492620   3.782226   4.262550   3.756613   3.779547
    10  C    3.751581   4.274305   3.767222   2.467495   2.458615
    11  C    1.414478   2.447905   2.789585   2.395248   4.273702
    12  C    2.443516   2.846604   2.451819   1.394380   3.766088
    13  C    3.820387   4.971415   5.139087   4.262565   2.415727
    14  C    4.285090   5.147476   4.928303   3.758729   1.403100
    15  H    1.083437   2.149664   3.370871   3.847432   6.280052
    16  H    2.151982   1.079611   2.147166   3.412188   7.583366
    17  H    3.373834   2.144043   1.081270   2.156132   7.079385
    18  H    3.846792   3.397243   2.157979   1.082786   5.050690
    19  H    4.612216   4.897342   4.113145   2.703639   2.693623
    20  H    6.288172   6.945451   6.411289   5.046432   1.082497
    21  H    7.577240   8.542511   8.314224   7.066519   2.144068
    22  H    7.123434   8.351058   8.529070   7.547969   3.394190
    23  H    5.093917   6.437230   6.924859   6.259116   3.856875
    24  H    2.737934   4.064297   4.723935   4.388777   4.422722
    25  H    2.737934   4.064297   4.723935   4.388777   4.422722
                    6          7          8          9         10
     6  C    0.000000
     7  C    1.387238   0.000000
     8  C    2.400478   1.393744   0.000000
     9  C    4.272570   3.776324   2.487853   0.000000
    10  C    3.736386   4.235303   3.726668   2.873406   0.000000
    11  C    5.132429   4.951315   3.804801   1.473523   2.456913
    12  C    4.913649   5.119778   4.264131   2.498437   1.427719
    13  C    2.792405   2.427831   1.395891   1.480311   2.452810
    14  C    2.437130   2.820731   2.432905   2.508852   1.414583
    15  H    6.929948   6.427273   5.084411   2.675282   4.609116
    16  H    8.544903   8.352086   7.126276   4.643928   5.353883
    17  H    8.305939   8.522167   7.562040   5.343639   4.622138
    18  H    6.393957   6.917062   6.266527   4.636363   2.692644
    19  H    4.083353   4.863217   4.593146   3.954666   1.081277
    20  H    2.148335   3.390303   3.856129   4.652495   2.680429
    21  H    1.081061   2.145451   3.384364   5.353621   4.600666
    22  H    2.147786   1.080089   2.149477   4.636525   5.315374
    23  H    3.382742   2.148918   1.083241   2.679857   4.594058
    24  H    4.752703   4.080969   2.754349   1.106412   3.674126
    25  H    4.752703   4.080969   2.754349   1.106412   3.674126
                   11         12         13         14         15
    11  C    0.000000
    12  C    1.404197   0.000000
    13  C    2.523522   2.868251   0.000000
    14  C    2.870618   2.476542   1.412940   0.000000
    15  H    2.154342   3.413608   4.143560   4.898708   0.000000
    16  H    3.426139   3.926198   5.930563   6.200044   2.482394
    17  H    3.870449   3.416766   6.186442   5.875174   4.277876
    18  H    3.380377   2.143432   4.891106   4.101430   4.930102
    19  H    3.427638   2.171314   3.427812   2.163188   5.548427
    20  H    4.894665   4.103299   3.397095   2.148153   6.997878
    21  H    6.183181   5.868173   3.873421   3.409495   8.009240
    22  H    5.910519   6.172560   3.403987   3.900810   7.218232
    23  H    4.139919   4.887420   2.143956   3.409961   4.967342
    24  H    2.108382   3.237303   2.124334   3.254389   2.631623
    25  H    2.108382   3.237303   2.124334   3.254389   2.631623
                   16         17         18         19         20
    16  H    0.000000
    17  H    2.486392   0.000000
    18  H    4.294792   2.463346   0.000000
    19  H    5.961881   4.782026   2.475874   0.000000
    20  H    8.023912   7.184070   4.936308   2.460601   0.000000
    21  H    9.580951   9.217324   7.178307   4.763216   2.464128
    22  H    9.268908   9.560695   7.995925   5.927759   4.285374
    23  H    7.229596   8.003368   6.983803   5.536865   4.939366
    24  H    4.796129   5.785221   5.306508   4.732251   5.332451
    25  H    4.796129   5.785221   5.306508   4.732251   5.332451
                   21         22         23         24         25
    21  H    0.000000
    22  H    2.479990   0.000000
    23  H    4.281401   2.474671   0.000000
    24  H    5.812693   4.812051   2.657782   0.000000
    25  H    5.812693   4.812051   2.657782   1.714770   0.000000
 Stoichiometry    C14H11(1+)
 Framework group  CS[SG(C14H9),X(H2)]
 Deg. of freedom    46
 Full point group                 CS      NOp   2
 Largest Abelian subgroup         CS      NOp   2
 Largest concise Abelian subgroup CS      NOp   2
                         Standard orientation:                         
 ---------------------------------------------------------------------
 Center     Atomic      Atomic             Coordinates (Angstroms)
 Number     Number       Type             X           Y           Z
 ---------------------------------------------------------------------
      1          6           0        0.024571    2.842571    0.000000
      2          6           0       -1.150946    3.588761    0.000000
      3          6           0       -2.358928    2.917347    0.000000
      4          6           0       -2.394045    1.504217    0.000000
      5          6           0       -0.080568   -2.844636    0.000000
      6          6           0        1.101293   -3.584575    0.000000
      7          6           0        2.329967   -2.940534    0.000000
      8          6           0        2.371015   -1.547395    0.000000
      9          6           0        1.272062    0.684580    0.000000
     10          6           0       -1.254328   -0.684294    0.000000
     11          6           0        0.000000    1.428307    0.000000
     12          6           0       -1.225689    0.743138    0.000000
     13          6           0        1.196037   -0.793777    0.000000
     14          6           0       -0.059593   -1.441692    0.000000
     15          1           0        0.984783    3.344394    0.000000
     16          1           0       -1.115433    4.667787    0.000000
     17          1           0       -3.291399    3.464742    0.000000
     18          1           0       -3.353410    1.002177    0.000000
     19          1           0       -2.208442   -1.193045    0.000000
     20          1           0       -1.034817   -3.355719    0.000000
     21          1           0        1.052974   -4.664556    0.000000
     22          1           0        3.247782   -3.509927    0.000000
     23          1           0        3.326209   -1.036498    0.000000
     24          1           0        1.883328    1.024275    0.857385
     25          1           0        1.883328    1.024275   -0.857385
 ---------------------------------------------------------------------
 Rotational constants (GHZ):           2.1391300           0.4450517           0.3692018
 Standard basis: 6-311++G(d,p) (5D, 7F)
 There are   299 symmetry adapted cartesian basis functions of A'  symmetry.
 There are   100 symmetry adapted cartesian basis functions of A"  symmetry.
 There are   285 symmetry adapted basis functions of A'  symmetry.
 There are   100 symmetry adapted basis functions of A"  symmetry.
   385 basis functions,   603 primitive gaussians,   399 cartesian basis functions
    47 alpha electrons       47 beta electrons
       nuclear repulsion energy       781.5988678304 Hartrees.
 NAtoms=   25 NActive=   25 NUniq=   24 SFac= 1.09D+00 NAtFMM=   60 NAOKFM=F Big=F
 Integral buffers will be    131072 words long.
 Regular integral format.
 Two-electron integral symmetry is turned on.
 Nuclear repulsion after empirical dispersion term =      781.5978884956 Hartrees.
 One-electron integrals computed using PRISM.
 NBasis=   385 RedAO= T EigKep=  1.11D-06  NBF=   285   100
 NBsUse=   379 1.00D-06 EigRej=  8.32D-07 NBFU=   279   100
 ExpMin= 3.60D-02 ExpMax= 4.56D+03 ExpMxC= 6.82D+02 IAcc=3 IRadAn=         5 AccDes= 0.00D+00
 Harris functional with IExCor= 1009 and IRadAn=       5 diagonalized for initial guess.
 HarFok:  IExCor= 1009 AccDes= 0.00D+00 IRadAn=         5 IDoV= 1 UseB2=F ITyADJ=14
 ICtDFT=  3500011 ScaDFX=  1.000000  1.000000  1.000000  1.000000
 FoFCou: FMM=F IPFlag=           0 FMFlag=      100000 FMFlg1=           0
         NFxFlg=           0 DoJE=T BraDBF=F KetDBF=T FulRan=T
         wScrn=  0.000000 ICntrl=       500 IOpCl=  0 I1Cent=   200000004 NGrid=           0
         NMat0=    1 NMatS0=      1 NMatT0=    0 NMatD0=    1 NMtDS0=    0 NMtDT0=    0
 Petite list used in FoFCou.
 Initial guess orbital symmetries:
       Occupied  (A') (A') (A') (A') (A') (A') (A') (A') (A') (A')
                 (A') (A') (A') (A') (A') (A') (A') (A') (A') (A')
                 (A') (A') (A') (A') (A') (A') (A') (A') (A') (A')
                 (A') (A') (A") (A') (A') (A') (A') (A') (A') (A")
                 (A") (A') (A') (A") (A") (A") (A")
       Virtual   (A") (A") (A") (A") (A") (A') (A') (A') (A') (A")
                 (A") (A') (A') (A') (A") (A') (A') (A') (A') (A")
                 (A') (A") (A') (A') (A') (A") (A') (A") (A') (A')
                 (A') (A') (A') (A") (A') (A') (A") (A') (A') (A")
                 (A') (A') (A') (A") (A') (A') (A') (A') (A') (A")
                 (A') (A') (A") (A") (A') (A') (A') (A") (A") (A')
                 (A') (A') (A') (A') (A') (A") (A') (A') (A') (A")
                 (A') (A') (A') (A') (A') (A') (A') (A') (A') (A')
                 (A') (A') (A') (A') (A') (A') (A') (A') (A') (A')
                 (A') (A') (A') (A') (A') (A') (A') (A") (A') (A")
                 (A') (A') (A") (A") (A') (A") (A') (A") (A') (A")
                 (A") (A') (A') (A') (A") (A') (A') (A") (A") (A')
                 (A") (A") (A') (A') (A') (A") (A') (A') (A') (A")
                 (A') (A') (A') (A') (A') (A') (A") (A') (A') (A')
                 (A') (A') (A') (A') (A') (A') (A') (A') (A') (A")
                 (A") (A') (A") (A") (A') (A') (A') (A") (A") (A')
                 (A") (A') (A") (A") (A") (A') (A') (A') (A') (A')
                 (A') (A") (A') (A") (A') (A') (A') (A') (A') (A")
                 (A') (A') (A') (A') (A") (A') (A") (A') (A") (A")
                 (A') (A") (A') (A") (A') (A') (A') (A") (A') (A')
                 (A") (A") (A") (A') (A') (A") (A') (A") (A') (A')
                 (A") (A") (A') (A") (A') (A") (A') (A') (A") (A')
                 (A') (A') (A') (A') (A") (A') (A') (A') (A") (A")
                 (A') (A') (A') (A") (A') (A') (A") (A') (A") (A')
                 (A") (A') (A') (A') (A') (A') (A") (A') (A') (A")
                 (A') (A') (A") (A') (A") (A') (A') (A") (A') (A')
                 (A') (A') (A") (A") (A') (A') (A') (A") (A") (A')
                 (A') (A') (A') (A') (A") (A') (A") (A') (A") (A')
                 (A") (A') (A") (A") (A") (A') (A') (A') (A') (A')
                 (A') (A') (A') (A') (A') (A') (A') (A') (A') (A')
                 (A') (A') (A') (A") (A') (A') (A') (A') (A') (A')
                 (A') (A') (A') (A') (A') (A') (A') (A') (A') (A')
                 (A') (A') (A') (A') (A') (A') (A') (A') (A') (A')
                 (A') (A')
 The electronic state of the initial guess is 1-A'.
 Requested convergence on RMS density matrix=1.00D-08 within 128 cycles.
 Requested convergence on MAX density matrix=1.00D-06.
 Requested convergence on             energy=1.00D-06.
 No special actions if energy rises.
 SCF Done:  E(RM062X) =  -539.759600502     A.U. after   15 cycles
            NFock= 15  Conv=0.58D-08     -V/T= 2.0042
 DoSCS=F DFT=T ScalE2(SS,OS)=  1.000000  1.000000
 ExpMin= 3.60D-02 ExpMax= 4.56D+03 ExpMxC= 6.82D+02 IAcc=3 IRadAn=         5 AccDes= 0.00D+00
 HarFok:  IExCor=  205 AccDes= 0.00D+00 IRadAn=         5 IDoV=-2 UseB2=F ITyADJ=14
 ICtDFT= 12500011 ScaDFX=  1.000000  1.000000  1.000000  1.000000
 Range of M.O.s used for correlation:    15   379
 NBasis=   385 NAE=    47 NBE=    47 NFC=    14 NFV=     0
 NROrb=    365 NOA=    33 NOB=    33 NVA=   332 NVB=   332

 **** Warning!!: The largest alpha MO coefficient is  0.15133582D+03

 Orbital symmetries:
       Occupied  (A') (A') (A') (A') (A') (A') (A') (A') (A') (A')
                 (A') (A') (A') (A') (A') (A') (A') (A') (A') (A')
                 (A') (A') (A') (A') (A') (A') (A') (A') (A') (A')
                 (A') (A') (A") (A') (A') (A') (A') (A") (A") (A')
                 (A') (A') (A') (A") (A") (A") (A")
       Virtual   (A") (A") (A") (A") (A') (A') (A') (A') (A") (A')
                 (A') (A") (A') (A') (A") (A') (A") (A') (A') (A')
                 (A") (A") (A') (A') (A') (A") (A') (A") (A') (A')
                 (A") (A') (A") (A') (A') (A') (A') (A') (A") (A')
                 (A") (A') (A') (A") (A") (A') (A") (A') (A") (A')
                 (A') (A') (A') (A') (A') (A") (A') (A') (A') (A')
                 (A') (A") (A') (A') (A') (A") (A') (A') (A') (A')
                 (A') (A') (A') (A') (A') (A') (A') (A') (A') (A')
                 (A') (A') (A') (A') (A') (A') (A') (A') (A') (A')
                 (A') (A') (A') (A') (A") (A') (A") (A") (A') (A")
                 (A') (A') (A') (A') (A") (A") (A') (A") (A") (A')
                 (A') (A') (A") (A') (A') (A") (A') (A") (A') (A")
                 (A") (A') (A") (A') (A') (A') (A") (A') (A') (A')
                 (A') (A') (A') (A') (A') (A') (A') (A') (A') (A')
                 (A') (A') (A') (A") (A') (A') (A') (A') (A') (A')
                 (A') (A') (A") (A') (A") (A') (A") (A") (A') (A")
                 (A") (A') (A') (A") (A") (A") (A') (A") (A') (A')
                 (A') (A') (A') (A") (A") (A') (A') (A') (A') (A")
                 (A') (A') (A') (A") (A') (A") (A') (A') (A") (A")
                 (A") (A') (A') (A") (A') (A") (A') (A') (A') (A')
                 (A") (A") (A") (A') (A") (A') (A') (A") (A') (A')
                 (A') (A") (A') (A") (A") (A') (A") (A') (A') (A")
                 (A') (A') (A') (A') (A") (A') (A') (A') (A") (A")
                 (A') (A') (A') (A") (A') (A') (A') (A") (A") (A')
                 (A") (A') (A') (A") (A') (A') (A') (A') (A') (A')
                 (A") (A') (A') (A') (A') (A") (A") (A") (A') (A')
                 (A') (A') (A') (A') (A') (A') (A") (A') (A') (A')
                 (A') (A") (A') (A") (A") (A") (A') (A") (A") (A')
                 (A') (A") (A") (A') (A") (A") (A') (A') (A') (A')
                 (A') (A') (A') (A') (A') (A') (A') (A') (A') (A')
                 (A') (A') (A') (A") (A') (A') (A') (A') (A') (A')
                 (A') (A') (A') (A') (A') (A') (A') (A') (A') (A')
                 (A') (A') (A') (A') (A') (A') (A') (A') (A') (A')
                 (A') (A')
     4 initial guesses have been made.
 Convergence on wavefunction:    0.001000000000000
 Iteration     1 Dimension     4 NMult     0 NNew      4
 CISAX will form     4 AO SS matrices at one time.
 Iteration     2 Dimension     6 NMult     4 NNew      2
 Iteration     3 Dimension     8 NMult     6 NNew      2
 Iteration     4 Dimension    10 NMult     8 NNew      2
 Iteration     5 Dimension    12 NMult    10 NNew      2
 Iteration     6 Dimension    14 NMult    12 NNew      2
 ***********************************************************************
 Excited states from <AA,BB:AA,BB> singles matrix:
 ***********************************************************************
 
 Ground to excited state transition densities written to RWF  633
 Ground to excited state transition electric dipole moments (Au):
       state          X           Y           Z        Dip. S.      Osc.
         1         0.5559      0.3117     -0.0000      0.4062      0.0279
 Ground to excited state transition velocity dipole moments (Au):
       state          X           Y           Z        Dip. S.      Osc.
         1        -0.0648     -0.0345      0.0000      0.0054      0.0348
 Ground to excited state transition magnetic dipole moments (Au):
       state          X           Y           Z
         1        -0.0000      0.0000      0.0786
 Ground to excited state transition velocity quadrupole moments (Au):
       state          XX          YY          ZZ          XY          XZ          YZ
         1         0.1187      0.2030     -0.0096     -0.1253     -0.0000      0.0000
 <0|del|b> * <b|rxdel|0> + <0|del|b> * <b|delr+rdel|0>
 Rotatory Strengths (R) in cgs (10**-40 erg-esu-cm/Gauss)
       state          XX          YY          ZZ    R(velocity)    E-M Angle
         1        -0.0000     -0.0000      0.0000      0.0000       90.00
 1/2[<0|r|b>*<b|rxdel|0> + (<0|rxdel|b>*<b|r|0>)*]
 Rotatory Strengths (R) in cgs (10**-40 erg-esu-cm/Gauss)
       state          XX          YY          ZZ     R(length)
         1         0.0000     -0.0000      0.0000      0.0000
  1/2[<0|del|b>*<b|r|0> + (<0|r|b>*<b|del|0>)*] (Au)
       state          X           Y           Z        Dip. S.   Osc.(frdel)
         1        -0.0360     -0.0108     -0.0000      0.0468      0.0312

 Excitation energies and oscillator strengths:
 
 Excited State   1:      Singlet-A'     2.8081 eV  441.52 nm  f=0.0279  <S**2>=0.000
      47 -> 48         0.70410
 This state for optimization and/or second-order correction.
 Total Energy, E(TD-HF/TD-DFT) =  -539.656403507    
 Copying the excited state density for this state as the 1-particle RhoCI density.
 SavETr:  write IOETrn=   770 NScale= 10 NData=  16 NLR=1 NState=    1 LETran=      28.

 **********************************************************************

            Population analysis using the SCF Density.

 **********************************************************************

 Orbital symmetries:
       Occupied  (A') (A') (A') (A') (A') (A') (A') (A') (A') (A')
                 (A') (A') (A') (A') (A') (A') (A') (A') (A') (A')
                 (A') (A') (A') (A') (A') (A') (A') (A') (A') (A')
                 (A') (A') (A") (A') (A') (A') (A') (A") (A") (A')
                 (A') (A') (A') (A") (A") (A") (A")
       Virtual   (A") (A") (A") (A") (A') (A') (A') (A') (A") (A')
                 (A') (A") (A') (A') (A") (A') (A") (A') (A') (A')
                 (A") (A") (A') (A') (A') (A") (A') (A") (A') (A')
                 (A") (A') (A") (A') (A') (A') (A') (A') (A") (A')
                 (A") (A') (A') (A") (A") (A') (A") (A') (A") (A')
                 (A') (A') (A') (A') (A') (A") (A') (A') (A') (A')
                 (A') (A") (A') (A') (A') (A") (A') (A') (A') (A')
                 (A') (A') (A') (A') (A') (A') (A') (A') (A') (A')
                 (A') (A') (A') (A') (A') (A') (A') (A') (A') (A')
                 (A') (A') (A') (A') (A") (A') (A") (A") (A') (A")
                 (A') (A') (A') (A') (A") (A") (A') (A") (A") (A')
                 (A') (A') (A") (A') (A') (A") (A') (A") (A') (A")
                 (A") (A') (A") (A') (A') (A') (A") (A') (A') (A')
                 (A') (A') (A') (A') (A') (A') (A') (A') (A') (A')
                 (A') (A') (A') (A") (A') (A') (A') (A') (A') (A')
                 (A') (A') (A") (A') (A") (A') (A") (A") (A') (A")
                 (A") (A') (A') (A") (A") (A") (A') (A") (A') (A')
                 (A') (A') (A') (A") (A") (A') (A') (A') (A') (A")
                 (A') (A') (A') (A") (A') (A") (A') (A') (A") (A")
                 (A") (A') (A') (A") (A') (A") (A') (A') (A') (A')
                 (A") (A") (A") (A') (A") (A') (A') (A") (A') (A')
                 (A') (A") (A') (A") (A") (A') (A") (A') (A') (A")
                 (A') (A') (A') (A') (A") (A') (A') (A') (A") (A")
                 (A') (A') (A') (A") (A') (A') (A') (A") (A") (A')
                 (A") (A') (A') (A") (A') (A') (A') (A') (A') (A')
                 (A") (A') (A') (A') (A') (A") (A") (A") (A') (A')
                 (A') (A') (A') (A') (A') (A') (A") (A') (A') (A')
                 (A') (A") (A') (A") (A") (A") (A') (A") (A") (A')
                 (A') (A") (A") (A') (A") (A") (A') (A') (A') (A')
                 (A') (A') (A') (A') (A') (A') (A') (A') (A') (A')
                 (A') (A') (A') (A") (A') (A') (A') (A') (A') (A')
                 (A') (A') (A') (A') (A') (A') (A') (A') (A') (A')
                 (A') (A') (A') (A') (A') (A') (A') (A') (A') (A')
                 (A') (A')
 The electronic state is 1-A'.
 Alpha  occ. eigenvalues --  -10.77642 -10.73331 -10.73043 -10.72532 -10.72298
 Alpha  occ. eigenvalues --  -10.71499 -10.71273 -10.71224 -10.70952 -10.70758
 Alpha  occ. eigenvalues --  -10.70035 -10.69906 -10.69698 -10.69533  -1.16501
 Alpha  occ. eigenvalues --   -1.12500  -1.06944  -1.05823  -1.01313  -1.00262
 Alpha  occ. eigenvalues --   -0.95759  -0.91075  -0.86427  -0.85920  -0.83830
 Alpha  occ. eigenvalues --   -0.78404  -0.76084  -0.74420  -0.69556  -0.69264
 Alpha  occ. eigenvalues --   -0.68506  -0.68203  -0.68087  -0.64802  -0.64297
 Alpha  occ. eigenvalues --   -0.63109  -0.61854  -0.60018  -0.59631  -0.59086
 Alpha  occ. eigenvalues --   -0.56926  -0.55211  -0.54850  -0.52432  -0.46711
 Alpha  occ. eigenvalues --   -0.46065  -0.44410
 Alpha virt. eigenvalues --   -0.26069  -0.14674  -0.14094  -0.12768  -0.11182
 Alpha virt. eigenvalues --   -0.10093  -0.09232  -0.07981  -0.07957  -0.07478
 Alpha virt. eigenvalues --   -0.07211  -0.07148  -0.05640  -0.05584  -0.05338
 Alpha virt. eigenvalues --   -0.03829  -0.03650  -0.03281  -0.03129  -0.02162
 Alpha virt. eigenvalues --   -0.01370  -0.00933   0.00183   0.00593   0.00691
 Alpha virt. eigenvalues --    0.01060   0.01509   0.01932   0.02215   0.02275
 Alpha virt. eigenvalues --    0.02451   0.02674   0.02756   0.03240   0.03378
 Alpha virt. eigenvalues --    0.04236   0.04512   0.04692   0.05027   0.05366
 Alpha virt. eigenvalues --    0.06028   0.06304   0.06598   0.07061   0.07247
 Alpha virt. eigenvalues --    0.07896   0.08166   0.08373   0.08566   0.08927
 Alpha virt. eigenvalues --    0.09544   0.09570   0.10050   0.10893   0.11070
 Alpha virt. eigenvalues --    0.11109   0.12189   0.12252   0.12901   0.13019
 Alpha virt. eigenvalues --    0.13420   0.13521   0.14032   0.14368   0.16217
 Alpha virt. eigenvalues --    0.16288   0.16387   0.17348   0.17619   0.17793
 Alpha virt. eigenvalues --    0.18139   0.19043   0.19246   0.19656   0.19774
 Alpha virt. eigenvalues --    0.21583   0.21633   0.22731   0.23133   0.23581
 Alpha virt. eigenvalues --    0.23728   0.24530   0.25231   0.26927   0.27622
 Alpha virt. eigenvalues --    0.28876   0.29312   0.29909   0.31385   0.35878
 Alpha virt. eigenvalues --    0.36475   0.38181   0.39286   0.41163   0.41393
 Alpha virt. eigenvalues --    0.42017   0.42156   0.42981   0.43727   0.44307
 Alpha virt. eigenvalues --    0.44914   0.45061   0.46062   0.46230   0.47885
 Alpha virt. eigenvalues --    0.48526   0.48902   0.49006   0.50446   0.51287
 Alpha virt. eigenvalues --    0.51596   0.51817   0.52115   0.52943   0.53991
 Alpha virt. eigenvalues --    0.54088   0.54700   0.55677   0.55778   0.57328
 Alpha virt. eigenvalues --    0.58243   0.58831   0.61465   0.62153   0.62362
 Alpha virt. eigenvalues --    0.63232   0.63497   0.65058   0.65169   0.67414
 Alpha virt. eigenvalues --    0.70373   0.70539   0.71071   0.72445   0.72896
 Alpha virt. eigenvalues --    0.75741   0.76034   0.76330   0.76890   0.77109
 Alpha virt. eigenvalues --    0.77859   0.77942   0.78286   0.79858   0.80409
 Alpha virt. eigenvalues --    0.81288   0.81612   0.82154   0.83027   0.85236
 Alpha virt. eigenvalues --    0.87190   0.88245   0.88614   0.89121   0.90457
 Alpha virt. eigenvalues --    0.91169   0.91254   0.93204   0.94654   0.96461
 Alpha virt. eigenvalues --    0.96673   1.00352   1.01326   1.01663   1.02730
 Alpha virt. eigenvalues --    1.03212   1.03787   1.04753   1.05482   1.08819
 Alpha virt. eigenvalues --    1.19587   1.23222   1.24116   1.25243   1.28252
 Alpha virt. eigenvalues --    1.29604   1.31868   1.34218   1.35806   1.36013
 Alpha virt. eigenvalues --    1.39406   1.40153   1.40982   1.42927   1.43530
 Alpha virt. eigenvalues --    1.43544   1.44914   1.45740   1.46397   1.46686
 Alpha virt. eigenvalues --    1.47645   1.48075   1.51825   1.53635   1.55802
 Alpha virt. eigenvalues --    1.56080   1.56353   1.56561   1.57834   1.61521
 Alpha virt. eigenvalues --    1.63174   1.63444   1.63797   1.66160   1.68352
 Alpha virt. eigenvalues --    1.68393   1.68657   1.69707   1.74467   1.76025
 Alpha virt. eigenvalues --    1.77249   1.78049   1.80188   1.80191   1.80767
 Alpha virt. eigenvalues --    1.83175   1.83199   1.83685   1.83815   1.84126
 Alpha virt. eigenvalues --    1.84326   1.85797   1.86148   1.88258   1.91419
 Alpha virt. eigenvalues --    1.92133   1.94162   1.95264   1.97722   1.98197
 Alpha virt. eigenvalues --    1.99802   2.02731   2.04507   2.07268   2.11840
 Alpha virt. eigenvalues --    2.12128   2.14134   2.15218   2.19210   2.21398
 Alpha virt. eigenvalues --    2.22796   2.28491   2.30444   2.34742   2.34994
 Alpha virt. eigenvalues --    2.36236   2.38683   2.39605   2.42415   2.44273
 Alpha virt. eigenvalues --    2.46205   2.46895   2.49406   2.52968   2.53840
 Alpha virt. eigenvalues --    2.54459   2.56640   2.57863   2.58306   2.59646
 Alpha virt. eigenvalues --    2.59850   2.61635   2.62181   2.63581   2.63861
 Alpha virt. eigenvalues --    2.64801   2.65160   2.65205   2.65407   2.68154
 Alpha virt. eigenvalues --    2.68673   2.70987   2.71428   2.73363   2.74839
 Alpha virt. eigenvalues --    2.76300   2.79049   2.79767   2.83104   2.83107
 Alpha virt. eigenvalues --    2.84934   2.86398   2.92160   2.96964   2.99538
 Alpha virt. eigenvalues --    3.00120   3.05532   3.11147   3.11613   3.13294
 Alpha virt. eigenvalues --    3.21228   3.24255   3.26904   3.28397   3.30778
 Alpha virt. eigenvalues --    3.32811   3.33768   3.43453   3.45948   3.46902
 Alpha virt. eigenvalues --    3.48767   3.50326   3.56678   3.64919   3.67169
 Alpha virt. eigenvalues --    3.67538   3.94166   3.94506   3.95186   3.96293
 Alpha virt. eigenvalues --    4.04038   4.06946   4.07654   4.12529   4.35812
 Alpha virt. eigenvalues --    4.61936   4.69916   4.71677  23.45318  23.60631
 Alpha virt. eigenvalues --   23.82209  23.85700  23.87903  23.89322  23.90560
 Alpha virt. eigenvalues --   23.92889  23.97597  23.98971  24.00399  24.01452
 Alpha virt. eigenvalues --   24.10647  24.10938
          Condensed to atoms (all electrons):
               1          2          3          4          5          6
     1  C    8.590747   0.355515  -0.537586   1.918941  -0.009255  -0.097367
     2  C    0.355515   7.056710   0.353090  -1.034507  -0.022832  -0.014825
     3  C   -0.537586   0.353090   6.579716   0.751737  -0.122627   0.016924
     4  C    1.918941  -1.034507   0.751737  10.671759  -0.289787  -0.115825
     5  C   -0.009255  -0.022832  -0.122627  -0.289787  10.880684   0.723378
     6  C   -0.097367  -0.014825   0.016924  -0.115825   0.723378   6.587677
     7  C   -0.022286   0.003984  -0.015464  -0.036448  -0.978151   0.398711
     8  C    0.405706  -0.030825  -0.091044   0.009870   1.768597  -0.604477
     9  C   -1.275615  -0.756186   0.282523  -0.343564  -0.219429   0.283667
    10  C   -1.252034   0.256801  -0.383826  -2.490834  -2.598162  -0.335525
    11  C    0.230363  -0.977747   1.058721  -0.228136  -1.519741  -0.195562
    12  C   -1.903920   1.368236  -1.379396  -1.426528  -0.355092  -0.178692
    13  C    0.146794  -0.249936  -0.163258  -1.472593  -0.215025   0.991847
    14  C   -1.044152  -0.179761  -0.223593  -0.280891  -1.418171  -1.335972
    15  H    0.364379  -0.102301  -0.001543   0.026856   0.005832   0.001058
    16  H   -0.019378   0.376146  -0.014166   0.012707  -0.001518  -0.000320
    17  H   -0.023967  -0.015177   0.372446  -0.065717   0.000366   0.000388
    18  H    0.049159   0.002832  -0.085229   0.450934   0.007865  -0.004967
    19  H   -0.047702  -0.007271   0.050518  -0.068144  -0.073351   0.050390
    20  H    0.007618   0.001929  -0.004887   0.007948   0.453921  -0.085238
    21  H   -0.001355  -0.000390   0.000395   0.000244  -0.066519   0.375944
    22  H    0.000775   0.000367  -0.000336  -0.001600   0.014785  -0.017004
    23  H    0.005719  -0.002812   0.001135   0.006274   0.025418  -0.002680
    24  H    0.029812   0.013781  -0.001511  -0.012661  -0.012155  -0.001373
    25  H    0.029812   0.013781  -0.001511  -0.012661  -0.012155  -0.001373
               7          8          9         10         11         12
     1  C   -0.022286   0.405706  -1.275615  -1.252034   0.230363  -1.903920
     2  C    0.003984  -0.030825  -0.756186   0.256801  -0.977747   1.368236
     3  C   -0.015464  -0.091044   0.282523  -0.383826   1.058721  -1.379396
     4  C   -0.036448   0.009870  -0.343564  -2.490834  -0.228136  -1.426528
     5  C   -0.978151   1.768597  -0.219429  -2.598162  -1.519741  -0.355092
     6  C    0.398711  -0.604477   0.283667  -0.335525  -0.195562  -0.178692
     7  C    7.061896   0.489874  -0.780132   0.203078  -0.227493  -0.237504
     8  C    0.489874   8.457216  -1.287823  -1.194493   0.137306  -1.084614
     9  C   -0.780132  -1.287823   9.674329   0.250402   1.769711  -1.959925
    10  C    0.203078  -1.194493   0.250402   9.280666  -0.612100   2.443048
    11  C   -0.227493   0.137306   1.769711  -0.612100  14.686195  -3.754853
    12  C   -0.237504  -1.084614  -1.959925   2.443048  -3.754853  16.001408
    13  C   -0.920507   0.232818   1.816160  -0.556269   1.088034  -4.886970
    14  C    1.183827  -1.697895  -2.064427   2.414116  -4.863598   2.916286
    15  H   -0.002668   0.006223   0.093133  -0.010129  -0.030314  -0.027338
    16  H    0.000345   0.000591   0.005006  -0.009707   0.030403  -0.036846
    17  H   -0.000403  -0.001309  -0.006263   0.020985  -0.029197   0.092048
    18  H    0.001925   0.007529  -0.026175   0.018497  -0.009874  -0.053027
    19  H   -0.007561  -0.045975   0.076669   0.422378   0.079101  -0.059053
    20  H    0.003050   0.047333  -0.025232   0.016711  -0.011741  -0.013706
    21  H   -0.018978  -0.020528  -0.005750   0.020625  -0.006379   0.005212
    22  H    0.378468  -0.020103   0.004482  -0.010331   0.003278  -0.009524
    23  H   -0.101703   0.363702   0.090790  -0.009087   0.000024   0.007049
    24  H    0.014627   0.032809   0.358445   0.005724   0.009892  -0.059714
    25  H    0.014627   0.032809   0.358445   0.005724   0.009892  -0.059714
              13         14         15         16         17         18
     1  C    0.146794  -1.044152   0.364379  -0.019378  -0.023967   0.049159
     2  C   -0.249936  -0.179761  -0.102301   0.376146  -0.015177   0.002832
     3  C   -0.163258  -0.223593  -0.001543  -0.014166   0.372446  -0.085229
     4  C   -1.472593  -0.280891   0.026856   0.012707  -0.065717   0.450934
     5  C   -0.215025  -1.418171   0.005832  -0.001518   0.000366   0.007865
     6  C    0.991847  -1.335972   0.001058  -0.000320   0.000388  -0.004967
     7  C   -0.920507   1.183827  -0.002668   0.000345  -0.000403   0.001925
     8  C    0.232818  -1.697895   0.006223   0.000591  -0.001309   0.007529
     9  C    1.816160  -2.064427   0.093133   0.005006  -0.006263  -0.026175
    10  C   -0.556269   2.414116  -0.010129  -0.009707   0.020985   0.018497
    11  C    1.088034  -4.863598  -0.030314   0.030403  -0.029197  -0.009874
    12  C   -4.886970   2.916286  -0.027338  -0.036846   0.092048  -0.053027
    13  C   14.714338  -3.938210   0.002845   0.003072  -0.006400  -0.011711
    14  C   -3.938210  16.075512   0.006478  -0.008797   0.005321  -0.010120
    15  H    0.002845   0.006478   0.439706  -0.008908   0.001398   0.000191
    16  H    0.003072  -0.008797  -0.008908   0.419995  -0.006493   0.001889
    17  H   -0.006400   0.005321   0.001398  -0.006493   0.423122  -0.010164
    18  H   -0.011711  -0.010120   0.000191   0.001889  -0.010164   0.454201
    19  H    0.076834  -0.070960   0.000257  -0.000507   0.001308  -0.006198
    20  H   -0.011572  -0.047888  -0.000107   0.000013  -0.000134   0.001298
    21  H   -0.028190   0.088349   0.000012  -0.000007   0.000010  -0.000148
    22  H    0.030011  -0.035886  -0.000127   0.000007  -0.000007   0.000015
    23  H   -0.029080  -0.020859   0.000618  -0.000124   0.000013  -0.000114
    24  H    0.016470  -0.059239  -0.000874   0.000627  -0.000143   0.000182
    25  H    0.016470  -0.059239  -0.000874   0.000627  -0.000143   0.000182
              19         20         21         22         23         24
     1  C   -0.047702   0.007618  -0.001355   0.000775   0.005719   0.029812
     2  C   -0.007271   0.001929  -0.000390   0.000367  -0.002812   0.013781
     3  C    0.050518  -0.004887   0.000395  -0.000336   0.001135  -0.001511
     4  C   -0.068144   0.007948   0.000244  -0.001600   0.006274  -0.012661
     5  C   -0.073351   0.453921  -0.066519   0.014785   0.025418  -0.012155
     6  C    0.050390  -0.085238   0.375944  -0.017004  -0.002680  -0.001373
     7  C   -0.007561   0.003050  -0.018978   0.378468  -0.101703   0.014627
     8  C   -0.045975   0.047333  -0.020528  -0.020103   0.363702   0.032809
     9  C    0.076669  -0.025232  -0.005750   0.004482   0.090790   0.358445
    10  C    0.422378   0.016711   0.020625  -0.010331  -0.009087   0.005724
    11  C    0.079101  -0.011741  -0.006379   0.003278   0.000024   0.009892
    12  C   -0.059053  -0.013706   0.005212  -0.009524   0.007049  -0.059714
    13  C    0.076834  -0.011572  -0.028190   0.030011  -0.029080   0.016470
    14  C   -0.070960  -0.047888   0.088349  -0.035886  -0.020859  -0.059239
    15  H    0.000257  -0.000107   0.000012  -0.000127   0.000618  -0.000874
    16  H   -0.000507   0.000013  -0.000007   0.000007  -0.000124   0.000627
    17  H    0.001308  -0.000134   0.000010  -0.000007   0.000013  -0.000143
    18  H   -0.006198   0.001298  -0.000148   0.000015  -0.000114   0.000182
    19  H    0.442565  -0.005905   0.001474  -0.000543   0.000315   0.000633
    20  H   -0.005905   0.451196  -0.010038   0.001914   0.000239   0.000159
    21  H    0.001474  -0.010038   0.421653  -0.006788   0.001515  -0.000138
    22  H   -0.000543   0.001914  -0.006788   0.418199  -0.008894   0.000625
    23  H    0.000315   0.000239   0.001515  -0.008894   0.436817  -0.000885
    24  H    0.000633   0.000159  -0.000138   0.000625  -0.000885   0.495134
    25  H    0.000633   0.000159  -0.000138   0.000625  -0.000885  -0.081233
              25
     1  C    0.029812
     2  C    0.013781
     3  C   -0.001511
     4  C   -0.012661
     5  C   -0.012155
     6  C   -0.001373
     7  C    0.014627
     8  C    0.032809
     9  C    0.358445
    10  C    0.005724
    11  C    0.009892
    12  C   -0.059714
    13  C    0.016470
    14  C   -0.059239
    15  H   -0.000874
    16  H    0.000627
    17  H   -0.000143
    18  H    0.000182
    19  H    0.000633
    20  H    0.000159
    21  H   -0.000138
    22  H    0.000625
    23  H   -0.000885
    24  H   -0.081233
    25  H    0.495134
 Mulliken charges:
               1
     1  C    0.099279
     2  C   -0.408602
     3  C   -0.441229
     4  C    0.022624
     5  C    0.033124
     6  C   -0.438781
     7  C   -0.405112
     8  C    0.086702
     9  C   -0.313243
    10  C    0.103741
    11  C   -0.636185
    12  C    0.653130
    13  C   -0.645971
    14  C    0.669769
    15  H    0.236199
    16  H    0.255344
    17  H    0.248113
    18  H    0.221027
    19  H    0.190094
    20  H    0.222964
    21  H    0.249915
    22  H    0.257592
    23  H    0.237495
    24  H    0.251005
    25  H    0.251005
 Sum of Mulliken charges =   1.00000
 Mulliken charges with hydrogens summed into heavy atoms:
               1
     1  C    0.335477
     2  C   -0.153258
     3  C   -0.193115
     4  C    0.243652
     5  C    0.256087
     6  C   -0.188866
     7  C   -0.147520
     8  C    0.324197
     9  C    0.188768
    10  C    0.293835
    11  C   -0.636185
    12  C    0.653130
    13  C   -0.645971
    14  C    0.669769
 Electronic spatial extent (au):  <R**2>=           2853.2398
 Charge=              1.0000 electrons
 Dipole moment (field-independent basis, Debye):
    X=             -0.0261    Y=             -0.3314    Z=              0.0000  Tot=              0.3324
 Quadrupole moment (field-independent basis, Debye-Ang):
   XX=            -50.7898   YY=            -36.6164   ZZ=            -84.1392
   XY=            -10.3562   XZ=              0.0000   YZ=              0.0000
 Traceless Quadrupole moment (field-independent basis, Debye-Ang):
   XX=              6.3920   YY=             20.5654   ZZ=            -26.9574
   XY=            -10.3562   XZ=              0.0000   YZ=              0.0000
 Octapole moment (field-independent basis, Debye-Ang**2):
  XXX=              0.6007  YYY=              2.7493  ZZZ=              0.0000  XYY=              1.1383
  XXY=             -5.9078  XXZ=              0.0000  XZZ=              2.8845  YZZ=              1.0811
  YYZ=              0.0000  XYZ=              0.0000
 Hexadecapole moment (field-independent basis, Debye-Ang**3):
 XXXX=           -995.7288 YYYY=          -1841.5495 ZZZZ=            -99.3059 XXXY=            349.9841
 XXXZ=              0.0000 YYYX=            277.3602 YYYZ=              0.0000 ZZZX=             -0.0000
 ZZZY=              0.0000 XXYY=           -453.4341 XXZZ=           -243.5897 YYZZ=           -492.1767
 XXYZ=              0.0000 YYXZ=              0.0000 ZZXY=            184.2723
 N-N= 7.815978884956D+02 E-N=-2.799552053886D+03  KE= 5.375286786243D+02
 Symmetry A'   KE= 5.228809739143D+02
 Symmetry A"   KE= 1.464770470998D+01
 Unable to Open any file for archive entry.
 1\1\GINC-GADI-CPU-CLX-1762\SP\RM062X TD-FC\6-311++G(d,p)\C14H11(1+)\TS
 1578\02-Aug-2022\0\\#n M062X/6-311++G(d,p) TD(NStates=1) EmpiricalDisp
 ersion=GD3 SP\\SP_-125\\1,1\C,0,2.495705,1.361331,0.\C,0,3.707833,0.67
 6214,0.\C,0,3.684961,-0.70563,0.\C,0,2.455156,-1.402588,0.\C,0,-2.4707
 56,-1.411688,0.\C,0,-3.680361,-0.71803,0.\C,0,-3.691383,0.669164,0.\C,
 0,-2.482005,1.361931,0.\C,0,0.004475,1.444569,0.\C,0,-0.0122,-1.428789
 ,0.\C,0,1.25993,0.67314,0.\C,0,1.233271,-0.730804,0.\C,0,-1.26358,0.68
 079,0.\C,0,-1.243271,-0.732004,0.\H,0,2.485771,2.444722,0.\H,0,4.64277
 8,1.216064,0.\H,0,4.607212,-1.270074,0.\H,0,2.4645,-2.485334,0.\H,0,-0
 .01125,-2.510066,0.\H,0,-2.4718,-2.494184,0.\H,0,-4.610112,-1.269624,0
 .\H,0,-4.626128,1.210314,0.\H,0,-2.481571,2.445172,0.\H,0,0.016,2.1437
 87,-0.857385\H,0,0.016,2.143787,0.857385\\Version=ES64L-G16RevC.01\Sta
 te=1-A'\HF=-539.7596005\RMSD=5.800e-09\PG=CS [SG(C14H9),X(H2)]\\@
 The archive entry for this job was punched.


 ASKING FOR EFFICIENCY AND ADAPTABILITY IN THE SAME PROGRAM IS LIKE
 ASKING FOR A BEAUTIFUL AND MODEST WIFE ...
 WE'LL PROBABLY HAVE TO SETTLE FOR ONE OR THE OTHER.

             -- THE PSYCHOLOGY OF COMPUTER PROGRAMMING
                GERALD M. WEINBERG
 Job cpu time:       0 days  0 hours 52 minutes 31.8 seconds.
 Elapsed time:       0 days  0 hours  1 minutes  6.3 seconds.
 File lengths (MBytes):  RWF=    460 Int=      0 D2E=      0 Chk=     15 Scr=      1
 Normal termination of Gaussian 16 at Tue Aug  2 10:51:09 2022.
