 Entering Gaussian System, Link 0=g16
 Initial command:
 /apps/gaussian/g16c01/g16/l1.exe "/jobfs/53796104.gadi-pbs/Gau-3590439.inp" -scrdir="/jobfs/53796104.gadi-pbs/"
 Entering Link 1 = /apps/gaussian/g16c01/g16/l1.exe PID=   3590440.
  
 Copyright (c) 1988-2019, Gaussian, Inc.  All Rights Reserved.
  
 This is part of the Gaussian(R) 16 program.  It is based on
 the Gaussian(R) 09 system (copyright 2009, Gaussian, Inc.),
 the Gaussian(R) 03 system (copyright 2003, Gaussian, Inc.),
 the Gaussian(R) 98 system (copyright 1998, Gaussian, Inc.),
 the Gaussian(R) 94 system (copyright 1995, Gaussian, Inc.),
 the Gaussian 92(TM) system (copyright 1992, Gaussian, Inc.),
 the Gaussian 90(TM) system (copyright 1990, Gaussian, Inc.),
 the Gaussian 88(TM) system (copyright 1988, Gaussian, Inc.),
 the Gaussian 86(TM) system (copyright 1986, Carnegie Mellon
 University), and the Gaussian 82(TM) system (copyright 1983,
 Carnegie Mellon University). Gaussian is a federally registered
 trademark of Gaussian, Inc.
  
 This software contains proprietary and confidential information,
 including trade secrets, belonging to Gaussian, Inc.
  
 This software is provided under written license and may be
 used, copied, transmitted, or stored only in accord with that
 written license.
  
 The following legend is applicable only to US Government
 contracts under FAR:
  
                    RESTRICTED RIGHTS LEGEND
  
 Use, reproduction and disclosure by the US Government is
 subject to restrictions as set forth in subparagraphs (a)
 and (c) of the Commercial Computer Software - Restricted
 Rights clause in FAR 52.227-19.
  
 Gaussian, Inc.
 340 Quinnipiac St., Bldg. 40, Wallingford CT 06492
  
  
 ---------------------------------------------------------------
 Warning -- This program may not be used in any manner that
 competes with the business of Gaussian, Inc. or will provide
 assistance to any competitor of Gaussian, Inc.  The licensee
 of this program is prohibited from giving any competitor of
 Gaussian, Inc. access to this program.  By using this program,
 the user acknowledges that Gaussian, Inc. is engaged in the
 business of creating and licensing software in the field of
 computational chemistry and represents and warrants to the
 licensee that it is not a competitor of Gaussian, Inc. and that
 it will not use this program in any manner prohibited above.
 ---------------------------------------------------------------
  

 Cite this work as:
 Gaussian 16, Revision C.01,
 M. J. Frisch, G. W. Trucks, H. B. Schlegel, G. E. Scuseria, 
 M. A. Robb, J. R. Cheeseman, G. Scalmani, V. Barone, 
 G. A. Petersson, H. Nakatsuji, X. Li, M. Caricato, A. V. Marenich, 
 J. Bloino, B. G. Janesko, R. Gomperts, B. Mennucci, H. P. Hratchian, 
 J. V. Ortiz, A. F. Izmaylov, J. L. Sonnenberg, D. Williams-Young, 
 F. Ding, F. Lipparini, F. Egidi, J. Goings, B. Peng, A. Petrone, 
 T. Henderson, D. Ranasinghe, V. G. Zakrzewski, J. Gao, N. Rega, 
 G. Zheng, W. Liang, M. Hada, M. Ehara, K. Toyota, R. Fukuda, 
 J. Hasegawa, M. Ishida, T. Nakajima, Y. Honda, O. Kitao, H. Nakai, 
 T. Vreven, K. Throssell, J. A. Montgomery, Jr., J. E. Peralta, 
 F. Ogliaro, M. J. Bearpark, J. J. Heyd, E. N. Brothers, K. N. Kudin, 
 V. N. Staroverov, T. A. Keith, R. Kobayashi, J. Normand, 
 K. Raghavachari, A. P. Rendell, J. C. Burant, S. S. Iyengar, 
 J. Tomasi, M. Cossi, J. M. Millam, M. Klene, C. Adamo, R. Cammi, 
 J. W. Ochterski, R. L. Martin, K. Morokuma, O. Farkas, 
 J. B. Foresman, and D. J. Fox, Gaussian, Inc., Wallingford CT, 2019.
 
 ******************************************
 Gaussian 16:  ES64L-G16RevC.01  3-Jul-2019
                 2-Aug-2022 
 ******************************************
 %NProcShared=48
 Will use up to   48 processors via shared memory.
 %mem = 190GB
 ---------------------------------------------------------------
 #n M062X/6-311++G(d,p) TD(NStates=1) EmpiricalDispersion=GD3 SP
 ---------------------------------------------------------------
 1/38=1,172=1/1;
 2/12=2,17=6,18=5,40=1/2;
 3/5=4,6=6,7=1111,11=9,25=1,30=1,74=-55,124=31/1,2,3,8;
 4//1;
 5/5=2,38=5/2;
 8/6=1,10=2,108=1/1;
 9/41=1,42=1,70=2/14;
 6/7=2,8=2,9=2,10=2/1;
 99/5=1,9=1/99;
 -------
 SP_-125
 -------
 Symbolic Z-matrix:
 Charge =  1 Multiplicity = 1
 C                     2.49181   1.36163   0. 
 C                     3.70348   0.67454   0. 
 C                     3.68366  -0.70848   0. 
 C                     2.45903  -1.40481   0. 
 C                    -2.46683  -1.40936   0. 
 C                    -3.68136  -0.71468   0. 
 C                    -3.69526   0.67101   0. 
 C                    -2.48496   1.36193   0. 
 C                     0.0023    1.44347   0. 
 C                    -0.0061   -1.42874   0. 
 C                     1.26081   0.67504   0. 
 C                     1.23587  -0.73118   0. 
 C                    -1.26263   0.67887   0. 
 C                    -1.24087  -0.73178   0. 
 H                     2.48417   2.445     0. 
 H                     4.63833   1.21481   0. 
 H                     4.60786  -1.26965   0. 
 H                     2.4664   -2.48751   0. 
 H                    -0.00563  -2.51004   0. 
 H                    -2.47005  -2.49193   0. 
 H                    -4.60931  -1.26942   0. 
 H                    -4.63      1.21194   0. 
 H                    -2.48207   2.44522   0. 
 H                     0.008     2.14354  -0.85711 
 H                     0.008     2.14354   0.85711 
 
                          Input orientation:                          
 ---------------------------------------------------------------------
 Center     Atomic      Atomic             Coordinates (Angstroms)
 Number     Number       Type             X           Y           Z
 ---------------------------------------------------------------------
      1          6           0        2.491805    1.361631    0.000000
      2          6           0        3.703483    0.674539    0.000000
      3          6           0        3.683661   -0.708480    0.000000
      4          6           0        2.459031   -1.404813    0.000000
      5          6           0       -2.466831   -1.409363    0.000000
      6          6           0       -3.681361   -0.714680    0.000000
      7          6           0       -3.695258    0.671014    0.000000
      8          6           0       -2.484955    1.361931    0.000000
      9          6           0        0.002300    1.443469    0.000000
     10          6           0       -0.006100   -1.428739    0.000000
     11          6           0        1.260805    0.675040    0.000000
     12          6           0        1.235871   -0.731179    0.000000
     13          6           0       -1.262630    0.678865    0.000000
     14          6           0       -1.240871   -0.731779    0.000000
     15          1           0        2.484171    2.444997    0.000000
     16          1           0        4.638328    1.214814    0.000000
     17          1           0        4.607862   -1.269649    0.000000
     18          1           0        2.466400   -2.487509    0.000000
     19          1           0       -0.005625   -2.510041    0.000000
     20          1           0       -2.470050   -2.491934    0.000000
     21          1           0       -4.609312   -1.269424    0.000000
     22          1           0       -4.630003    1.211939    0.000000
     23          1           0       -2.482071    2.445222    0.000000
     24          1           0        0.008000    2.143537   -0.857110
     25          1           0        0.008000    2.143537    0.857110
 ---------------------------------------------------------------------
                    Distance matrix (angstroms):
                    1          2          3          4          5
     1  C    0.000000
     2  C    1.392932   0.000000
     3  C    2.388698   1.383161   0.000000
     4  C    2.766638   2.423296   1.408758   0.000000
     5  C    5.680359   6.512712   6.190298   4.925864   0.000000
     6  C    6.512991   7.514376   7.365025   6.179053   1.399167
     7  C    6.225488   7.398742   7.506760   6.494947   2.415989
     8  C    4.976760   6.226498   6.506798   5.665498   2.771353
     9  C    2.490850   3.780213   4.264188   3.761414   3.772964
    10  C    3.745089   4.264362   3.759403   2.465247   2.460807
    11  C    1.409528   2.442678   2.790046   2.400320   4.270832
    12  C    2.440742   2.839921   2.447895   1.396389   3.764297
    13  C    3.816013   4.966115   5.137171   4.265264   2.410559
    14  C    4.279630   5.140464   4.924587   3.760618   1.400749
    15  H    1.083393   2.149708   3.373899   3.849892   6.274433
    16  H    2.151538   1.079737   2.147196   3.407606   7.574272
    17  H    3.376586   2.144241   1.081230   2.153078   7.076072
    18  H    3.849224   3.395427   2.155613   1.082721   5.049670
    19  H    4.607277   4.888664   4.105661   2.701122   2.696113
    20  H    6.282513   6.938232   6.406939   5.047541   1.082576
    21  H    7.572867   8.537069   8.311923   7.069640   2.147046
    22  H    7.123381   8.350796   8.532586   7.556573   3.398608
    23  H    5.090541   6.434003   6.925467   6.263965   3.854615
    24  H    2.741405   4.068069   4.730658   4.396928   4.413901
    25  H    2.741405   4.068069   4.730658   4.396928   4.413901
                    6          7          8          9         10
     6  C    0.000000
     7  C    1.385764   0.000000
     8  C    2.396602   1.393628   0.000000
     9  C    4.269305   3.777383   2.488591   0.000000
    10  C    3.743985   4.244862   3.732635   2.872220   0.000000
    11  C    5.133841   4.956065   3.808220   1.474557   2.455796
    12  C    4.917260   5.126615   4.269152   2.500158   1.424458
    13  C    2.791456   2.432641   1.400235   1.478062   2.453745
    14  C    2.440550   2.826985   2.435440   2.505430   1.417890
    15  H    6.928012   6.429025   5.085789   2.676330   4.605136
    16  H    8.540502   8.351310   7.124802   4.641663   5.344070
    17  H    8.307780   8.526897   7.565267   5.345298   4.616704
    18  H    6.398272   6.924038   6.271691   4.639437   2.689656
    19  H    4.090765   4.871602   4.597743   3.953518   1.081302
    20  H    2.150792   3.391957   3.853894   4.647570   2.683549
    21  H    1.081126   2.144946   3.381852   5.350398   4.605968
    22  H    2.147506   1.079976   2.150286   4.638086   5.324815
    23  H    3.379834   2.149334   1.083295   2.678733   4.597609
    24  H    4.745042   4.076405   2.749613   1.106691   3.673689
    25  H    4.745042   4.076405   2.749613   1.106691   3.673689
                   11         12         13         14         15
    11  C    0.000000
    12  C    1.406440   0.000000
    13  C    2.523438   2.868925   0.000000
    14  C    2.870108   2.476742   1.410812   0.000000
    15  H    2.151598   3.412674   4.142190   4.895696   0.000000
    16  H    3.420383   3.919643   5.925247   6.193077   2.480674
    17  H    3.870995   3.414714   6.185417   5.873413   4.278862
    18  H    3.384550   2.144504   4.891992   4.102005   4.932538
    19  H    3.427621   2.169254   3.427708   2.165190   5.545402
    20  H    4.893772   4.102939   3.392909   2.146864   6.994111
    21  H    6.183786   5.869912   3.872481   3.411079   8.007148
    22  H    5.915224   6.179335   3.409306   3.906950   7.220243
    23  H    4.140370   4.890053   2.146405   3.410852   4.966242
    24  H    2.112023   3.241342   2.120001   3.249886   2.637601
    25  H    2.112023   3.241342   2.120001   3.249886   2.637601
                   16         17         18         19         20
    16  H    0.000000
    17  H    2.484650   0.000000
    18  H    4.292373   2.463543   0.000000
    19  H    5.953221   4.777325   2.472128   0.000000
    20  H    8.016796   7.182675   4.936452   2.464492   0.000000
    21  H    9.575504   9.217174   7.179793   4.767920   2.463934
    22  H    9.268331   9.565377   8.002803   5.936161   4.287665
    23  H    7.225925   8.004212   6.987074   5.539622   4.937171
    24  H    4.799698   5.791650   5.312716   4.731872   5.325689
    25  H    4.799698   5.791650   5.312716   4.731872   5.325689
                   21         22         23         24         25
    21  H    0.000000
    22  H    2.481449   0.000000
    23  H    4.280625   2.476812   0.000000
    24  H    5.805386   4.807659   2.650680   0.000000
    25  H    5.805386   4.807659   2.650680   1.714220   0.000000
 Stoichiometry    C14H11(1+)
 Framework group  CS[SG(C14H9),X(H2)]
 Deg. of freedom    46
 Full point group                 CS      NOp   2
 Largest Abelian subgroup         CS      NOp   2
 Largest concise Abelian subgroup CS      NOp   2
                         Standard orientation:                         
 ---------------------------------------------------------------------
 Center     Atomic      Atomic             Coordinates (Angstroms)
 Number     Number       Type             X           Y           Z
 ---------------------------------------------------------------------
      1          6           0        2.485775   -1.372427    0.000000
      2          6           0        3.700423   -0.690598    0.000000
      3          6           0        3.686601    0.692494    0.000000
      4          6           0        2.465004    1.394134    0.000000
      5          6           0       -2.460792    1.420055    0.000000
      6          6           0       -3.678324    0.730648    0.000000
      7          6           0       -3.698233   -0.654972    0.000000
      8          6           0       -2.490940   -1.351134    0.000000
      9          6           0       -0.004062   -1.443463    0.000000
     10          6           0       -0.000000    1.428755    0.000000
     11          6           0        1.257765   -0.680501    0.000000
     12          6           0        1.238933    0.725813    0.000000
     13          6           0       -1.265662   -0.673378    0.000000
     14          6           0       -1.237783    0.737159    0.000000
     15          1           0        2.473441   -2.455749    0.000000
     16          1           0        4.632915   -1.234924    0.000000
     17          1           0        4.613228    1.249648    0.000000
     18          1           0        2.477070    2.476787    0.000000
     19          1           0        0.005166    2.510045    0.000000
     20          1           0       -2.459314    2.502630    0.000000
     21          1           0       -4.603860    1.289413    0.000000
     22          1           0       -4.635317   -1.191837    0.000000
     23          1           0       -2.492756   -2.434427    0.000000
     24          1           0       -0.001399   -2.143549    0.857110
     25          1           0       -0.001399   -2.143549   -0.857110
 ---------------------------------------------------------------------
 Rotational constants (GHZ):           2.1394687           0.4451093           0.3692510
 Standard basis: 6-311++G(d,p) (5D, 7F)
 There are   299 symmetry adapted cartesian basis functions of A'  symmetry.
 There are   100 symmetry adapted cartesian basis functions of A"  symmetry.
 There are   285 symmetry adapted basis functions of A'  symmetry.
 There are   100 symmetry adapted basis functions of A"  symmetry.
   385 basis functions,   603 primitive gaussians,   399 cartesian basis functions
    47 alpha electrons       47 beta electrons
       nuclear repulsion energy       781.6460581669 Hartrees.
 NAtoms=   25 NActive=   25 NUniq=   24 SFac= 1.09D+00 NAtFMM=   60 NAOKFM=F Big=F
 Integral buffers will be    131072 words long.
 Regular integral format.
 Two-electron integral symmetry is turned on.
 Nuclear repulsion after empirical dispersion term =      781.6450788279 Hartrees.
 One-electron integrals computed using PRISM.
 NBasis=   385 RedAO= T EigKep=  1.10D-06  NBF=   285   100
 NBsUse=   379 1.00D-06 EigRej=  8.32D-07 NBFU=   279   100
 ExpMin= 3.60D-02 ExpMax= 4.56D+03 ExpMxC= 6.82D+02 IAcc=3 IRadAn=         5 AccDes= 0.00D+00
 Harris functional with IExCor= 1009 and IRadAn=       5 diagonalized for initial guess.
 HarFok:  IExCor= 1009 AccDes= 0.00D+00 IRadAn=         5 IDoV= 1 UseB2=F ITyADJ=14
 ICtDFT=  3500011 ScaDFX=  1.000000  1.000000  1.000000  1.000000
 FoFCou: FMM=F IPFlag=           0 FMFlag=      100000 FMFlg1=           0
         NFxFlg=           0 DoJE=T BraDBF=F KetDBF=T FulRan=T
         wScrn=  0.000000 ICntrl=       500 IOpCl=  0 I1Cent=   200000004 NGrid=           0
         NMat0=    1 NMatS0=      1 NMatT0=    0 NMatD0=    1 NMtDS0=    0 NMtDT0=    0
 Petite list used in FoFCou.
 Initial guess orbital symmetries:
       Occupied  (A') (A') (A') (A') (A') (A') (A') (A') (A') (A')
                 (A') (A') (A') (A') (A') (A') (A') (A') (A') (A')
                 (A') (A') (A') (A') (A') (A') (A') (A') (A') (A')
                 (A') (A') (A") (A') (A') (A') (A') (A') (A') (A")
                 (A") (A') (A') (A") (A") (A") (A")
       Virtual   (A") (A") (A") (A") (A") (A') (A') (A') (A') (A")
                 (A") (A') (A') (A') (A") (A') (A') (A') (A') (A")
                 (A') (A") (A') (A') (A') (A") (A') (A") (A') (A')
                 (A') (A') (A') (A") (A') (A') (A") (A') (A') (A")
                 (A') (A') (A') (A") (A') (A') (A') (A') (A') (A")
                 (A') (A') (A") (A") (A') (A') (A') (A") (A") (A')
                 (A') (A') (A') (A') (A') (A") (A') (A') (A') (A")
                 (A') (A') (A') (A') (A') (A') (A') (A') (A') (A')
                 (A') (A') (A') (A') (A') (A') (A') (A') (A') (A')
                 (A') (A') (A') (A') (A') (A') (A') (A") (A') (A")
                 (A') (A') (A") (A") (A') (A") (A") (A') (A') (A")
                 (A") (A') (A') (A') (A") (A') (A') (A") (A") (A')
                 (A") (A") (A') (A') (A') (A") (A') (A') (A') (A")
                 (A') (A') (A') (A') (A') (A') (A") (A') (A') (A')
                 (A') (A') (A') (A') (A') (A') (A') (A') (A') (A")
                 (A") (A') (A") (A") (A') (A') (A') (A") (A") (A')
                 (A") (A') (A") (A") (A") (A') (A') (A') (A') (A')
                 (A') (A") (A') (A") (A') (A') (A') (A') (A') (A")
                 (A') (A') (A') (A') (A") (A') (A") (A') (A") (A")
                 (A') (A") (A') (A") (A') (A') (A') (A") (A') (A')
                 (A") (A") (A") (A') (A') (A") (A') (A") (A') (A')
                 (A") (A") (A') (A") (A') (A") (A') (A') (A") (A')
                 (A') (A') (A') (A') (A") (A') (A') (A') (A") (A")
                 (A') (A') (A') (A") (A') (A') (A") (A') (A") (A')
                 (A") (A') (A') (A') (A') (A') (A") (A') (A') (A")
                 (A') (A') (A") (A') (A") (A') (A') (A") (A') (A')
                 (A') (A') (A") (A") (A') (A') (A') (A") (A") (A')
                 (A') (A') (A') (A') (A") (A') (A") (A') (A") (A')
                 (A") (A') (A") (A") (A") (A') (A') (A') (A') (A')
                 (A') (A') (A') (A') (A') (A') (A') (A') (A') (A')
                 (A') (A') (A') (A") (A') (A') (A') (A') (A') (A')
                 (A') (A') (A') (A') (A') (A') (A') (A') (A') (A')
                 (A') (A') (A') (A') (A') (A') (A') (A') (A') (A')
                 (A') (A')
 The electronic state of the initial guess is 1-A'.
 Requested convergence on RMS density matrix=1.00D-08 within 128 cycles.
 Requested convergence on MAX density matrix=1.00D-06.
 Requested convergence on             energy=1.00D-06.
 No special actions if energy rises.
 SCF Done:  E(RM062X) =  -539.759918702     A.U. after   15 cycles
            NFock= 15  Conv=0.46D-08     -V/T= 2.0041
 DoSCS=F DFT=T ScalE2(SS,OS)=  1.000000  1.000000
 ExpMin= 3.60D-02 ExpMax= 4.56D+03 ExpMxC= 6.82D+02 IAcc=3 IRadAn=         5 AccDes= 0.00D+00
 HarFok:  IExCor=  205 AccDes= 0.00D+00 IRadAn=         5 IDoV=-2 UseB2=F ITyADJ=14
 ICtDFT= 12500011 ScaDFX=  1.000000  1.000000  1.000000  1.000000
 Range of M.O.s used for correlation:    15   379
 NBasis=   385 NAE=    47 NBE=    47 NFC=    14 NFV=     0
 NROrb=    365 NOA=    33 NOB=    33 NVA=   332 NVB=   332

 **** Warning!!: The largest alpha MO coefficient is  0.15250975D+03

 Orbital symmetries:
       Occupied  (A') (A') (A') (A') (A') (A') (A') (A') (A') (A')
                 (A') (A') (A') (A') (A') (A') (A') (A') (A') (A')
                 (A') (A') (A') (A') (A') (A') (A') (A') (A') (A')
                 (A') (A') (A") (A') (A') (A') (A') (A") (A") (A')
                 (A') (A') (A') (A") (A") (A") (A")
       Virtual   (A") (A") (A") (A") (A') (A') (A') (A') (A") (A')
                 (A') (A") (A') (A') (A") (A') (A") (A') (A') (A')
                 (A") (A") (A') (A') (A') (A") (A') (A") (A') (A')
                 (A") (A') (A") (A') (A') (A') (A') (A') (A") (A')
                 (A") (A') (A') (A") (A") (A') (A") (A') (A") (A')
                 (A') (A') (A') (A') (A') (A") (A') (A') (A') (A')
                 (A') (A") (A') (A') (A') (A") (A') (A') (A') (A')
                 (A') (A') (A') (A') (A') (A') (A') (A') (A') (A')
                 (A') (A') (A') (A') (A') (A') (A') (A') (A') (A')
                 (A') (A') (A') (A') (A") (A') (A") (A") (A') (A")
                 (A') (A') (A') (A') (A") (A") (A') (A") (A") (A')
                 (A') (A') (A") (A') (A') (A") (A') (A") (A') (A")
                 (A") (A') (A") (A') (A') (A') (A") (A') (A') (A')
                 (A') (A') (A') (A') (A') (A') (A') (A') (A') (A')
                 (A') (A') (A') (A") (A') (A') (A') (A') (A') (A')
                 (A') (A') (A") (A') (A") (A') (A") (A") (A') (A")
                 (A") (A') (A') (A") (A") (A") (A') (A") (A') (A')
                 (A') (A') (A') (A") (A") (A') (A') (A') (A') (A")
                 (A') (A') (A') (A") (A') (A") (A') (A') (A") (A")
                 (A") (A') (A') (A") (A') (A") (A') (A') (A') (A')
                 (A") (A") (A") (A') (A") (A') (A') (A") (A') (A')
                 (A') (A") (A") (A') (A") (A") (A') (A') (A') (A")
                 (A') (A') (A') (A') (A") (A') (A') (A') (A") (A")
                 (A') (A') (A') (A") (A') (A') (A') (A") (A") (A')
                 (A") (A') (A') (A") (A') (A') (A') (A') (A') (A')
                 (A") (A') (A') (A') (A') (A") (A") (A") (A') (A')
                 (A') (A') (A') (A') (A') (A') (A") (A') (A') (A')
                 (A') (A") (A') (A") (A") (A") (A') (A") (A") (A')
                 (A') (A") (A") (A') (A") (A") (A') (A') (A') (A')
                 (A') (A') (A') (A') (A') (A') (A') (A') (A') (A')
                 (A') (A') (A') (A") (A') (A') (A') (A') (A') (A')
                 (A') (A') (A') (A') (A') (A') (A') (A') (A') (A')
                 (A') (A') (A') (A') (A') (A') (A') (A') (A') (A')
                 (A') (A')
     4 initial guesses have been made.
 Convergence on wavefunction:    0.001000000000000
 Iteration     1 Dimension     4 NMult     0 NNew      4
 CISAX will form     4 AO SS matrices at one time.
 Iteration     2 Dimension     6 NMult     4 NNew      2
 Iteration     3 Dimension     8 NMult     6 NNew      2
 Iteration     4 Dimension    10 NMult     8 NNew      2
 Iteration     5 Dimension    12 NMult    10 NNew      2
 Iteration     6 Dimension    14 NMult    12 NNew      2
 ***********************************************************************
 Excited states from <AA,BB:AA,BB> singles matrix:
 ***********************************************************************
 
 Ground to excited state transition densities written to RWF  633
 Ground to excited state transition electric dipole moments (Au):
       state          X           Y           Z        Dip. S.      Osc.
         1         0.0037     -0.6466      0.0000      0.4181      0.0289
 Ground to excited state transition velocity dipole moments (Au):
       state          X           Y           Z        Dip. S.      Osc.
         1         0.0004      0.0747      0.0000      0.0056      0.0359
 Ground to excited state transition magnetic dipole moments (Au):
       state          X           Y           Z
         1         0.0000      0.0000      0.0410
 Ground to excited state transition velocity quadrupole moments (Au):
       state          XX          YY          ZZ          XY          XZ          YZ
         1         0.2933      0.0339     -0.0098      0.0168      0.0000      0.0000
 <0|del|b> * <b|rxdel|0> + <0|del|b> * <b|delr+rdel|0>
 Rotatory Strengths (R) in cgs (10**-40 erg-esu-cm/Gauss)
       state          XX          YY          ZZ    R(velocity)    E-M Angle
         1        -0.0000      0.0000      0.0000      0.0000       90.00
 1/2[<0|r|b>*<b|rxdel|0> + (<0|rxdel|b>*<b|r|0>)*]
 Rotatory Strengths (R) in cgs (10**-40 erg-esu-cm/Gauss)
       state          XX          YY          ZZ     R(length)
         1        -0.0000      0.0000     -0.0000      0.0000
  1/2[<0|del|b>*<b|r|0> + (<0|r|b>*<b|del|0>)*] (Au)
       state          X           Y           Z        Dip. S.   Osc.(frdel)
         1         0.0000     -0.0483      0.0000      0.0483      0.0322

 Excitation energies and oscillator strengths:
 
 Excited State   1:      Singlet-A'     2.8182 eV  439.94 nm  f=0.0289  <S**2>=0.000
      47 -> 48         0.70422
 This state for optimization and/or second-order correction.
 Total Energy, E(TD-HF/TD-DFT) =  -539.656351346    
 Copying the excited state density for this state as the 1-particle RhoCI density.
 SavETr:  write IOETrn=   770 NScale= 10 NData=  16 NLR=1 NState=    1 LETran=      28.

 **********************************************************************

            Population analysis using the SCF Density.

 **********************************************************************

 Orbital symmetries:
       Occupied  (A') (A') (A') (A') (A') (A') (A') (A') (A') (A')
                 (A') (A') (A') (A') (A') (A') (A') (A') (A') (A')
                 (A') (A') (A') (A') (A') (A') (A') (A') (A') (A')
                 (A') (A') (A") (A') (A') (A') (A') (A") (A") (A')
                 (A') (A') (A') (A") (A") (A") (A")
       Virtual   (A") (A") (A") (A") (A') (A') (A') (A') (A") (A')
                 (A') (A") (A') (A') (A") (A') (A") (A') (A') (A')
                 (A") (A") (A') (A') (A') (A") (A') (A") (A') (A')
                 (A") (A') (A") (A') (A') (A') (A') (A') (A") (A')
                 (A") (A') (A') (A") (A") (A') (A") (A') (A") (A')
                 (A') (A') (A') (A') (A') (A") (A') (A') (A') (A')
                 (A') (A") (A') (A') (A') (A") (A') (A') (A') (A')
                 (A') (A') (A') (A') (A') (A') (A') (A') (A') (A')
                 (A') (A') (A') (A') (A') (A') (A') (A') (A') (A')
                 (A') (A') (A') (A') (A") (A') (A") (A") (A') (A")
                 (A') (A') (A') (A') (A") (A") (A') (A") (A") (A')
                 (A') (A') (A") (A') (A') (A") (A') (A") (A') (A")
                 (A") (A') (A") (A') (A') (A') (A") (A') (A') (A')
                 (A') (A') (A') (A') (A') (A') (A') (A') (A') (A')
                 (A') (A') (A') (A") (A') (A') (A') (A') (A') (A')
                 (A') (A') (A") (A') (A") (A') (A") (A") (A') (A")
                 (A") (A') (A') (A") (A") (A") (A') (A") (A') (A')
                 (A') (A') (A') (A") (A") (A') (A') (A') (A') (A")
                 (A') (A') (A') (A") (A') (A") (A') (A') (A") (A")
                 (A") (A') (A') (A") (A') (A") (A') (A') (A') (A')
                 (A") (A") (A") (A') (A") (A') (A') (A") (A') (A')
                 (A') (A") (A") (A') (A") (A") (A') (A') (A') (A")
                 (A') (A') (A') (A') (A") (A') (A') (A') (A") (A")
                 (A') (A') (A') (A") (A') (A') (A') (A") (A") (A')
                 (A") (A') (A') (A") (A') (A') (A') (A') (A') (A')
                 (A") (A') (A') (A') (A') (A") (A") (A") (A') (A')
                 (A') (A') (A') (A') (A') (A') (A") (A') (A') (A')
                 (A') (A") (A') (A") (A") (A") (A') (A") (A") (A')
                 (A') (A") (A") (A') (A") (A") (A') (A') (A') (A')
                 (A') (A') (A') (A') (A') (A') (A') (A') (A') (A')
                 (A') (A') (A') (A") (A') (A') (A') (A') (A') (A')
                 (A') (A') (A') (A') (A') (A') (A') (A') (A') (A')
                 (A') (A') (A') (A') (A') (A') (A') (A') (A') (A')
                 (A') (A')
 The electronic state is 1-A'.
 Alpha  occ. eigenvalues --  -10.77643 -10.73253 -10.73109 -10.72473 -10.72356
 Alpha  occ. eigenvalues --  -10.71431 -10.71293 -10.71143 -10.70950 -10.70886
 Alpha  occ. eigenvalues --  -10.70003 -10.69938 -10.69655 -10.69572  -1.16502
 Alpha  occ. eigenvalues --   -1.12504  -1.06944  -1.05827  -1.01314  -1.00257
 Alpha  occ. eigenvalues --   -0.95770  -0.91079  -0.86426  -0.85923  -0.83834
 Alpha  occ. eigenvalues --   -0.78408  -0.76084  -0.74423  -0.69539  -0.69262
 Alpha  occ. eigenvalues --   -0.68520  -0.68213  -0.68086  -0.64766  -0.64307
 Alpha  occ. eigenvalues --   -0.63143  -0.61868  -0.59960  -0.59684  -0.59080
 Alpha  occ. eigenvalues --   -0.56927  -0.55201  -0.54875  -0.52431  -0.46674
 Alpha  occ. eigenvalues --   -0.46059  -0.44452
 Alpha virt. eigenvalues --   -0.26066  -0.14675  -0.14095  -0.12769  -0.11183
 Alpha virt. eigenvalues --   -0.10094  -0.09230  -0.07983  -0.07958  -0.07478
 Alpha virt. eigenvalues --   -0.07211  -0.07150  -0.05640  -0.05585  -0.05337
 Alpha virt. eigenvalues --   -0.03827  -0.03648  -0.03281  -0.03129  -0.02162
 Alpha virt. eigenvalues --   -0.01372  -0.00932   0.00182   0.00593   0.00696
 Alpha virt. eigenvalues --    0.01058   0.01509   0.01932   0.02222   0.02268
 Alpha virt. eigenvalues --    0.02450   0.02675   0.02754   0.03236   0.03374
 Alpha virt. eigenvalues --    0.04236   0.04514   0.04689   0.05026   0.05364
 Alpha virt. eigenvalues --    0.06029   0.06305   0.06599   0.07062   0.07246
 Alpha virt. eigenvalues --    0.07896   0.08172   0.08375   0.08562   0.08928
 Alpha virt. eigenvalues --    0.09551   0.09564   0.10055   0.10899   0.11079
 Alpha virt. eigenvalues --    0.11107   0.12198   0.12250   0.12917   0.13019
 Alpha virt. eigenvalues --    0.13415   0.13520   0.14035   0.14370   0.16270
 Alpha virt. eigenvalues --    0.16279   0.16355   0.17350   0.17626   0.17792
 Alpha virt. eigenvalues --    0.18141   0.19043   0.19232   0.19661   0.19765
 Alpha virt. eigenvalues --    0.21594   0.21630   0.22732   0.23139   0.23586
 Alpha virt. eigenvalues --    0.23702   0.24527   0.25216   0.26926   0.27623
 Alpha virt. eigenvalues --    0.28878   0.29317   0.29911   0.31389   0.35888
 Alpha virt. eigenvalues --    0.36478   0.38179   0.39287   0.41169   0.41399
 Alpha virt. eigenvalues --    0.42024   0.42154   0.42981   0.43729   0.44302
 Alpha virt. eigenvalues --    0.44933   0.45045   0.46084   0.46210   0.47881
 Alpha virt. eigenvalues --    0.48534   0.48912   0.49003   0.50442   0.51305
 Alpha virt. eigenvalues --    0.51658   0.51769   0.52113   0.52958   0.53981
 Alpha virt. eigenvalues --    0.54085   0.54714   0.55681   0.55770   0.57304
 Alpha virt. eigenvalues --    0.58245   0.58822   0.61464   0.62145   0.62358
 Alpha virt. eigenvalues --    0.63239   0.63498   0.65071   0.65170   0.67422
 Alpha virt. eigenvalues --    0.70371   0.70543   0.71062   0.72442   0.72896
 Alpha virt. eigenvalues --    0.75755   0.76027   0.76326   0.76903   0.77106
 Alpha virt. eigenvalues --    0.77858   0.77941   0.78290   0.79853   0.80410
 Alpha virt. eigenvalues --    0.81294   0.81621   0.82132   0.83031   0.85238
 Alpha virt. eigenvalues --    0.87202   0.88253   0.88650   0.89108   0.90444
 Alpha virt. eigenvalues --    0.91181   0.91242   0.93198   0.94660   0.96492
 Alpha virt. eigenvalues --    0.96641   1.00357   1.01334   1.01673   1.02723
 Alpha virt. eigenvalues --    1.03209   1.03881   1.04746   1.05381   1.08817
 Alpha virt. eigenvalues --    1.19589   1.23238   1.24115   1.25318   1.28207
 Alpha virt. eigenvalues --    1.29625   1.31842   1.34209   1.35809   1.36016
 Alpha virt. eigenvalues --    1.39414   1.40188   1.40994   1.42921   1.43525
 Alpha virt. eigenvalues --    1.43554   1.45104   1.45531   1.46401   1.46692
 Alpha virt. eigenvalues --    1.47642   1.48072   1.51833   1.53631   1.55803
 Alpha virt. eigenvalues --    1.56118   1.56355   1.56559   1.57838   1.61528
 Alpha virt. eigenvalues --    1.63166   1.63501   1.63733   1.66166   1.68356
 Alpha virt. eigenvalues --    1.68397   1.68653   1.69696   1.74473   1.76027
 Alpha virt. eigenvalues --    1.77258   1.78046   1.80210   1.80221   1.80760
 Alpha virt. eigenvalues --    1.83198   1.83209   1.83692   1.83800   1.84120
 Alpha virt. eigenvalues --    1.84314   1.85845   1.86107   1.88252   1.91421
 Alpha virt. eigenvalues --    1.92135   1.94170   1.95261   1.97719   1.98202
 Alpha virt. eigenvalues --    1.99804   2.02768   2.04510   2.07265   2.11848
 Alpha virt. eigenvalues --    2.12128   2.14127   2.15215   2.19224   2.21418
 Alpha virt. eigenvalues --    2.22800   2.28484   2.30469   2.34765   2.35011
 Alpha virt. eigenvalues --    2.36227   2.38690   2.39599   2.42423   2.44234
 Alpha virt. eigenvalues --    2.46213   2.46942   2.49421   2.52972   2.53846
 Alpha virt. eigenvalues --    2.54484   2.56618   2.57860   2.58299   2.59670
 Alpha virt. eigenvalues --    2.59837   2.61642   2.62187   2.63583   2.63873
 Alpha virt. eigenvalues --    2.64799   2.65168   2.65229   2.65384   2.68177
 Alpha virt. eigenvalues --    2.68699   2.70992   2.71425   2.73363   2.74842
 Alpha virt. eigenvalues --    2.76302   2.79107   2.79778   2.83098   2.83118
 Alpha virt. eigenvalues --    2.84941   2.86412   2.92165   2.96952   2.99547
 Alpha virt. eigenvalues --    3.00120   3.05590   3.11300   3.11661   3.13191
 Alpha virt. eigenvalues --    3.21280   3.24473   3.26924   3.28348   3.30827
 Alpha virt. eigenvalues --    3.32804   3.33688   3.43426   3.45929   3.46924
 Alpha virt. eigenvalues --    3.48814   3.50352   3.56704   3.64809   3.67205
 Alpha virt. eigenvalues --    3.67516   3.94186   3.94586   3.95127   3.96287
 Alpha virt. eigenvalues --    4.04047   4.06983   4.07656   4.12528   4.35858
 Alpha virt. eigenvalues --    4.62031   4.69969   4.71712  23.45323  23.60673
 Alpha virt. eigenvalues --   23.82351  23.86055  23.88074  23.89426  23.90446
 Alpha virt. eigenvalues --   23.92504  23.98010  23.99430  24.00003  24.00807
 Alpha virt. eigenvalues --   24.10634  24.10795
          Condensed to atoms (all electrons):
               1          2          3          4          5          6
     1  C    8.545553   0.405580  -0.559808   1.861717   0.000058  -0.095736
     2  C    0.405580   7.046440   0.367881  -1.010579  -0.027773  -0.015093
     3  C   -0.559808   0.367881   6.580711   0.739761  -0.120212   0.016953
     4  C    1.861717  -1.010579   0.739761  10.685367  -0.280692  -0.116852
     5  C    0.000058  -0.027773  -0.120212  -0.280692  10.788734   0.725720
     6  C   -0.095736  -0.015093   0.016953  -0.116852   0.725720   6.584982
     7  C   -0.025187   0.004356  -0.015414  -0.034523  -0.982614   0.390490
     8  C    0.406078  -0.029430  -0.092538   0.009295   1.786274  -0.592813
     9  C   -1.294617  -0.757535   0.281755  -0.320478  -0.258220   0.282317
    10  C   -1.228698   0.240592  -0.372124  -2.510187  -2.563560  -0.347924
    11  C    0.220356  -0.970219   1.044945  -0.214397  -1.503891  -0.188421
    12  C   -1.810825   1.310672  -1.361641  -1.401375  -0.334520  -0.189996
    13  C    0.135230  -0.242644  -0.172197  -1.480469  -0.206844   1.011118
    14  C   -1.051915  -0.195978  -0.212337  -0.296995  -1.397408  -1.339913
    15  H    0.363640  -0.101656  -0.001925   0.026277   0.005983   0.001077
    16  H   -0.019714   0.376632  -0.014748   0.013247  -0.001541  -0.000324
    17  H   -0.022713  -0.016321   0.373271  -0.065711   0.000333   0.000389
    18  H    0.048424   0.002912  -0.085433   0.450807   0.008087  -0.004932
    19  H   -0.047367  -0.007346   0.050491  -0.069186  -0.071800   0.050422
    20  H    0.007668   0.001919  -0.004891   0.008128   0.452273  -0.085456
    21  H   -0.001347  -0.000393   0.000393   0.000271  -0.066111   0.375003
    22  H    0.000732   0.000361  -0.000332  -0.001580   0.014295  -0.016182
    23  H    0.005845  -0.002785   0.001116   0.006199   0.025549  -0.002483
    24  H    0.030400   0.013954  -0.001458  -0.012513  -0.012261  -0.001391
    25  H    0.030400   0.013954  -0.001458  -0.012513  -0.012261  -0.001391
               7          8          9         10         11         12
     1  C   -0.025187   0.406078  -1.294617  -1.228698   0.220356  -1.810825
     2  C    0.004356  -0.029430  -0.757535   0.240592  -0.970219   1.310672
     3  C   -0.015414  -0.092538   0.281755  -0.372124   1.044945  -1.361641
     4  C   -0.034523   0.009295  -0.320478  -2.510187  -0.214397  -1.401375
     5  C   -0.982614   1.786274  -0.258220  -2.563560  -1.503891  -0.334520
     6  C    0.390490  -0.592813   0.282317  -0.347924  -0.188421  -0.189996
     7  C    7.049103   0.471961  -0.769438   0.213684  -0.231430  -0.224643
     8  C    0.471961   8.480300  -1.300641  -1.199745   0.131608  -1.072624
     9  C   -0.769438  -1.300641   9.680498   0.248654   1.804576  -1.993257
    10  C    0.213684  -1.199745   0.248654   9.294538  -0.620448   2.436596
    11  C   -0.231430   0.131608   1.804576  -0.620448  14.720488  -3.813970
    12  C   -0.224643  -1.072624  -1.993257   2.436596  -3.813970  16.012253
    13  C   -0.941313   0.221237   1.827818  -0.591949   1.089336  -4.889417
    14  C    1.219017  -1.709131  -2.045409   2.422154  -4.877802   2.893351
    15  H   -0.002713   0.006099   0.092672  -0.009840  -0.029725  -0.025676
    16  H    0.000350   0.000639   0.005039  -0.009950   0.030782  -0.037086
    17  H   -0.000400  -0.001323  -0.006157   0.020955  -0.029119   0.090892
    18  H    0.001918   0.007619  -0.026076   0.018868  -0.010904  -0.051167
    19  H   -0.007496  -0.046481   0.076815   0.422386   0.078114  -0.061791
    20  H    0.003002   0.047512  -0.025596   0.017978  -0.011604  -0.012445
    21  H   -0.018201  -0.021004  -0.005898   0.020765  -0.006392   0.005232
    22  H    0.377779  -0.020059   0.004789  -0.010261   0.003261  -0.009349
    23  H   -0.101355   0.363323   0.091491  -0.009310   0.000732   0.006936
    24  H    0.014374   0.031903   0.358590   0.005716   0.011423  -0.059443
    25  H    0.014374   0.031903   0.358590   0.005716   0.011423  -0.059443
              13         14         15         16         17         18
     1  C    0.135230  -1.051915   0.363640  -0.019714  -0.022713   0.048424
     2  C   -0.242644  -0.195978  -0.101656   0.376632  -0.016321   0.002912
     3  C   -0.172197  -0.212337  -0.001925  -0.014748   0.373271  -0.085433
     4  C   -1.480469  -0.296995   0.026277   0.013247  -0.065711   0.450807
     5  C   -0.206844  -1.397408   0.005983  -0.001541   0.000333   0.008087
     6  C    1.011118  -1.339913   0.001077  -0.000324   0.000389  -0.004932
     7  C   -0.941313   1.219017  -0.002713   0.000350  -0.000400   0.001918
     8  C    0.221237  -1.709131   0.006099   0.000639  -0.001323   0.007619
     9  C    1.827818  -2.045409   0.092672   0.005039  -0.006157  -0.026076
    10  C   -0.591949   2.422154  -0.009840  -0.009950   0.020955   0.018868
    11  C    1.089336  -4.877802  -0.029725   0.030782  -0.029119  -0.010904
    12  C   -4.889417   2.893351  -0.025676  -0.037086   0.090892  -0.051167
    13  C   14.732474  -3.903768   0.002138   0.003158  -0.006404  -0.011597
    14  C   -3.903768  16.047433   0.006662  -0.008987   0.005289  -0.010649
    15  H    0.002138   0.006662   0.438877  -0.008901   0.001428   0.000207
    16  H    0.003158  -0.008987  -0.008901   0.419531  -0.006574   0.001893
    17  H   -0.006404   0.005289   0.001428  -0.006574   0.422761  -0.010118
    18  H   -0.011597  -0.010649   0.000207   0.001893  -0.010118   0.453341
    19  H    0.076909  -0.067787   0.000270  -0.000515   0.001349  -0.006115
    20  H   -0.011713  -0.048608  -0.000108   0.000013  -0.000137   0.001305
    21  H   -0.028588   0.089030   0.000012  -0.000007   0.000010  -0.000144
    22  H    0.030587  -0.036623  -0.000126   0.000007  -0.000007   0.000015
    23  H   -0.029113  -0.022447   0.000623  -0.000125   0.000013  -0.000112
    24  H    0.014720  -0.059188  -0.000873   0.000626  -0.000141   0.000175
    25  H    0.014720  -0.059188  -0.000873   0.000626  -0.000141   0.000175
              19         20         21         22         23         24
     1  C   -0.047367   0.007668  -0.001347   0.000732   0.005845   0.030400
     2  C   -0.007346   0.001919  -0.000393   0.000361  -0.002785   0.013954
     3  C    0.050491  -0.004891   0.000393  -0.000332   0.001116  -0.001458
     4  C   -0.069186   0.008128   0.000271  -0.001580   0.006199  -0.012513
     5  C   -0.071800   0.452273  -0.066111   0.014295   0.025549  -0.012261
     6  C    0.050422  -0.085456   0.375003  -0.016182  -0.002483  -0.001391
     7  C   -0.007496   0.003002  -0.018201   0.377779  -0.101355   0.014374
     8  C   -0.046481   0.047512  -0.021004  -0.020059   0.363323   0.031903
     9  C    0.076815  -0.025596  -0.005898   0.004789   0.091491   0.358590
    10  C    0.422386   0.017978   0.020765  -0.010261  -0.009310   0.005716
    11  C    0.078114  -0.011604  -0.006392   0.003261   0.000732   0.011423
    12  C   -0.061791  -0.012445   0.005232  -0.009349   0.006936  -0.059443
    13  C    0.076909  -0.011713  -0.028588   0.030587  -0.029113   0.014720
    14  C   -0.067787  -0.048608   0.089030  -0.036623  -0.022447  -0.059188
    15  H    0.000270  -0.000108   0.000012  -0.000126   0.000623  -0.000873
    16  H   -0.000515   0.000013  -0.000007   0.000007  -0.000125   0.000626
    17  H    0.001349  -0.000137   0.000010  -0.000007   0.000013  -0.000141
    18  H   -0.006115   0.001305  -0.000144   0.000015  -0.000112   0.000175
    19  H    0.442507  -0.005968   0.001432  -0.000533   0.000300   0.000636
    20  H   -0.005968   0.451842  -0.010053   0.001905   0.000231   0.000163
    21  H    0.001432  -0.010053   0.422026  -0.006721   0.001486  -0.000139
    22  H   -0.000533   0.001905  -0.006721   0.418634  -0.008894   0.000624
    23  H    0.000300   0.000231   0.001486  -0.008894   0.437442  -0.000878
    24  H    0.000636   0.000163  -0.000139   0.000624  -0.000878   0.495313
    25  H    0.000636   0.000163  -0.000139   0.000624  -0.000878  -0.081469
              25
     1  C    0.030400
     2  C    0.013954
     3  C   -0.001458
     4  C   -0.012513
     5  C   -0.012261
     6  C   -0.001391
     7  C    0.014374
     8  C    0.031903
     9  C    0.358590
    10  C    0.005716
    11  C    0.011423
    12  C   -0.059443
    13  C    0.014720
    14  C   -0.059188
    15  H   -0.000873
    16  H    0.000626
    17  H   -0.000141
    18  H    0.000175
    19  H    0.000636
    20  H    0.000163
    21  H   -0.000139
    22  H    0.000624
    23  H   -0.000878
    24  H   -0.081469
    25  H    0.495313
 Mulliken charges:
               1
     1  C    0.096244
     2  C   -0.407501
     3  C   -0.440760
     4  C    0.026981
     5  C    0.032402
     6  C   -0.439564
     7  C   -0.405682
     8  C    0.090038
     9  C   -0.310282
    10  C    0.105393
    11  C   -0.638721
    12  C    0.652739
    13  C   -0.643430
    14  C    0.661196
    15  H    0.236449
    16  H    0.255928
    17  H    0.248575
    18  H    0.221502
    19  H    0.190117
    20  H    0.222477
    21  H    0.249476
    22  H    0.257054
    23  H    0.237093
    24  H    0.251138
    25  H    0.251138
 Sum of Mulliken charges =   1.00000
 Mulliken charges with hydrogens summed into heavy atoms:
               1
     1  C    0.332693
     2  C   -0.151573
     3  C   -0.192185
     4  C    0.248483
     5  C    0.254879
     6  C   -0.190088
     7  C   -0.148628
     8  C    0.327131
     9  C    0.191994
    10  C    0.295510
    11  C   -0.638721
    12  C    0.652739
    13  C   -0.643430
    14  C    0.661196
 Electronic spatial extent (au):  <R**2>=           2852.8932
 Charge=              1.0000 electrons
 Dipole moment (field-independent basis, Debye):
    X=             -0.1392    Y=              0.1797    Z=              0.0000  Tot=              0.2273
 Quadrupole moment (field-independent basis, Debye-Ang):
   XX=            -31.1677   YY=            -56.2474   ZZ=            -84.1396
   XY=             -0.1767   XZ=              0.0000   YZ=             -0.0000
 Traceless Quadrupole moment (field-independent basis, Debye-Ang):
   XX=             26.0172   YY=              0.9375   ZZ=            -26.9547
   XY=             -0.1767   XZ=              0.0000   YZ=             -0.0000
 Octapole moment (field-independent basis, Debye-Ang**2):
  XXX=             -1.5181  YYY=              5.1212  ZZZ=              0.0000  XYY=             -0.2854
  XXY=             -5.1643  XXZ=             -0.0000  XZZ=             -0.2161  YZZ=             -3.0482
  YYZ=              0.0000  XYZ=              0.0000
 Hexadecapole moment (field-independent basis, Debye-Ang**3):
 XXXX=          -2121.4280 YYYY=           -608.2737 ZZZZ=            -99.3047 XXXY=              3.1315
 XXXZ=             -0.0000 YYYX=              4.8910 YYYZ=             -0.0000 ZZZX=             -0.0000
 ZZZY=             -0.0000 XXYY=           -507.0740 XXZZ=           -590.0725 YYZZ=           -145.6118
 XXYZ=             -0.0000 YYXZ=             -0.0000 ZZXY=              2.3855
 N-N= 7.816450788279D+02 E-N=-2.799647323008D+03  KE= 5.375300320852D+02
 Symmetry A'   KE= 5.228826823597D+02
 Symmetry A"   KE= 1.464734972551D+01
 Unable to Open any file for archive entry.
 1\1\GINC-GADI-CPU-CLX-1762\SP\RM062X TD-FC\6-311++G(d,p)\C14H11(1+)\TS
 1578\02-Aug-2022\0\\#n M062X/6-311++G(d,p) TD(NStates=1) EmpiricalDisp
 ersion=GD3 SP\\SP_-125\\1,1\C,0,2.491805,1.361631,0.\C,0,3.703483,0.67
 4539,0.\C,0,3.683661,-0.70848,0.\C,0,2.459031,-1.404813,0.\C,0,-2.4668
 31,-1.409363,0.\C,0,-3.681361,-0.71468,0.\C,0,-3.695258,0.671014,0.\C,
 0,-2.484955,1.361931,0.\C,0,0.0023,1.443469,0.\C,0,-0.0061,-1.428739,0
 .\C,0,1.260805,0.67504,0.\C,0,1.235871,-0.731179,0.\C,0,-1.26263,0.678
 865,0.\C,0,-1.240871,-0.731779,0.\H,0,2.484171,2.444997,0.\H,0,4.63832
 8,1.214814,0.\H,0,4.607862,-1.269649,0.\H,0,2.4664,-2.487509,0.\H,0,-0
 .005625,-2.510041,0.\H,0,-2.47005,-2.491934,0.\H,0,-4.609312,-1.269424
 ,0.\H,0,-4.630003,1.211939,0.\H,0,-2.482071,2.445222,0.\H,0,0.008,2.14
 3537,-0.85711\H,0,0.008,2.143537,0.85711\\Version=ES64L-G16RevC.01\Sta
 te=1-A'\HF=-539.7599187\RMSD=4.612e-09\PG=CS [SG(C14H9),X(H2)]\\@
 The archive entry for this job was punched.


 HERE WE GO......
 SLIDING DOWN THE RAZOR BLADE OF LIFE......
                                 TOM LEHRER
 Job cpu time:       0 days  0 hours 52 minutes  5.1 seconds.
 Elapsed time:       0 days  0 hours  1 minutes  5.2 seconds.
 File lengths (MBytes):  RWF=    460 Int=      0 D2E=      0 Chk=     15 Scr=      1
 Normal termination of Gaussian 16 at Tue Aug  2 10:50:02 2022.
