 Entering Gaussian System, Link 0=g16
 Initial command:
 /apps/gaussian/g16c01/g16/l1.exe "/jobfs/53796104.gadi-pbs/Gau-3628192.inp" -scrdir="/jobfs/53796104.gadi-pbs/"
 Entering Link 1 = /apps/gaussian/g16c01/g16/l1.exe PID=   3628193.
  
 Copyright (c) 1988-2019, Gaussian, Inc.  All Rights Reserved.
  
 This is part of the Gaussian(R) 16 program.  It is based on
 the Gaussian(R) 09 system (copyright 2009, Gaussian, Inc.),
 the Gaussian(R) 03 system (copyright 2003, Gaussian, Inc.),
 the Gaussian(R) 98 system (copyright 1998, Gaussian, Inc.),
 the Gaussian(R) 94 system (copyright 1995, Gaussian, Inc.),
 the Gaussian 92(TM) system (copyright 1992, Gaussian, Inc.),
 the Gaussian 90(TM) system (copyright 1990, Gaussian, Inc.),
 the Gaussian 88(TM) system (copyright 1988, Gaussian, Inc.),
 the Gaussian 86(TM) system (copyright 1986, Carnegie Mellon
 University), and the Gaussian 82(TM) system (copyright 1983,
 Carnegie Mellon University). Gaussian is a federally registered
 trademark of Gaussian, Inc.
  
 This software contains proprietary and confidential information,
 including trade secrets, belonging to Gaussian, Inc.
  
 This software is provided under written license and may be
 used, copied, transmitted, or stored only in accord with that
 written license.
  
 The following legend is applicable only to US Government
 contracts under FAR:
  
                    RESTRICTED RIGHTS LEGEND
  
 Use, reproduction and disclosure by the US Government is
 subject to restrictions as set forth in subparagraphs (a)
 and (c) of the Commercial Computer Software - Restricted
 Rights clause in FAR 52.227-19.
  
 Gaussian, Inc.
 340 Quinnipiac St., Bldg. 40, Wallingford CT 06492
  
  
 ---------------------------------------------------------------
 Warning -- This program may not be used in any manner that
 competes with the business of Gaussian, Inc. or will provide
 assistance to any competitor of Gaussian, Inc.  The licensee
 of this program is prohibited from giving any competitor of
 Gaussian, Inc. access to this program.  By using this program,
 the user acknowledges that Gaussian, Inc. is engaged in the
 business of creating and licensing software in the field of
 computational chemistry and represents and warrants to the
 licensee that it is not a competitor of Gaussian, Inc. and that
 it will not use this program in any manner prohibited above.
 ---------------------------------------------------------------
  

 Cite this work as:
 Gaussian 16, Revision C.01,
 M. J. Frisch, G. W. Trucks, H. B. Schlegel, G. E. Scuseria, 
 M. A. Robb, J. R. Cheeseman, G. Scalmani, V. Barone, 
 G. A. Petersson, H. Nakatsuji, X. Li, M. Caricato, A. V. Marenich, 
 J. Bloino, B. G. Janesko, R. Gomperts, B. Mennucci, H. P. Hratchian, 
 J. V. Ortiz, A. F. Izmaylov, J. L. Sonnenberg, D. Williams-Young, 
 F. Ding, F. Lipparini, F. Egidi, J. Goings, B. Peng, A. Petrone, 
 T. Henderson, D. Ranasinghe, V. G. Zakrzewski, J. Gao, N. Rega, 
 G. Zheng, W. Liang, M. Hada, M. Ehara, K. Toyota, R. Fukuda, 
 J. Hasegawa, M. Ishida, T. Nakajima, Y. Honda, O. Kitao, H. Nakai, 
 T. Vreven, K. Throssell, J. A. Montgomery, Jr., J. E. Peralta, 
 F. Ogliaro, M. J. Bearpark, J. J. Heyd, E. N. Brothers, K. N. Kudin, 
 V. N. Staroverov, T. A. Keith, R. Kobayashi, J. Normand, 
 K. Raghavachari, A. P. Rendell, J. C. Burant, S. S. Iyengar, 
 J. Tomasi, M. Cossi, J. M. Millam, M. Klene, C. Adamo, R. Cammi, 
 J. W. Ochterski, R. L. Martin, K. Morokuma, O. Farkas, 
 J. B. Foresman, and D. J. Fox, Gaussian, Inc., Wallingford CT, 2019.
 
 ******************************************
 Gaussian 16:  ES64L-G16RevC.01  3-Jul-2019
                 2-Aug-2022 
 ******************************************
 %NProcShared=48
 Will use up to   48 processors via shared memory.
 %mem = 190GB
 ---------------------------------------------------------------
 #n M062X/6-311++G(d,p) TD(NStates=1) EmpiricalDispersion=GD3 SP
 ---------------------------------------------------------------
 1/38=1,172=1/1;
 2/12=2,17=6,18=5,40=1/2;
 3/5=4,6=6,7=1111,11=9,25=1,30=1,74=-55,124=31/1,2,3,8;
 4//1;
 5/5=2,38=5/2;
 8/6=1,10=2,108=1/1;
 9/41=1,42=1,70=2/14;
 6/7=2,8=2,9=2,10=2/1;
 99/5=1,9=1/99;
 ------
 SP_-25
 ------
 Symbolic Z-matrix:
 Charge =  1 Multiplicity = 1
 C                     2.51511   1.35893   0. 
 C                     3.72713   0.68221   0. 
 C                     3.69136  -0.69623   0. 
 C                     2.43986  -1.39409   0. 
 C                    -2.48666  -1.42139   0. 
 C                    -3.67756  -0.73343   0. 
 C                    -3.67778   0.66106   0. 
 C                    -2.47401   1.36073   0. 
 C                     0.01308   1.45777   0. 
 C                    -0.0366   -1.42939   0. 
 C                     1.25673   0.66564   0. 
 C                     1.22207  -0.7287    0. 
 C                    -1.26768   0.68859   0. 
 C                    -1.25207  -0.7323    0. 
 H                     2.49657   2.44232   0. 
 H                     4.66288   1.21956   0. 
 H                     4.60521  -1.27427   0. 
 H                     2.4563   -2.47693   0. 
 H                    -0.03375  -2.51037   0. 
 H                    -2.4782   -2.50348   0. 
 H                    -4.61391  -1.27292   0. 
 H                    -4.61293   1.20231   0. 
 H                    -2.48397   2.44367   0. 
 H                     0.048     2.14679  -0.86069 
 H                     0.048     2.14679   0.86069 
 
                          Input orientation:                          
 ---------------------------------------------------------------------
 Center     Atomic      Atomic             Coordinates (Angstroms)
 Number     Number       Type             X           Y           Z
 ---------------------------------------------------------------------
      1          6           0        2.515105    1.358931    0.000000
      2          6           0        3.727133    0.682214    0.000000
      3          6           0        3.691361   -0.696230    0.000000
      4          6           0        2.439856   -1.394088    0.000000
      5          6           0       -2.486656   -1.421388    0.000000
      6          6           0       -3.677561   -0.733430    0.000000
      7          6           0       -3.677783    0.661064    0.000000
      8          6           0       -2.474005    1.360731    0.000000
      9          6           0        0.013075    1.457769    0.000000
     10          6           0       -0.036600   -1.429389    0.000000
     11          6           0        1.256730    0.665640    0.000000
     12          6           0        1.222071   -0.728704    0.000000
     13          6           0       -1.267680    0.688590    0.000000
     14          6           0       -1.252071   -0.732304    0.000000
     15          1           0        2.496571    2.442322    0.000000
     16          1           0        4.662878    1.219564    0.000000
     17          1           0        4.605212   -1.274274    0.000000
     18          1           0        2.456300   -2.476934    0.000000
     19          1           0       -0.033750   -2.510366    0.000000
     20          1           0       -2.478200   -2.503484    0.000000
     21          1           0       -4.613912   -1.272924    0.000000
     22          1           0       -4.612928    1.202314    0.000000
     23          1           0       -2.483971    2.443672    0.000000
     24          1           0        0.048000    2.146787   -0.860685
     25          1           0        0.048000    2.146787    0.860685
 ---------------------------------------------------------------------
                    Distance matrix (angstroms):
                    1          2          3          4          5
     1  C    0.000000
     2  C    1.388149   0.000000
     3  C    2.367966   1.378908   0.000000
     4  C    2.754047   2.442972   1.432924   0.000000
     5  C    5.722568   6.560207   6.220430   4.926588   0.000000
     6  C    6.536596   7.538802   7.369016   6.152988   1.375333
     7  C    6.232085   7.404946   7.493099   6.453616   2.399039
     8  C    4.989110   6.238149   6.499448   5.633388   2.782148
     9  C    2.503981   3.794168   4.262570   3.744643   3.812899
    10  C    3.779673   4.315617   3.799370   2.476708   2.450069
    11  C    1.436719   2.470459   2.789645   2.375346   4.285863
    12  C    2.455638   2.875070   2.469504   1.387709   3.772859
    13  C    3.841721   4.994817   5.148768   4.252455   2.436783
    14  C    4.308698   5.176228   4.943564   3.750771   1.413873
    15  H    1.083550   2.147618   3.358278   3.836829   6.305617
    16  H    2.152290   1.079057   2.148048   3.431181   7.621710
    17  H    3.361892   2.144497   1.081323   2.168668   7.093394
    18  H    3.836316   3.405177   2.167091   1.082971   5.054403
    19  H    4.633370   4.933235   4.143373   2.713817   2.683770
    20  H    6.312792   6.975301   6.428814   5.041630   1.082129
    21  H    7.599312   8.567123   8.325271   7.054809   2.132430
    22  H    7.129753   8.356262   8.518549   7.515522   3.377106
    23  H    5.115410   6.456047   6.927749   6.242794   3.865061
    24  H    2.729121   4.052379   4.700809   4.358847   4.460620
    25  H    2.729121   4.052379   4.700809   4.358847   4.460620
                    6          7          8          9         10
     6  C    0.000000
     7  C    1.394494   0.000000
     8  C    2.415379   1.392342   0.000000
     9  C    4.292103   3.775867   2.488972   0.000000
    10  C    3.706880   4.198596   3.704823   2.887585   0.000000
    11  C    5.128803   4.934515   3.794935   1.474499   2.462082
    12  C    4.899634   5.093135   4.245788   2.498467   1.440560
    13  C    2.798154   2.410260   1.380939   1.493978   2.449774
    14  C    2.425490   2.797419   2.423617   2.529232   1.401177
    15  H    6.943004   6.426160   5.086891   2.671535   4.626781
    16  H    8.566044   8.359339   7.138279   4.655901   5.394631
    17  H    8.300412   8.506088   7.553712   5.343387   4.644403
    18  H    6.376838   6.890138   6.247846   4.631548   2.704053
    19  H    4.053993   4.830833   4.576050   3.968411   1.080981
    20  H    2.138120   3.384282   3.864217   4.679527   2.667413
    21  H    1.080651   2.148638   3.393426   5.372680   4.579985
    22  H    2.149887   1.080485   2.144781   4.633051   5.279076
    23  H    3.393911   2.145432   1.082987   2.684631   4.581509
    24  H    4.787090   4.102391   2.778340   1.103061   3.679262
    25  H    4.787090   4.102391   2.778340   1.103061   3.679262
                   11         12         13         14         15
    11  C    0.000000
    12  C    1.394775   0.000000
    13  C    2.524514   2.864888   0.000000
    14  C    2.871991   2.474145   1.420980   0.000000
    15  H    2.166519   3.417566   4.152729   4.912287   0.000000
    16  H    3.450895   3.954099   5.954280   6.228676   2.487574
    17  H    3.869832   3.426848   6.192229   5.882304   4.273108
    18  H    3.363739   2.140007   4.887593   4.098262   4.919421
    19  H    3.428170   2.179772   3.428688   2.155414   5.561622
    20  H    4.898270   4.103882   3.413897   2.154175   7.014937
    21  H    6.182432   5.861303   3.878763   3.405032   8.022594
    22  H    5.894141   6.146222   3.384464   3.877900   7.216827
    23  H    4.141768   4.878393   2.135340   3.406523   4.980542
    24  H    2.096569   3.222991   2.144325   3.274161   2.612206
    25  H    2.096569   3.222991   2.144325   3.274161   2.612206
                   16         17         18         19         20
    16  H    0.000000
    17  H    2.494505   0.000000
    18  H    4.305007   2.462562   0.000000
    19  H    5.997557   4.800822   2.490274   0.000000
    20  H    8.053327   7.189276   4.934571   2.444460   0.000000
    21  H    9.605797   9.219124   7.171997   4.744381   2.464862
    22  H    9.275822   9.545030   7.969370   5.895156   4.276681
    23  H    7.250923   8.004976   6.972707   5.526850   4.947159
    24  H    4.785146   5.763039   5.283889   4.736722   5.361668
    25  H    4.785146   5.763039   5.283889   4.736722   5.361668
                   21         22         23         24         25
    21  H    0.000000
    22  H    2.475238   0.000000
    23  H    4.283659   2.464433   0.000000
    24  H    5.845394   4.832914   2.690687   0.000000
    25  H    5.845394   4.832914   2.690687   1.721370   0.000000
 Stoichiometry    C14H11(1+)
 Framework group  CS[SG(C14H9),X(H2)]
 Deg. of freedom    46
 Full point group                 CS      NOp   2
 Largest Abelian subgroup         CS      NOp   2
 Largest concise Abelian subgroup CS      NOp   2
                         Standard orientation:                         
 ---------------------------------------------------------------------
 Center     Atomic      Atomic             Coordinates (Angstroms)
 Number     Number       Type             X           Y           Z
 ---------------------------------------------------------------------
      1          6           0        0.023405    2.858172    0.000000
      2          6           0       -1.142045    3.612283    0.000000
      3          6           0       -2.343306    2.935260    0.000000
      4          6           0       -2.373963    1.502664    0.000000
      5          6           0       -0.091398   -2.863245    0.000000
      6          6           0        1.074095   -3.593428    0.000000
      7          6           0        2.306391   -2.940695    0.000000
      8          6           0        2.360993   -1.549424    0.000000
      9          6           0        1.282238    0.693625    0.000000
     10          6           0       -1.245631   -0.702091    0.000000
     11          6           0        0.000000    1.421644    0.000000
     12          6           0       -1.215832    0.738160    0.000000
     13          6           0        1.202256   -0.798210    0.000000
     14          6           0       -0.060572   -1.449708    0.000000
     15          1           0        0.989381    3.349059    0.000000
     16          1           0       -1.105370    4.690716    0.000000
     17          1           0       -3.281956    3.472099    0.000000
     18          1           0       -3.338479    1.010185    0.000000
     19          1           0       -2.202130   -1.205707    0.000000
     20          1           0       -1.051511   -3.362431    0.000000
     21          1           0        1.035809   -4.673401    0.000000
     22          1           0        3.222499   -3.513577    0.000000
     23          1           0        3.322559   -1.051177    0.000000
     24          1           0        1.874710    1.047097    0.860685
     25          1           0        1.874710    1.047097   -0.860685
 ---------------------------------------------------------------------
 Rotational constants (GHZ):           2.1350212           0.4443665           0.3686140
 Standard basis: 6-311++G(d,p) (5D, 7F)
 There are   299 symmetry adapted cartesian basis functions of A'  symmetry.
 There are   100 symmetry adapted cartesian basis functions of A"  symmetry.
 There are   285 symmetry adapted basis functions of A'  symmetry.
 There are   100 symmetry adapted basis functions of A"  symmetry.
   385 basis functions,   603 primitive gaussians,   399 cartesian basis functions
    47 alpha electrons       47 beta electrons
       nuclear repulsion energy       781.0290939430 Hartrees.
 NAtoms=   25 NActive=   25 NUniq=   24 SFac= 1.09D+00 NAtFMM=   60 NAOKFM=F Big=F
 Integral buffers will be    131072 words long.
 Regular integral format.
 Two-electron integral symmetry is turned on.
 Nuclear repulsion after empirical dispersion term =      781.0281146314 Hartrees.
 One-electron integrals computed using PRISM.
 NBasis=   385 RedAO= T EigKep=  1.13D-06  NBF=   285   100
 NBsUse=   379 1.00D-06 EigRej=  8.40D-07 NBFU=   279   100
 ExpMin= 3.60D-02 ExpMax= 4.56D+03 ExpMxC= 6.82D+02 IAcc=3 IRadAn=         5 AccDes= 0.00D+00
 Harris functional with IExCor= 1009 and IRadAn=       5 diagonalized for initial guess.
 HarFok:  IExCor= 1009 AccDes= 0.00D+00 IRadAn=         5 IDoV= 1 UseB2=F ITyADJ=14
 ICtDFT=  3500011 ScaDFX=  1.000000  1.000000  1.000000  1.000000
 FoFCou: FMM=F IPFlag=           0 FMFlag=      100000 FMFlg1=           0
         NFxFlg=           0 DoJE=T BraDBF=F KetDBF=T FulRan=T
         wScrn=  0.000000 ICntrl=       500 IOpCl=  0 I1Cent=   200000004 NGrid=           0
         NMat0=    1 NMatS0=      1 NMatT0=    0 NMatD0=    1 NMtDS0=    0 NMtDT0=    0
 Petite list used in FoFCou.
 Initial guess orbital symmetries:
       Occupied  (A') (A') (A') (A') (A') (A') (A') (A') (A') (A')
                 (A') (A') (A') (A') (A') (A') (A') (A') (A') (A')
                 (A') (A') (A') (A') (A') (A') (A') (A') (A') (A')
                 (A') (A') (A") (A') (A') (A') (A') (A') (A") (A')
                 (A") (A') (A') (A") (A") (A") (A")
       Virtual   (A") (A") (A") (A") (A") (A') (A') (A') (A') (A")
                 (A") (A') (A') (A') (A") (A') (A') (A') (A') (A")
                 (A') (A") (A') (A') (A') (A") (A') (A") (A') (A')
                 (A') (A') (A') (A') (A") (A') (A") (A') (A') (A')
                 (A") (A') (A') (A") (A') (A') (A') (A') (A") (A')
                 (A') (A') (A") (A") (A') (A') (A') (A") (A") (A')
                 (A') (A') (A') (A') (A') (A') (A") (A') (A') (A")
                 (A') (A') (A') (A') (A') (A') (A') (A') (A') (A')
                 (A') (A') (A') (A') (A') (A') (A') (A') (A') (A')
                 (A') (A') (A') (A') (A') (A') (A') (A") (A') (A")
                 (A') (A') (A") (A") (A') (A") (A') (A") (A") (A')
                 (A") (A') (A') (A') (A") (A') (A') (A") (A") (A')
                 (A") (A") (A') (A') (A') (A") (A') (A') (A') (A")
                 (A') (A') (A') (A') (A') (A') (A") (A') (A') (A')
                 (A') (A') (A') (A') (A') (A') (A') (A') (A') (A")
                 (A") (A') (A") (A") (A') (A') (A') (A") (A") (A')
                 (A") (A') (A") (A") (A") (A') (A') (A') (A') (A')
                 (A') (A") (A') (A") (A') (A') (A') (A') (A') (A")
                 (A') (A') (A') (A') (A") (A') (A") (A') (A") (A")
                 (A') (A") (A') (A") (A') (A') (A') (A") (A') (A')
                 (A") (A") (A") (A') (A') (A") (A') (A") (A') (A')
                 (A") (A") (A') (A") (A') (A") (A') (A') (A') (A")
                 (A') (A') (A') (A') (A") (A') (A') (A') (A") (A")
                 (A') (A') (A') (A") (A') (A') (A") (A') (A") (A')
                 (A") (A') (A') (A') (A') (A") (A') (A') (A') (A")
                 (A') (A') (A") (A') (A") (A') (A') (A") (A') (A')
                 (A') (A") (A') (A") (A') (A') (A') (A") (A') (A")
                 (A') (A') (A') (A') (A") (A') (A") (A') (A") (A')
                 (A") (A') (A") (A") (A") (A') (A') (A') (A') (A')
                 (A') (A') (A') (A') (A') (A') (A') (A') (A') (A')
                 (A') (A') (A') (A') (A') (A") (A') (A') (A') (A')
                 (A') (A') (A') (A') (A') (A') (A') (A') (A') (A')
                 (A') (A') (A') (A') (A') (A') (A') (A') (A') (A')
                 (A') (A')
 The electronic state of the initial guess is 1-A'.
 Requested convergence on RMS density matrix=1.00D-08 within 128 cycles.
 Requested convergence on MAX density matrix=1.00D-06.
 Requested convergence on             energy=1.00D-06.
 No special actions if energy rises.
 SCF Done:  E(RM062X) =  -539.756355208     A.U. after   15 cycles
            NFock= 15  Conv=0.90D-08     -V/T= 2.0042
 DoSCS=F DFT=T ScalE2(SS,OS)=  1.000000  1.000000
 ExpMin= 3.60D-02 ExpMax= 4.56D+03 ExpMxC= 6.82D+02 IAcc=3 IRadAn=         5 AccDes= 0.00D+00
 HarFok:  IExCor=  205 AccDes= 0.00D+00 IRadAn=         5 IDoV=-2 UseB2=F ITyADJ=14
 ICtDFT= 12500011 ScaDFX=  1.000000  1.000000  1.000000  1.000000
 Range of M.O.s used for correlation:    15   379
 NBasis=   385 NAE=    47 NBE=    47 NFC=    14 NFV=     0
 NROrb=    365 NOA=    33 NOB=    33 NVA=   332 NVB=   332

 **** Warning!!: The largest alpha MO coefficient is  0.13656591D+03

 Orbital symmetries:
       Occupied  (A') (A') (A') (A') (A') (A') (A') (A') (A') (A')
                 (A') (A') (A') (A') (A') (A') (A') (A') (A') (A')
                 (A') (A') (A') (A') (A') (A') (A') (A') (A') (A')
                 (A') (A") (A') (A') (A') (A') (A') (A") (A") (A')
                 (A') (A') (A') (A") (A") (A") (A")
       Virtual   (A") (A") (A") (A") (A') (A') (A') (A') (A") (A')
                 (A') (A") (A') (A') (A") (A') (A") (A') (A') (A')
                 (A") (A") (A') (A') (A') (A") (A') (A") (A') (A')
                 (A") (A') (A") (A') (A') (A') (A') (A') (A") (A')
                 (A") (A') (A') (A") (A") (A') (A") (A') (A") (A')
                 (A') (A') (A') (A') (A') (A") (A') (A') (A') (A')
                 (A') (A") (A') (A') (A') (A") (A') (A') (A') (A')
                 (A') (A') (A') (A') (A') (A') (A') (A') (A') (A')
                 (A') (A') (A') (A') (A') (A') (A') (A') (A') (A')
                 (A') (A') (A') (A') (A") (A') (A") (A") (A') (A")
                 (A') (A') (A') (A') (A") (A") (A') (A") (A") (A')
                 (A') (A') (A") (A') (A') (A") (A') (A") (A') (A")
                 (A") (A') (A") (A') (A') (A') (A") (A') (A') (A')
                 (A') (A') (A') (A') (A') (A') (A') (A') (A') (A')
                 (A') (A') (A') (A") (A') (A') (A') (A') (A') (A')
                 (A') (A') (A") (A') (A") (A') (A") (A") (A') (A")
                 (A") (A') (A') (A") (A") (A') (A") (A") (A') (A')
                 (A') (A') (A') (A") (A") (A') (A') (A') (A') (A")
                 (A') (A') (A') (A") (A") (A') (A') (A") (A') (A")
                 (A") (A') (A') (A") (A") (A') (A') (A') (A') (A')
                 (A") (A") (A") (A') (A') (A") (A') (A") (A') (A')
                 (A') (A") (A') (A") (A") (A') (A") (A') (A') (A")
                 (A') (A') (A') (A') (A") (A') (A') (A') (A") (A")
                 (A') (A') (A') (A") (A') (A') (A') (A") (A") (A')
                 (A") (A') (A') (A") (A') (A') (A') (A') (A') (A')
                 (A") (A') (A') (A') (A') (A") (A") (A") (A') (A')
                 (A') (A') (A') (A') (A') (A') (A") (A') (A') (A')
                 (A') (A") (A') (A") (A") (A") (A') (A") (A') (A")
                 (A') (A") (A") (A') (A") (A") (A') (A') (A') (A')
                 (A') (A') (A') (A') (A') (A') (A') (A') (A') (A')
                 (A') (A') (A') (A") (A') (A') (A') (A') (A') (A')
                 (A') (A') (A') (A') (A') (A') (A') (A') (A') (A')
                 (A') (A') (A') (A') (A') (A') (A') (A') (A') (A')
                 (A') (A')
     4 initial guesses have been made.
 Convergence on wavefunction:    0.001000000000000
 Iteration     1 Dimension     4 NMult     0 NNew      4
 CISAX will form     4 AO SS matrices at one time.
 Iteration     2 Dimension     6 NMult     4 NNew      2
 Iteration     3 Dimension     8 NMult     6 NNew      2
 Iteration     4 Dimension    10 NMult     8 NNew      2
 Iteration     5 Dimension    12 NMult    10 NNew      2
 Iteration     6 Dimension    14 NMult    12 NNew      2
 ***********************************************************************
 Excited states from <AA,BB:AA,BB> singles matrix:
 ***********************************************************************
 
 Ground to excited state transition densities written to RWF  633
 Ground to excited state transition electric dipole moments (Au):
       state          X           Y           Z        Dip. S.      Osc.
         1         0.4838      0.3005      0.0000      0.3244      0.0216
 Ground to excited state transition velocity dipole moments (Au):
       state          X           Y           Z        Dip. S.      Osc.
         1        -0.0561     -0.0303      0.0000      0.0041      0.0272
 Ground to excited state transition magnetic dipole moments (Au):
       state          X           Y           Z
         1        -0.0000      0.0000      0.1731
 Ground to excited state transition velocity quadrupole moments (Au):
       state          XX          YY          ZZ          XY          XZ          YZ
         1         0.1419      0.1408     -0.0086     -0.1378      0.0000      0.0000
 <0|del|b> * <b|rxdel|0> + <0|del|b> * <b|delr+rdel|0>
 Rotatory Strengths (R) in cgs (10**-40 erg-esu-cm/Gauss)
       state          XX          YY          ZZ    R(velocity)    E-M Angle
         1         0.0000      0.0000     -0.0000      0.0000       90.00
 1/2[<0|r|b>*<b|rxdel|0> + (<0|rxdel|b>*<b|r|0>)*]
 Rotatory Strengths (R) in cgs (10**-40 erg-esu-cm/Gauss)
       state          XX          YY          ZZ     R(length)
         1         0.0000     -0.0000     -0.0000     -0.0000
  1/2[<0|del|b>*<b|r|0> + (<0|r|b>*<b|del|0>)*] (Au)
       state          X           Y           Z        Dip. S.   Osc.(frdel)
         1        -0.0271     -0.0091      0.0000      0.0363      0.0242

 Excitation energies and oscillator strengths:
 
 Excited State   1:      Singlet-A'     2.7164 eV  456.43 nm  f=0.0216  <S**2>=0.000
      47 -> 48         0.70361
 This state for optimization and/or second-order correction.
 Total Energy, E(TD-HF/TD-DFT) =  -539.656529208    
 Copying the excited state density for this state as the 1-particle RhoCI density.
 SavETr:  write IOETrn=   770 NScale= 10 NData=  16 NLR=1 NState=    1 LETran=      28.

 **********************************************************************

            Population analysis using the SCF Density.

 **********************************************************************

 Orbital symmetries:
       Occupied  (A') (A') (A') (A') (A') (A') (A') (A') (A') (A')
                 (A') (A') (A') (A') (A') (A') (A') (A') (A') (A')
                 (A') (A') (A') (A') (A') (A') (A') (A') (A') (A')
                 (A') (A") (A') (A') (A') (A') (A') (A") (A") (A')
                 (A') (A') (A') (A") (A") (A") (A")
       Virtual   (A") (A") (A") (A") (A') (A') (A') (A') (A") (A')
                 (A') (A") (A') (A') (A") (A') (A") (A') (A') (A')
                 (A") (A") (A') (A') (A') (A") (A') (A") (A') (A')
                 (A") (A') (A") (A') (A') (A') (A') (A') (A") (A')
                 (A") (A') (A') (A") (A") (A') (A") (A') (A") (A')
                 (A') (A') (A') (A') (A') (A") (A') (A') (A') (A')
                 (A') (A") (A') (A') (A') (A") (A') (A') (A') (A')
                 (A') (A') (A') (A') (A') (A') (A') (A') (A') (A')
                 (A') (A') (A') (A') (A') (A') (A') (A') (A') (A')
                 (A') (A') (A') (A') (A") (A') (A") (A") (A') (A")
                 (A') (A') (A') (A') (A") (A") (A') (A") (A") (A')
                 (A') (A') (A") (A') (A') (A") (A') (A") (A') (A")
                 (A") (A') (A") (A') (A') (A') (A") (A') (A') (A')
                 (A') (A') (A') (A') (A') (A') (A') (A') (A') (A')
                 (A') (A') (A') (A") (A') (A') (A') (A') (A') (A')
                 (A') (A') (A") (A') (A") (A') (A") (A") (A') (A")
                 (A") (A') (A') (A") (A") (A') (A") (A") (A') (A')
                 (A') (A') (A') (A") (A") (A') (A') (A') (A') (A")
                 (A') (A') (A') (A") (A") (A') (A') (A") (A') (A")
                 (A") (A') (A') (A") (A") (A') (A') (A') (A') (A')
                 (A") (A") (A") (A') (A') (A") (A') (A") (A') (A')
                 (A') (A") (A') (A") (A") (A') (A") (A') (A') (A")
                 (A') (A') (A') (A') (A") (A') (A') (A') (A") (A")
                 (A') (A') (A') (A") (A') (A') (A') (A") (A") (A')
                 (A") (A') (A') (A") (A') (A') (A') (A') (A') (A')
                 (A") (A') (A') (A') (A') (A") (A") (A") (A') (A')
                 (A') (A') (A') (A') (A') (A') (A") (A') (A') (A')
                 (A') (A") (A') (A") (A") (A") (A') (A") (A') (A")
                 (A') (A") (A") (A') (A") (A") (A') (A') (A') (A')
                 (A') (A') (A') (A') (A') (A') (A') (A') (A') (A')
                 (A') (A') (A') (A") (A') (A') (A') (A') (A') (A')
                 (A') (A') (A') (A') (A') (A') (A') (A') (A') (A')
                 (A') (A') (A') (A') (A') (A') (A') (A') (A') (A')
                 (A') (A')
 The electronic state is 1-A'.
 Alpha  occ. eigenvalues --  -10.77622 -10.73692 -10.72826 -10.72768 -10.72070
 Alpha  occ. eigenvalues --  -10.71794 -10.71764 -10.70996 -10.70945 -10.70254
 Alpha  occ. eigenvalues --  -10.70170 -10.69879 -10.69778 -10.69391  -1.16480
 Alpha  occ. eigenvalues --   -1.12454  -1.06941  -1.05768  -1.01295  -1.00302
 Alpha  occ. eigenvalues --   -0.95649  -0.91030  -0.86430  -0.85887  -0.83785
 Alpha  occ. eigenvalues --   -0.78355  -0.76077  -0.74382  -0.69713  -0.69289
 Alpha  occ. eigenvalues --   -0.68371  -0.68102  -0.68101  -0.65082  -0.64236
 Alpha  occ. eigenvalues --   -0.62823  -0.61687  -0.60344  -0.59372  -0.59143
 Alpha  occ. eigenvalues --   -0.56915  -0.55257  -0.54636  -0.52442  -0.47054
 Alpha  occ. eigenvalues --   -0.46110  -0.44041
 Alpha virt. eigenvalues --   -0.26107  -0.14665  -0.14086  -0.12768  -0.11185
 Alpha virt. eigenvalues --   -0.10088  -0.09248  -0.07968  -0.07948  -0.07480
 Alpha virt. eigenvalues --   -0.07205  -0.07137  -0.05646  -0.05576  -0.05343
 Alpha virt. eigenvalues --   -0.03841  -0.03657  -0.03275  -0.03134  -0.02161
 Alpha virt. eigenvalues --   -0.01354  -0.00946   0.00193   0.00593   0.00637
 Alpha virt. eigenvalues --    0.01061   0.01508   0.01938   0.02169   0.02305
 Alpha virt. eigenvalues --    0.02449   0.02671   0.02774   0.03278   0.03444
 Alpha virt. eigenvalues --    0.04229   0.04495   0.04716   0.05038   0.05381
 Alpha virt. eigenvalues --    0.06029   0.06288   0.06584   0.07043   0.07268
 Alpha virt. eigenvalues --    0.07899   0.08102   0.08350   0.08598   0.08916
 Alpha virt. eigenvalues --    0.09501   0.09583   0.09987   0.10826   0.10967
 Alpha virt. eigenvalues --    0.11127   0.12116   0.12246   0.12750   0.13015
 Alpha virt. eigenvalues --    0.13448   0.13526   0.13986   0.14349   0.15944
 Alpha virt. eigenvalues --    0.16394   0.16434   0.17332   0.17514   0.17791
 Alpha virt. eigenvalues --    0.18118   0.19073   0.19339   0.19628   0.19847
 Alpha virt. eigenvalues --    0.21485   0.21624   0.22676   0.23154   0.23555
 Alpha virt. eigenvalues --    0.23919   0.24564   0.25444   0.26936   0.27608
 Alpha virt. eigenvalues --    0.28839   0.29259   0.29887   0.31345   0.35762
 Alpha virt. eigenvalues --    0.36436   0.38205   0.39276   0.41083   0.41330
 Alpha virt. eigenvalues --    0.41951   0.42159   0.42983   0.43685   0.44357
 Alpha virt. eigenvalues --    0.44815   0.45104   0.45935   0.46338   0.47934
 Alpha virt. eigenvalues --    0.48441   0.48797   0.49043   0.50485   0.51060
 Alpha virt. eigenvalues --    0.51282   0.51952   0.52134   0.52792   0.54085
 Alpha virt. eigenvalues --    0.54113   0.54593   0.55654   0.55883   0.57596
 Alpha virt. eigenvalues --    0.58226   0.58908   0.61475   0.62255   0.62390
 Alpha virt. eigenvalues --    0.63171   0.63477   0.64902   0.65153   0.67341
 Alpha virt. eigenvalues --    0.70380   0.70521   0.71147   0.72471   0.72887
 Alpha virt. eigenvalues --    0.75632   0.76044   0.76379   0.76786   0.77116
 Alpha virt. eigenvalues --    0.77854   0.77949   0.78252   0.79916   0.80388
 Alpha virt. eigenvalues --    0.81231   0.81567   0.82338   0.82992   0.85204
 Alpha virt. eigenvalues --    0.87067   0.88141   0.88268   0.89258   0.90561
 Alpha virt. eigenvalues --    0.91026   0.91375   0.93262   0.94598   0.96299
 Alpha virt. eigenvalues --    0.96845   1.00264   1.01263   1.01576   1.02797
 Alpha virt. eigenvalues --    1.03163   1.03244   1.04828   1.06180   1.08826
 Alpha virt. eigenvalues --    1.19560   1.23053   1.24128   1.24534   1.28610
 Alpha virt. eigenvalues --    1.29428   1.32091   1.34319   1.35743   1.35972
 Alpha virt. eigenvalues --    1.39310   1.39787   1.40877   1.42996   1.43450
 Alpha virt. eigenvalues --    1.43521   1.44282   1.46352   1.46569   1.46615
 Alpha virt. eigenvalues --    1.47683   1.48115   1.51725   1.53653   1.55641
 Alpha virt. eigenvalues --    1.55790   1.56303   1.56589   1.57787   1.61434
 Alpha virt. eigenvalues --    1.63081   1.63390   1.64115   1.66073   1.68309
 Alpha virt. eigenvalues --    1.68314   1.68729   1.69823   1.74379   1.76001
 Alpha virt. eigenvalues --    1.77142   1.78071   1.79822   1.80017   1.80806
 Alpha virt. eigenvalues --    1.82915   1.83203   1.83585   1.83813   1.84192
 Alpha virt. eigenvalues --    1.84491   1.85539   1.86348   1.88312   1.91400
 Alpha virt. eigenvalues --    1.92106   1.94062   1.95275   1.97749   1.98139
 Alpha virt. eigenvalues --    1.99762   2.02290   2.04462   2.07298   2.11735
 Alpha virt. eigenvalues --    2.12113   2.14208   2.15256   2.19036   2.21161
 Alpha virt. eigenvalues --    2.22752   2.28556   2.30147   2.34486   2.34818
 Alpha virt. eigenvalues --    2.36313   2.38620   2.39659   2.42331   2.44762
 Alpha virt. eigenvalues --    2.46116   2.46349   2.49224   2.52916   2.53776
 Alpha virt. eigenvalues --    2.54175   2.56895   2.57885   2.58385   2.59470
 Alpha virt. eigenvalues --    2.59892   2.61544   2.62119   2.63544   2.63721
 Alpha virt. eigenvalues --    2.64810   2.65068   2.65079   2.65528   2.67864
 Alpha virt. eigenvalues --    2.68385   2.70925   2.71451   2.73359   2.74805
 Alpha virt. eigenvalues --    2.76289   2.78411   2.79650   2.82940   2.83152
 Alpha virt. eigenvalues --    2.84845   2.86235   2.92098   2.97092   2.99429
 Alpha virt. eigenvalues --    3.00102   3.04850   3.09830   3.11213   3.13850
 Alpha virt. eigenvalues --    3.20636   3.22381   3.26349   3.28519   3.30606
 Alpha virt. eigenvalues --    3.32788   3.34441   3.43751   3.46111   3.46625
 Alpha virt. eigenvalues --    3.48266   3.49998   3.56373   3.66225   3.66785
 Alpha virt. eigenvalues --    3.67719   3.93869   3.94117   3.95381   3.96393
 Alpha virt. eigenvalues --    4.03942   4.06565   4.07575   4.12545   4.35236
 Alpha virt. eigenvalues --    4.60822   4.69319   4.71296  23.45270  23.60174
 Alpha virt. eigenvalues --   23.80693  23.83168  23.85833  23.89053  23.91582
 Alpha virt. eigenvalues --   23.94895  23.95910  23.97638  24.02407  24.04516
 Alpha virt. eigenvalues --   24.11051  24.12182
          Condensed to atoms (all electrons):
               1          2          3          4          5          6
     1  C    8.954692   0.002747  -0.400153   2.277126  -0.088891  -0.104756
     2  C    0.002747   7.209898   0.256139  -1.208654   0.012606  -0.013185
     3  C   -0.400153   0.256139   6.597738   0.827432  -0.139491   0.016893
     4  C    2.277126  -1.208654   0.827432  10.817258  -0.404109  -0.115657
     5  C   -0.088891   0.012606  -0.139491  -0.404109  11.517455   0.732098
     6  C   -0.104756  -0.013185   0.016893  -0.115657   0.732098   6.604214
     7  C   -0.001099  -0.000352  -0.014895  -0.032943  -1.030614   0.407014
     8  C    0.404899  -0.027562  -0.087578  -0.016388   1.846551  -0.627538
     9  C   -1.098077  -0.792881   0.297525  -0.367764   0.011938   0.298084
    10  C   -1.391668   0.339045  -0.421778  -2.421629  -2.763122  -0.276005
    11  C    0.310477  -0.962845   1.088136  -0.332520  -1.584085  -0.216868
    12  C   -2.606879   1.705246  -1.501417  -1.688584  -0.442419  -0.128533
    13  C    0.295447  -0.293440  -0.120559  -1.437206  -0.340453   0.902453
    14  C   -1.061664  -0.092591  -0.271578  -0.242452  -1.695643  -1.361216
    15  H    0.371169  -0.109350   0.001134   0.030004   0.004626   0.000999
    16  H   -0.017121   0.375189  -0.013225   0.010553  -0.001356  -0.000302
    17  H   -0.032166  -0.008892   0.369319  -0.067037   0.000445   0.000389
    18  H    0.054272   0.001934  -0.084325   0.456578   0.005559  -0.005279
    19  H   -0.048157  -0.007522   0.051807  -0.062660  -0.079049   0.051386
    20  H    0.006957   0.002145  -0.005076   0.005548   0.467179  -0.083743
    21  H   -0.001388  -0.000378   0.000414   0.000171  -0.070213   0.380579
    22  H    0.001000   0.000400  -0.000354  -0.001669   0.016386  -0.021160
    23  H    0.004889  -0.002847   0.001215   0.006239   0.026015  -0.002713
    24  H    0.029334   0.013308  -0.001802  -0.013013  -0.011364  -0.001382
    25  H    0.029334   0.013308  -0.001802  -0.013013  -0.011364  -0.001382
               7          8          9         10         11         12
     1  C   -0.001099   0.404899  -1.098077  -1.391668   0.310477  -2.606879
     2  C   -0.000352  -0.027562  -0.792881   0.339045  -0.962845   1.705246
     3  C   -0.014895  -0.087578   0.297525  -0.421778   1.088136  -1.501417
     4  C   -0.032943  -0.016388  -0.367764  -2.421629  -0.332520  -1.688584
     5  C   -1.030614   1.846551   0.011938  -2.763122  -1.584085  -0.442419
     6  C    0.407014  -0.627538   0.298084  -0.276005  -0.216868  -0.128533
     7  C    7.198419   0.453878  -0.861998   0.180124  -0.214481  -0.276508
     8  C    0.453878   8.421267  -1.113264  -1.234804   0.216435  -1.136515
     9  C   -0.861998  -1.113264   9.583321   0.258867   1.439451  -1.730894
    10  C    0.180124  -1.234804   0.258867   9.086505  -0.435363   2.453482
    11  C   -0.214481   0.216435   1.439451  -0.435363  14.253960  -3.371653
    12  C   -0.276508  -1.136515  -1.730894   2.453482  -3.371653  15.903134
    13  C   -0.798776   0.342125   1.560538  -0.296875   1.083024  -4.794195
    14  C    1.113477  -1.935759  -2.049988   2.385820  -4.699622   3.161165
    15  H   -0.002329   0.006409   0.094366  -0.010986  -0.033343  -0.034651
    16  H    0.000328   0.000462   0.003557  -0.008005   0.025083  -0.032237
    17  H   -0.000417  -0.001241  -0.006209   0.020222  -0.026795   0.097115
    18  H    0.002069   0.006899  -0.025627   0.012974  -0.002185  -0.065088
    19  H   -0.008234  -0.044341   0.074717   0.422108   0.081031  -0.049358
    20  H    0.003518   0.048501  -0.022707   0.006721  -0.012358  -0.020759
    21  H   -0.021487  -0.021363  -0.004837   0.020031  -0.006283   0.005271
    22  H    0.383111  -0.020088   0.001684  -0.010049   0.003344  -0.010189
    23  H   -0.107256   0.368169   0.087762  -0.008154  -0.002745   0.007445
    24  H    0.015810   0.037540   0.355545   0.005298   0.004203  -0.060517
    25  H    0.015810   0.037540   0.355545   0.005298   0.004203  -0.060517
              13         14         15         16         17         18
     1  C    0.295447  -1.061664   0.371169  -0.017121  -0.032166   0.054272
     2  C   -0.293440  -0.092591  -0.109350   0.375189  -0.008892   0.001934
     3  C   -0.120559  -0.271578   0.001134  -0.013225   0.369319  -0.084325
     4  C   -1.437206  -0.242452   0.030004   0.010553  -0.067037   0.456578
     5  C   -0.340453  -1.695643   0.004626  -0.001356   0.000445   0.005559
     6  C    0.902453  -1.361216   0.000999  -0.000302   0.000389  -0.005279
     7  C   -0.798776   1.113477  -0.002329   0.000328  -0.000417   0.002069
     8  C    0.342125  -1.935759   0.006409   0.000462  -0.001241   0.006899
     9  C    1.560538  -2.049988   0.094366   0.003557  -0.006209  -0.025627
    10  C   -0.296875   2.385820  -0.010986  -0.008005   0.020222   0.012974
    11  C    1.083024  -4.699622  -0.033343   0.025083  -0.026795  -0.002185
    12  C   -4.794195   3.161165  -0.034651  -0.032237   0.097115  -0.065088
    13  C   14.491834  -4.019422   0.006272   0.002509  -0.006216  -0.012096
    14  C   -4.019422  16.269485   0.004907  -0.007835   0.005325  -0.009806
    15  H    0.006272   0.004907   0.443940  -0.008984   0.001270   0.000065
    16  H    0.002509  -0.007835  -0.008984   0.422057  -0.006072   0.001897
    17  H   -0.006216   0.005325   0.001270  -0.006072   0.424456  -0.010435
    18  H   -0.012096  -0.009806   0.000065   0.001897  -0.010435   0.458552
    19  H    0.077022  -0.083165   0.000245  -0.000494   0.001182  -0.006787
    20  H   -0.007654  -0.050224  -0.000105   0.000012  -0.000125   0.001246
    21  H   -0.025440   0.087442   0.000011  -0.000007   0.000010  -0.000164
    22  H    0.024265  -0.029590  -0.000131   0.000008  -0.000007   0.000019
    23  H   -0.029697  -0.014734   0.000554  -0.000125   0.000017  -0.000125
    24  H    0.023070  -0.060192  -0.000890   0.000635  -0.000150   0.000222
    25  H    0.023070  -0.060192  -0.000890   0.000635  -0.000150   0.000222
              19         20         21         22         23         24
     1  C   -0.048157   0.006957  -0.001388   0.001000   0.004889   0.029334
     2  C   -0.007522   0.002145  -0.000378   0.000400  -0.002847   0.013308
     3  C    0.051807  -0.005076   0.000414  -0.000354   0.001215  -0.001802
     4  C   -0.062660   0.005548   0.000171  -0.001669   0.006239  -0.013013
     5  C   -0.079049   0.467179  -0.070213   0.016386   0.026015  -0.011364
     6  C    0.051386  -0.083743   0.380579  -0.021160  -0.002713  -0.001382
     7  C   -0.008234   0.003518  -0.021487   0.383111  -0.107256   0.015810
     8  C   -0.044341   0.048501  -0.021363  -0.020088   0.368169   0.037540
     9  C    0.074717  -0.022707  -0.004837   0.001684   0.087762   0.355545
    10  C    0.422108   0.006721   0.020031  -0.010049  -0.008154   0.005298
    11  C    0.081031  -0.012358  -0.006283   0.003344  -0.002745   0.004203
    12  C   -0.049358  -0.020759   0.005271  -0.010189   0.007445  -0.060517
    13  C    0.077022  -0.007654  -0.025440   0.024265  -0.029697   0.023070
    14  C   -0.083165  -0.050224   0.087442  -0.029590  -0.014734  -0.060192
    15  H    0.000245  -0.000105   0.000011  -0.000131   0.000554  -0.000890
    16  H   -0.000494   0.000012  -0.000007   0.000008  -0.000125   0.000635
    17  H    0.001182  -0.000125   0.000010  -0.000007   0.000017  -0.000150
    18  H   -0.006787   0.001246  -0.000164   0.000019  -0.000125   0.000222
    19  H    0.443524  -0.005876   0.001683  -0.000600   0.000400   0.000580
    20  H   -0.005876   0.449656  -0.010178   0.001968   0.000218   0.000153
    21  H    0.001683  -0.010178   0.420258  -0.007022   0.001642  -0.000136
    22  H   -0.000600   0.001968  -0.007022   0.416776  -0.008975   0.000630
    23  H    0.000400   0.000218   0.001642  -0.008975   0.435182  -0.000946
    24  H    0.000580   0.000153  -0.000136   0.000630  -0.000946   0.492999
    25  H    0.000580   0.000153  -0.000136   0.000630  -0.000946  -0.078662
              25
     1  C    0.029334
     2  C    0.013308
     3  C   -0.001802
     4  C   -0.013013
     5  C   -0.011364
     6  C   -0.001382
     7  C    0.015810
     8  C    0.037540
     9  C    0.355545
    10  C    0.005298
    11  C    0.004203
    12  C   -0.060517
    13  C    0.023070
    14  C   -0.060192
    15  H   -0.000890
    16  H    0.000635
    17  H   -0.000150
    18  H    0.000222
    19  H    0.000580
    20  H    0.000153
    21  H   -0.000136
    22  H    0.000630
    23  H   -0.000946
    24  H   -0.078662
    25  H    0.492999
 Mulliken charges:
               1
     1  C    0.109675
     2  C   -0.411466
     3  C   -0.443719
     4  C   -0.005611
     5  C    0.021314
     6  C   -0.434392
     7  C   -0.402170
     8  C    0.075767
     9  C   -0.348654
    10  C    0.081944
    11  C   -0.608200
    12  C    0.678056
    13  C   -0.649600
    14  C    0.718052
    15  H    0.235690
    16  H    0.252836
    17  H    0.246161
    18  H    0.219408
    19  H    0.189978
    20  H    0.224832
    21  H    0.251518
    22  H    0.259611
    23  H    0.239516
    24  H    0.249727
    25  H    0.249727
 Sum of Mulliken charges =   1.00000
 Mulliken charges with hydrogens summed into heavy atoms:
               1
     1  C    0.345365
     2  C   -0.158630
     3  C   -0.197558
     4  C    0.213797
     5  C    0.246146
     6  C   -0.182873
     7  C   -0.142559
     8  C    0.315283
     9  C    0.150800
    10  C    0.271922
    11  C   -0.608200
    12  C    0.678056
    13  C   -0.649600
    14  C    0.718052
 Electronic spatial extent (au):  <R**2>=           2857.3931
 Charge=              1.0000 electrons
 Dipole moment (field-independent basis, Debye):
    X=              0.2326    Y=             -0.8255    Z=             -0.0000  Tot=              0.8577
 Quadrupole moment (field-independent basis, Debye-Ang):
   XX=            -51.0797   YY=            -36.2264   ZZ=            -84.1363
   XY=            -10.2204   XZ=             -0.0000   YZ=             -0.0000
 Traceless Quadrupole moment (field-independent basis, Debye-Ang):
   XX=              6.0678   YY=             20.9210   ZZ=            -26.9888
   XY=            -10.2204   XZ=             -0.0000   YZ=             -0.0000
 Octapole moment (field-independent basis, Debye-Ang**2):
  XXX=              2.6163  YYY=             -2.0047  ZZZ=              0.0000  XYY=              2.4119
  XXY=             -7.5339  XXZ=             -0.0000  XZZ=              3.3150  YZZ=              0.3782
  YYZ=             -0.0000  XYZ=             -0.0000
 Hexadecapole moment (field-independent basis, Debye-Ang**3):
 XXXX=           -987.0803 YYYY=          -1850.6903 ZZZZ=            -99.3300 XXXY=            347.4943
 XXXZ=              0.0000 YYYX=            273.2835 YYYZ=             -0.0000 ZZZX=              0.0000
 ZZZY=             -0.0000 XXYY=           -455.0332 XXZZ=           -241.1139 YYZZ=           -495.6449
 XXYZ=             -0.0000 YYXZ=             -0.0000 ZZXY=            182.6661
 N-N= 7.810281146314D+02 E-N=-2.798400848825D+03  KE= 5.375111089580D+02
 Symmetry A'   KE= 5.228598760613D+02
 Symmetry A"   KE= 1.465123289671D+01
 Unable to Open any file for archive entry.
 1\1\GINC-GADI-CPU-CLX-1762\SP\RM062X TD-FC\6-311++G(d,p)\C14H11(1+)\TS
 1578\02-Aug-2022\0\\#n M062X/6-311++G(d,p) TD(NStates=1) EmpiricalDisp
 ersion=GD3 SP\\SP_-25\\1,1\C,0,2.515105,1.358931,0.\C,0,3.727133,0.682
 214,0.\C,0,3.691361,-0.69623,0.\C,0,2.439856,-1.394088,0.\C,0,-2.48665
 6,-1.421388,0.\C,0,-3.677561,-0.73343,0.\C,0,-3.677783,0.661064,0.\C,0
 ,-2.474005,1.360731,0.\C,0,0.013075,1.457769,0.\C,0,-0.0366,-1.429389,
 0.\C,0,1.25673,0.66564,0.\C,0,1.222071,-0.728704,0.\C,0,-1.26768,0.688
 59,0.\C,0,-1.252071,-0.732304,0.\H,0,2.496571,2.442322,0.\H,0,4.662878
 ,1.219564,0.\H,0,4.605212,-1.274274,0.\H,0,2.4563,-2.476934,0.\H,0,-0.
 03375,-2.510366,0.\H,0,-2.4782,-2.503484,0.\H,0,-4.613912,-1.272924,0.
 \H,0,-4.612928,1.202314,0.\H,0,-2.483971,2.443672,0.\H,0,0.048,2.14678
 7,-0.860685\H,0,0.048,2.146787,0.860685\\Version=ES64L-G16RevC.01\Stat
 e=1-A'\HF=-539.7563552\RMSD=8.996e-09\PG=CS [SG(C14H9),X(H2)]\\@
 The archive entry for this job was punched.


 EDUCATION WITHOUT COMMON SENSE IS A LOAD OF BOOKS ON THE BACK OF AN ASS.
 Job cpu time:       0 days  0 hours 57 minutes 26.1 seconds.
 Elapsed time:       0 days  0 hours  1 minutes 17.8 seconds.
 File lengths (MBytes):  RWF=    460 Int=      0 D2E=      0 Chk=     15 Scr=      1
 Normal termination of Gaussian 16 at Tue Aug  2 11:58:05 2022.
