 Entering Gaussian System, Link 0=g16
 Initial command:
 /apps/gaussian/g16c01/g16/l1.exe "/jobfs/53796104.gadi-pbs/Gau-3587966.inp" -scrdir="/jobfs/53796104.gadi-pbs/"
 Entering Link 1 = /apps/gaussian/g16c01/g16/l1.exe PID=   3587967.
  
 Copyright (c) 1988-2019, Gaussian, Inc.  All Rights Reserved.
  
 This is part of the Gaussian(R) 16 program.  It is based on
 the Gaussian(R) 09 system (copyright 2009, Gaussian, Inc.),
 the Gaussian(R) 03 system (copyright 2003, Gaussian, Inc.),
 the Gaussian(R) 98 system (copyright 1998, Gaussian, Inc.),
 the Gaussian(R) 94 system (copyright 1995, Gaussian, Inc.),
 the Gaussian 92(TM) system (copyright 1992, Gaussian, Inc.),
 the Gaussian 90(TM) system (copyright 1990, Gaussian, Inc.),
 the Gaussian 88(TM) system (copyright 1988, Gaussian, Inc.),
 the Gaussian 86(TM) system (copyright 1986, Carnegie Mellon
 University), and the Gaussian 82(TM) system (copyright 1983,
 Carnegie Mellon University). Gaussian is a federally registered
 trademark of Gaussian, Inc.
  
 This software contains proprietary and confidential information,
 including trade secrets, belonging to Gaussian, Inc.
  
 This software is provided under written license and may be
 used, copied, transmitted, or stored only in accord with that
 written license.
  
 The following legend is applicable only to US Government
 contracts under FAR:
  
                    RESTRICTED RIGHTS LEGEND
  
 Use, reproduction and disclosure by the US Government is
 subject to restrictions as set forth in subparagraphs (a)
 and (c) of the Commercial Computer Software - Restricted
 Rights clause in FAR 52.227-19.
  
 Gaussian, Inc.
 340 Quinnipiac St., Bldg. 40, Wallingford CT 06492
  
  
 ---------------------------------------------------------------
 Warning -- This program may not be used in any manner that
 competes with the business of Gaussian, Inc. or will provide
 assistance to any competitor of Gaussian, Inc.  The licensee
 of this program is prohibited from giving any competitor of
 Gaussian, Inc. access to this program.  By using this program,
 the user acknowledges that Gaussian, Inc. is engaged in the
 business of creating and licensing software in the field of
 computational chemistry and represents and warrants to the
 licensee that it is not a competitor of Gaussian, Inc. and that
 it will not use this program in any manner prohibited above.
 ---------------------------------------------------------------
  

 Cite this work as:
 Gaussian 16, Revision C.01,
 M. J. Frisch, G. W. Trucks, H. B. Schlegel, G. E. Scuseria, 
 M. A. Robb, J. R. Cheeseman, G. Scalmani, V. Barone, 
 G. A. Petersson, H. Nakatsuji, X. Li, M. Caricato, A. V. Marenich, 
 J. Bloino, B. G. Janesko, R. Gomperts, B. Mennucci, H. P. Hratchian, 
 J. V. Ortiz, A. F. Izmaylov, J. L. Sonnenberg, D. Williams-Young, 
 F. Ding, F. Lipparini, F. Egidi, J. Goings, B. Peng, A. Petrone, 
 T. Henderson, D. Ranasinghe, V. G. Zakrzewski, J. Gao, N. Rega, 
 G. Zheng, W. Liang, M. Hada, M. Ehara, K. Toyota, R. Fukuda, 
 J. Hasegawa, M. Ishida, T. Nakajima, Y. Honda, O. Kitao, H. Nakai, 
 T. Vreven, K. Throssell, J. A. Montgomery, Jr., J. E. Peralta, 
 F. Ogliaro, M. J. Bearpark, J. J. Heyd, E. N. Brothers, K. N. Kudin, 
 V. N. Staroverov, T. A. Keith, R. Kobayashi, J. Normand, 
 K. Raghavachari, A. P. Rendell, J. C. Burant, S. S. Iyengar, 
 J. Tomasi, M. Cossi, J. M. Millam, M. Klene, C. Adamo, R. Cammi, 
 J. W. Ochterski, R. L. Martin, K. Morokuma, O. Farkas, 
 J. B. Foresman, and D. J. Fox, Gaussian, Inc., Wallingford CT, 2019.
 
 ******************************************
 Gaussian 16:  ES64L-G16RevC.01  3-Jul-2019
                 2-Aug-2022 
 ******************************************
 %NProcShared=48
 Will use up to   48 processors via shared memory.
 %mem = 190GB
 ---------------------------------------------------------------
 #n M062X/6-311++G(d,p) TD(NStates=1) EmpiricalDispersion=GD3 SP
 ---------------------------------------------------------------
 1/38=1,172=1/1;
 2/12=2,17=6,18=5,40=1/2;
 3/5=4,6=6,7=1111,11=9,25=1,30=1,74=-55,124=31/1,2,3,8;
 4//1;
 5/5=2,38=5/2;
 8/6=1,10=2,108=1/1;
 9/41=1,42=1,70=2/14;
 6/7=2,8=2,9=2,10=2/1;
 99/5=1,9=1/99;
 -------
 SP_-150
 -------
 Symbolic Z-matrix:
 Charge =  1 Multiplicity = 1
 C                     2.52986   1.35893   0. 
 C                     3.74651   0.69146   0. 
 C                     3.69636  -0.67948   0. 
 C                     2.42023  -1.38246   0. 
 C                    -2.50603  -1.43251   0. 
 C                    -3.67106  -0.74768   0. 
 C                    -3.65603   0.65269   0. 
 C                    -2.45451   1.36223   0. 
 C                     0.02408   1.45227   0. 
 C                    -0.0671   -1.42914   0. 
 C                     1.25198   0.65602   0. 
 C                     1.21007  -0.72758   0. 
 C                    -1.27206   0.69809   0. 
 C                    -1.26507  -0.73418   0. 
 H                     2.49907   2.44257   0. 
 H                     4.68225   1.22769   0. 
 H                     4.60121  -1.27327   0. 
 H                     2.44755  -2.46568   0. 
 H                    -0.06188  -2.51024   0. 
 H                    -2.4877   -2.51436   0. 
 H                    -4.61716  -1.2708    0. 
 H                    -4.59068   1.19606   0. 
 H                    -2.47597   2.44505   0. 
 H                     0.088     2.14554  -0.85931 
 H                     0.088     2.14554   0.85931 
 
                          Input orientation:                          
 ---------------------------------------------------------------------
 Center     Atomic      Atomic             Coordinates (Angstroms)
 Number     Number       Type             X           Y           Z
 ---------------------------------------------------------------------
      1          6           0        2.529855    1.358931    0.000000
      2          6           0        3.746508    0.691464    0.000000
      3          6           0        3.696361   -0.679480    0.000000
      4          6           0        2.420231   -1.382463    0.000000
      5          6           0       -2.506031   -1.432513    0.000000
      6          6           0       -3.671061   -0.747680    0.000000
      7          6           0       -3.656033    0.652689    0.000000
      8          6           0       -2.454505    1.362231    0.000000
      9          6           0        0.024075    1.452269    0.000000
     10          6           0       -0.067100   -1.429139    0.000000
     11          6           0        1.251980    0.656015    0.000000
     12          6           0        1.210071   -0.727579    0.000000
     13          6           0       -1.272055    0.698090    0.000000
     14          6           0       -1.265071   -0.734179    0.000000
     15          1           0        2.499071    2.442572    0.000000
     16          1           0        4.682253    1.227689    0.000000
     17          1           0        4.601212   -1.273274    0.000000
     18          1           0        2.447550   -2.465684    0.000000
     19          1           0       -0.061875   -2.510241    0.000000
     20          1           0       -2.487700   -2.514359    0.000000
     21          1           0       -4.617162   -1.270799    0.000000
     22          1           0       -4.590678    1.196064    0.000000
     23          1           0       -2.475971    2.445047    0.000000
     24          1           0        0.088000    2.145537   -0.859310
     25          1           0        0.088000    2.145537    0.859310
 ---------------------------------------------------------------------
                    Distance matrix (angstroms):
                    1          2          3          4          5
     1  C    0.000000
     2  C    1.387716   0.000000
     3  C    2.348586   1.371861   0.000000
     4  C    2.743585   2.461744   1.456946   0.000000
     5  C    5.757804   6.603448   6.247938   4.926516   0.000000
     6  C    6.548982   7.555889   7.367738   6.124279   1.351403
     7  C    6.226073   7.402643   7.472106   6.408028   2.381296
     8  C    4.984361   6.237186   6.480875   5.594318   2.795219
     9  C    2.507518   3.799386   4.246179   3.711774   3.837109
    10  C    3.810185   4.363549   3.837399   2.487769   2.438933
    11  C    1.458443   2.494780   2.785417   2.349511   4.299372
    12  C    2.468877   2.906406   2.486755   1.375994   3.782373
    13  C    3.858916   5.018567   5.155857   4.238122   2.462147
    14  C    4.333887   5.210411   4.961734   3.741888   1.423956
    15  H    1.084078   2.149995   3.343757   3.825847   6.329876
    16  H    2.156396   1.078497   2.146923   3.453931   7.664731
    17  H    3.349481   2.142595   1.082288   2.183713   7.109027
    18  H    3.825500   3.413924   2.179462   1.083565   5.060179
    19  H    4.656990   4.975409   4.180433   2.726304   2.671216
    20  H    6.338630   7.010182   6.450534   5.036762   1.082001
    21  H    7.615467   8.590777   8.334526   7.038279   2.117316
    22  H    7.122395   8.352442   8.496628   7.470050   3.354873
    23  H    5.122298   6.464851   6.918118   6.214711   3.877677
    24  H    2.705516   4.029569   4.662553   4.315611   4.502205
    25  H    2.705516   4.029569   4.662553   4.315611   4.502205
                    6          7          8          9         10
     6  C    0.000000
     7  C    1.400450   0.000000
     8  C    2.435515   1.395392   0.000000
     9  C    4.300442   3.765969   2.480215   0.000000
    10  C    3.667822   4.149030   3.673071   2.882850   0.000000
    11  C    5.119247   4.908014   3.773165   1.463479   2.467355
    12  C    4.881173   5.058074   4.218581   2.481597   1.457173
    13  C    2.800979   2.384410   1.356197   1.499580   2.444794
    14  C    2.406028   2.764073   2.410329   2.538199   1.384956
    15  H    6.946095   6.410069   5.070015   2.665765   4.644931
    16  H    8.583702   8.358088   7.138026   4.663589   5.441975
    17  H    8.288953   8.478881   7.531868   5.327173   4.670913
    18  H    6.355229   6.854048   6.219572   4.606906   2.719906
    19  H    4.016571   4.787703   4.552002   3.963442   1.081115
    20  H    2.126381   3.375677   3.876732   4.695013   2.652736
    21  H    1.081092   2.150250   3.407335   5.381095   4.552816
    22  H    2.150311   1.081119   2.142626   4.621860   5.230148
    23  H    3.409068   2.145948   1.083029   2.689951   4.562015
    24  H    4.820753   4.121261   2.795767   1.105948   3.679780
    25  H    4.820753   4.121261   2.795767   1.105948   3.679780
                   11         12         13         14         15
    11  C    0.000000
    12  C    1.384229   0.000000
    13  C    2.524386   2.862426   0.000000
    14  C    2.875445   2.475151   1.432286   0.000000
    15  H    2.178766   3.422189   4.155070   4.925496   0.000000
    16  H    3.477583   3.984861   5.977814   6.262554   2.498444
    17  H    3.865166   3.434766   6.195284   5.891002   4.269251
    18  H    3.342812   2.133627   4.883127   4.096543   4.908526
    19  H    3.428030   2.189916   3.428983   2.145245   5.575733
    20  H    4.902701   4.106835   3.434767   2.159598   7.031291
    21  H    6.177333   5.852498   3.881529   3.394772   8.026824
    22  H    5.867564   6.111390   3.355777   3.845192   7.198495
    23  H    4.135004   4.863380   2.121620   3.402022   4.975043
    24  H    2.076521   3.201914   2.164086   3.295752   2.576802
    25  H    2.076521   3.201914   2.164086   3.295752   2.576802
                   16         17         18         19         20
    16  H    0.000000
    17  H    2.502276   0.000000
    18  H    4.316816   2.461727   0.000000
    19  H    6.039774   4.824362   2.509821   0.000000
    20  H    8.087716   7.196733   4.935490   2.425828   0.000000
    21  H    9.629204   9.218374   7.165048   4.720896   2.465978
    22  H    9.272985   9.517798   7.933792   5.852073   4.264945
    23  H    7.261001   7.994525   6.953872   5.512054   4.959420
    24  H    4.763194   5.726759   5.250643   4.736786   5.393262
    25  H    4.763194   5.726759   5.250643   4.736786   5.393262
                   21         22         23         24         25
    21  H    0.000000
    22  H    2.467005   0.000000
    23  H    4.288614   2.456002   0.000000
    24  H    5.877781   4.850767   2.720674   0.000000
    25  H    5.877781   4.850767   2.720674   1.718620   0.000000
 Stoichiometry    C14H11(1+)
 Framework group  CS[SG(C14H9),X(H2)]
 Deg. of freedom    46
 Full point group                 CS      NOp   2
 Largest Abelian subgroup         CS      NOp   2
 Largest concise Abelian subgroup CS      NOp   2
                         Standard orientation:                         
 ---------------------------------------------------------------------
 Center     Atomic      Atomic             Coordinates (Angstroms)
 Number     Number       Type             X           Y           Z
 ---------------------------------------------------------------------
      1          6           0        2.468265    1.466088    0.000000
      2          6           0        2.523685    2.852697    0.000000
      3          6           0        1.323174    3.516606    0.000000
      4          6           0        0.062854    2.785656    0.000000
      5          6           0       -2.520070   -1.409468    0.000000
      6          6           0       -2.533994   -2.760799    0.000000
      7          6           0       -1.326378   -3.469970    0.000000
      8          6           0       -0.098904   -2.806323    0.000000
      9          6           0        1.256228   -0.729046    0.000000
     10          6           0       -1.259637    0.678523    0.000000
     11          6           0        1.207103    0.733609    0.000000
     12          6           0       -0.000000    1.411098    0.000000
     13          6           0       -0.058270   -1.450735    0.000000
     14          6           0       -1.281868   -0.706255    0.000000
     15          1           0        3.380880    0.880973    0.000000
     16          1           0        3.465616    3.377980    0.000000
     17          1           0        1.280950    4.598070    0.000000
     18          1           0       -0.851188    3.367585    0.000000
     19          1           0       -2.183255    1.240429    0.000000
     20          1           0       -3.437568   -0.835948    0.000000
     21          1           0       -3.470035   -3.301713    0.000000
     22          1           0       -1.342717   -4.550966    0.000000
     23          1           0        0.817808   -3.383029    0.000000
     24          1           0        1.883196   -1.031731    0.859310
     25          1           0        1.883196   -1.031731   -0.859310
 ---------------------------------------------------------------------
 Rotational constants (GHZ):           2.1373864           0.4445277           0.3687928
 Standard basis: 6-311++G(d,p) (5D, 7F)
 There are   299 symmetry adapted cartesian basis functions of A'  symmetry.
 There are   100 symmetry adapted cartesian basis functions of A"  symmetry.
 There are   285 symmetry adapted basis functions of A'  symmetry.
 There are   100 symmetry adapted basis functions of A"  symmetry.
   385 basis functions,   603 primitive gaussians,   399 cartesian basis functions
    47 alpha electrons       47 beta electrons
       nuclear repulsion energy       781.3501550586 Hartrees.
 NAtoms=   25 NActive=   25 NUniq=   24 SFac= 1.09D+00 NAtFMM=   60 NAOKFM=F Big=F
 Integral buffers will be    131072 words long.
 Regular integral format.
 Two-electron integral symmetry is turned on.
 Nuclear repulsion after empirical dispersion term =      781.3491764103 Hartrees.
 One-electron integrals computed using PRISM.
 NBasis=   385 RedAO= T EigKep=  1.11D-06  NBF=   285   100
 NBsUse=   379 1.00D-06 EigRej=  8.33D-07 NBFU=   279   100
 ExpMin= 3.60D-02 ExpMax= 4.56D+03 ExpMxC= 6.82D+02 IAcc=3 IRadAn=         5 AccDes= 0.00D+00
 Harris functional with IExCor= 1009 and IRadAn=       5 diagonalized for initial guess.
 HarFok:  IExCor= 1009 AccDes= 0.00D+00 IRadAn=         5 IDoV= 1 UseB2=F ITyADJ=14
 ICtDFT=  3500011 ScaDFX=  1.000000  1.000000  1.000000  1.000000
 FoFCou: FMM=F IPFlag=           0 FMFlag=      100000 FMFlg1=           0
         NFxFlg=           0 DoJE=T BraDBF=F KetDBF=T FulRan=T
         wScrn=  0.000000 ICntrl=       500 IOpCl=  0 I1Cent=   200000004 NGrid=           0
         NMat0=    1 NMatS0=      1 NMatT0=    0 NMatD0=    1 NMtDS0=    0 NMtDT0=    0
 Petite list used in FoFCou.
 Initial guess orbital symmetries:
       Occupied  (A') (A') (A') (A') (A') (A') (A') (A') (A') (A')
                 (A') (A') (A') (A') (A') (A') (A') (A') (A') (A')
                 (A') (A') (A') (A') (A') (A') (A') (A') (A') (A')
                 (A') (A') (A") (A') (A') (A') (A') (A') (A") (A')
                 (A") (A') (A') (A") (A") (A") (A")
       Virtual   (A") (A") (A") (A") (A") (A') (A') (A') (A') (A")
                 (A") (A') (A') (A') (A") (A') (A') (A') (A') (A")
                 (A') (A") (A') (A') (A') (A") (A') (A') (A") (A')
                 (A') (A') (A') (A') (A") (A') (A") (A') (A') (A')
                 (A") (A') (A") (A') (A') (A') (A') (A') (A") (A')
                 (A') (A') (A") (A") (A') (A') (A') (A") (A") (A')
                 (A') (A') (A') (A') (A') (A') (A") (A') (A') (A")
                 (A') (A') (A') (A') (A') (A') (A') (A') (A') (A')
                 (A') (A') (A') (A') (A') (A') (A') (A') (A') (A')
                 (A') (A') (A') (A') (A') (A') (A') (A") (A") (A')
                 (A') (A") (A') (A") (A') (A") (A') (A") (A") (A')
                 (A") (A') (A') (A') (A") (A') (A') (A") (A") (A')
                 (A") (A") (A') (A') (A') (A") (A') (A') (A') (A")
                 (A') (A') (A') (A') (A') (A') (A") (A') (A') (A')
                 (A') (A') (A') (A') (A') (A') (A') (A') (A') (A")
                 (A") (A') (A") (A") (A') (A') (A') (A") (A') (A")
                 (A") (A') (A") (A") (A") (A') (A') (A') (A') (A')
                 (A') (A") (A') (A') (A") (A') (A') (A') (A') (A")
                 (A') (A') (A') (A') (A") (A") (A') (A') (A") (A")
                 (A") (A') (A') (A") (A') (A') (A') (A") (A') (A')
                 (A") (A") (A") (A') (A') (A") (A') (A") (A') (A')
                 (A") (A") (A') (A") (A') (A') (A") (A') (A') (A')
                 (A") (A') (A') (A') (A") (A') (A') (A') (A") (A")
                 (A') (A') (A') (A") (A') (A') (A") (A') (A") (A')
                 (A") (A') (A') (A') (A') (A") (A') (A') (A') (A")
                 (A') (A') (A') (A") (A") (A') (A') (A") (A') (A')
                 (A') (A") (A') (A") (A') (A') (A') (A") (A') (A")
                 (A') (A') (A') (A') (A") (A') (A") (A') (A") (A")
                 (A') (A') (A") (A") (A") (A') (A') (A') (A') (A')
                 (A') (A') (A') (A') (A') (A') (A') (A') (A') (A')
                 (A') (A') (A') (A") (A') (A') (A') (A') (A') (A')
                 (A') (A') (A') (A') (A') (A') (A') (A') (A') (A')
                 (A') (A') (A') (A') (A') (A') (A') (A') (A') (A')
                 (A') (A')
 The electronic state of the initial guess is 1-A'.
 Requested convergence on RMS density matrix=1.00D-08 within 128 cycles.
 Requested convergence on MAX density matrix=1.00D-06.
 Requested convergence on             energy=1.00D-06.
 No special actions if energy rises.
 SCF Done:  E(RM062X) =  -539.747006695     A.U. after   16 cycles
            NFock= 16  Conv=0.36D-08     -V/T= 2.0041
 DoSCS=F DFT=T ScalE2(SS,OS)=  1.000000  1.000000
 ExpMin= 3.60D-02 ExpMax= 4.56D+03 ExpMxC= 6.82D+02 IAcc=3 IRadAn=         5 AccDes= 0.00D+00
 HarFok:  IExCor=  205 AccDes= 0.00D+00 IRadAn=         5 IDoV=-2 UseB2=F ITyADJ=14
 ICtDFT= 12500011 ScaDFX=  1.000000  1.000000  1.000000  1.000000
 Range of M.O.s used for correlation:    15   379
 NBasis=   385 NAE=    47 NBE=    47 NFC=    14 NFV=     0
 NROrb=    365 NOA=    33 NOB=    33 NVA=   332 NVB=   332

 **** Warning!!: The largest alpha MO coefficient is  0.14127879D+03

 Orbital symmetries:
       Occupied  (A') (A') (A') (A') (A') (A') (A') (A') (A') (A')
                 (A') (A') (A') (A') (A') (A') (A') (A') (A') (A')
                 (A') (A') (A') (A') (A') (A') (A') (A') (A') (A')
                 (A') (A") (A') (A') (A') (A') (A') (A") (A') (A")
                 (A') (A') (A') (A") (A") (A") (A")
       Virtual   (A") (A") (A") (A") (A') (A') (A') (A') (A") (A')
                 (A') (A") (A') (A') (A") (A') (A") (A') (A') (A')
                 (A") (A") (A') (A') (A') (A") (A') (A") (A') (A')
                 (A") (A') (A") (A') (A') (A') (A') (A') (A") (A')
                 (A") (A') (A') (A") (A") (A') (A") (A') (A") (A')
                 (A') (A') (A') (A') (A') (A") (A') (A') (A') (A')
                 (A') (A") (A') (A') (A') (A") (A') (A') (A') (A')
                 (A') (A') (A') (A') (A') (A') (A') (A') (A') (A')
                 (A') (A') (A') (A') (A') (A') (A') (A') (A') (A')
                 (A') (A') (A') (A') (A") (A") (A') (A") (A') (A")
                 (A') (A') (A') (A') (A") (A") (A') (A") (A") (A')
                 (A') (A") (A') (A') (A") (A') (A') (A") (A') (A")
                 (A") (A') (A") (A') (A') (A') (A") (A') (A') (A')
                 (A') (A') (A') (A') (A') (A') (A') (A') (A') (A')
                 (A') (A') (A') (A") (A') (A') (A') (A') (A') (A')
                 (A') (A") (A') (A') (A") (A') (A") (A") (A') (A")
                 (A") (A') (A') (A") (A') (A") (A") (A") (A') (A')
                 (A') (A') (A") (A') (A') (A") (A') (A') (A') (A")
                 (A') (A') (A') (A") (A") (A') (A') (A") (A") (A')
                 (A") (A') (A') (A") (A') (A") (A') (A') (A') (A')
                 (A") (A") (A") (A') (A") (A') (A') (A") (A') (A')
                 (A') (A") (A') (A") (A") (A') (A") (A') (A') (A")
                 (A') (A') (A') (A') (A") (A') (A') (A') (A") (A")
                 (A') (A') (A') (A") (A') (A') (A') (A") (A") (A')
                 (A") (A') (A') (A") (A') (A') (A') (A') (A') (A')
                 (A") (A') (A') (A') (A') (A") (A") (A") (A') (A')
                 (A') (A') (A') (A') (A') (A') (A') (A") (A') (A')
                 (A') (A") (A') (A") (A") (A") (A') (A") (A") (A')
                 (A') (A") (A") (A') (A") (A") (A') (A') (A') (A')
                 (A') (A') (A') (A') (A') (A') (A') (A') (A') (A')
                 (A') (A') (A') (A") (A') (A') (A') (A') (A') (A')
                 (A') (A') (A') (A') (A') (A') (A') (A') (A') (A')
                 (A') (A') (A') (A') (A') (A') (A') (A') (A') (A')
                 (A') (A')
     4 initial guesses have been made.
 Convergence on wavefunction:    0.001000000000000
 Iteration     1 Dimension     4 NMult     0 NNew      4
 CISAX will form     4 AO SS matrices at one time.
 Iteration     2 Dimension     6 NMult     4 NNew      2
 Iteration     3 Dimension     8 NMult     6 NNew      2
 Iteration     4 Dimension    10 NMult     8 NNew      2
 Iteration     5 Dimension    12 NMult    10 NNew      2
 Iteration     6 Dimension    14 NMult    12 NNew      2
 ***********************************************************************
 Excited states from <AA,BB:AA,BB> singles matrix:
 ***********************************************************************
 
 Ground to excited state transition densities written to RWF  633
 Ground to excited state transition electric dipole moments (Au):
       state          X           Y           Z        Dip. S.      Osc.
         1         0.4807     -0.1854      0.0000      0.2654      0.0166
 Ground to excited state transition velocity dipole moments (Au):
       state          X           Y           Z        Dip. S.      Osc.
         1        -0.0484      0.0245      0.0000      0.0029      0.0209
 Ground to excited state transition magnetic dipole moments (Au):
       state          X           Y           Z
         1        -0.0000      0.0000      0.1557
 Ground to excited state transition velocity quadrupole moments (Au):
       state          XX          YY          ZZ          XY          XZ          YZ
         1        -0.0068      0.2385     -0.0075      0.0444      0.0000      0.0000
 <0|del|b> * <b|rxdel|0> + <0|del|b> * <b|delr+rdel|0>
 Rotatory Strengths (R) in cgs (10**-40 erg-esu-cm/Gauss)
       state          XX          YY          ZZ    R(velocity)    E-M Angle
         1         0.0000      0.0000      0.0000      0.0000       90.00
 1/2[<0|r|b>*<b|rxdel|0> + (<0|rxdel|b>*<b|r|0>)*]
 Rotatory Strengths (R) in cgs (10**-40 erg-esu-cm/Gauss)
       state          XX          YY          ZZ     R(length)
         1         0.0000      0.0000     -0.0000      0.0000
  1/2[<0|del|b>*<b|r|0> + (<0|r|b>*<b|del|0>)*] (Au)
       state          X           Y           Z        Dip. S.   Osc.(frdel)
         1        -0.0233     -0.0045      0.0000      0.0278      0.0186

 Excitation energies and oscillator strengths:
 
 Excited State   1:      Singlet-A'     2.5533 eV  485.58 nm  f=0.0166  <S**2>=0.000
      47 -> 48         0.70340
 This state for optimization and/or second-order correction.
 Total Energy, E(TD-HF/TD-DFT) =  -539.653173847    
 Copying the excited state density for this state as the 1-particle RhoCI density.
 SavETr:  write IOETrn=   770 NScale= 10 NData=  16 NLR=1 NState=    1 LETran=      28.

 **********************************************************************

            Population analysis using the SCF Density.

 **********************************************************************

 Orbital symmetries:
       Occupied  (A') (A') (A') (A') (A') (A') (A') (A') (A') (A')
                 (A') (A') (A') (A') (A') (A') (A') (A') (A') (A')
                 (A') (A') (A') (A') (A') (A') (A') (A') (A') (A')
                 (A') (A") (A') (A') (A') (A') (A') (A") (A') (A")
                 (A') (A') (A') (A") (A") (A") (A")
       Virtual   (A") (A") (A") (A") (A') (A') (A') (A') (A") (A')
                 (A') (A") (A') (A') (A") (A') (A") (A') (A') (A')
                 (A") (A") (A') (A') (A') (A") (A') (A") (A') (A')
                 (A") (A') (A") (A') (A') (A') (A') (A') (A") (A')
                 (A") (A') (A') (A") (A") (A') (A") (A') (A") (A')
                 (A') (A') (A') (A') (A') (A") (A') (A') (A') (A')
                 (A') (A") (A') (A') (A') (A") (A') (A') (A') (A')
                 (A') (A') (A') (A') (A') (A') (A') (A') (A') (A')
                 (A') (A') (A') (A') (A') (A') (A') (A') (A') (A')
                 (A') (A') (A') (A') (A") (A") (A') (A") (A') (A")
                 (A') (A') (A') (A') (A") (A") (A') (A") (A") (A')
                 (A') (A") (A') (A') (A") (A') (A') (A") (A') (A")
                 (A") (A') (A") (A') (A') (A') (A") (A') (A') (A')
                 (A') (A') (A') (A') (A') (A') (A') (A') (A') (A')
                 (A') (A') (A') (A") (A') (A') (A') (A') (A') (A')
                 (A') (A") (A') (A') (A") (A') (A") (A") (A') (A")
                 (A") (A') (A') (A") (A') (A") (A") (A") (A') (A')
                 (A') (A') (A") (A') (A') (A") (A') (A') (A') (A")
                 (A') (A') (A') (A") (A") (A') (A') (A") (A") (A')
                 (A") (A') (A') (A") (A') (A") (A') (A') (A') (A')
                 (A") (A") (A") (A') (A") (A') (A') (A") (A') (A')
                 (A') (A") (A') (A") (A") (A') (A") (A') (A') (A")
                 (A') (A') (A') (A') (A") (A') (A') (A') (A") (A")
                 (A') (A') (A') (A") (A') (A') (A') (A") (A") (A')
                 (A") (A') (A') (A") (A') (A') (A') (A') (A') (A')
                 (A") (A') (A') (A') (A') (A") (A") (A") (A') (A')
                 (A') (A') (A') (A') (A') (A') (A') (A") (A') (A')
                 (A') (A") (A') (A") (A") (A") (A') (A") (A") (A')
                 (A') (A") (A") (A') (A") (A") (A') (A') (A') (A')
                 (A') (A') (A') (A') (A') (A') (A') (A') (A') (A')
                 (A') (A') (A') (A") (A') (A') (A') (A') (A') (A')
                 (A') (A') (A') (A') (A') (A') (A') (A') (A') (A')
                 (A') (A') (A') (A') (A') (A') (A') (A') (A') (A')
                 (A') (A')
 The electronic state is 1-A'.
 Alpha  occ. eigenvalues --  -10.77488 -10.73990 -10.72982 -10.72488 -10.72426
 Alpha  occ. eigenvalues --  -10.72053 -10.71716 -10.70985 -10.70568 -10.70328
 Alpha  occ. eigenvalues --  -10.70066 -10.69699 -10.69605 -10.69178  -1.16657
 Alpha  occ. eigenvalues --   -1.12488  -1.06933  -1.06004  -1.01260  -1.00633
 Alpha  occ. eigenvalues --   -0.95382  -0.91000  -0.86465  -0.85885  -0.83742
 Alpha  occ. eigenvalues --   -0.78269  -0.76255  -0.74330  -0.69958  -0.69381
 Alpha  occ. eigenvalues --   -0.68158  -0.68077  -0.67974  -0.65612  -0.64224
 Alpha  occ. eigenvalues --   -0.62578  -0.61337  -0.60701  -0.59207  -0.59032
 Alpha  occ. eigenvalues --   -0.56981  -0.55263  -0.54324  -0.52440  -0.47814
 Alpha  occ. eigenvalues --   -0.46148  -0.43299
 Alpha virt. eigenvalues --   -0.26118  -0.14666  -0.14055  -0.12745  -0.11204
 Alpha virt. eigenvalues --   -0.10104  -0.09286  -0.07939  -0.07882  -0.07493
 Alpha virt. eigenvalues --   -0.07223  -0.07125  -0.05649  -0.05568  -0.05374
 Alpha virt. eigenvalues --   -0.03873  -0.03684  -0.03267  -0.03131  -0.02146
 Alpha virt. eigenvalues --   -0.01331  -0.00984   0.00179   0.00591   0.00634
 Alpha virt. eigenvalues --    0.01073   0.01492   0.01922   0.02084   0.02301
 Alpha virt. eigenvalues --    0.02446   0.02678   0.02845   0.03195   0.03480
 Alpha virt. eigenvalues --    0.04198   0.04495   0.04747   0.05048   0.05415
 Alpha virt. eigenvalues --    0.06012   0.06285   0.06559   0.07071   0.07287
 Alpha virt. eigenvalues --    0.07917   0.08019   0.08343   0.08730   0.08888
 Alpha virt. eigenvalues --    0.09429   0.09589   0.09906   0.10770   0.10914
 Alpha virt. eigenvalues --    0.11138   0.12032   0.12243   0.12554   0.13058
 Alpha virt. eigenvalues --    0.13501   0.13523   0.13949   0.14260   0.15684
 Alpha virt. eigenvalues --    0.16358   0.16566   0.17292   0.17318   0.17729
 Alpha virt. eigenvalues --    0.18140   0.19070   0.19374   0.19770   0.20114
 Alpha virt. eigenvalues --    0.21439   0.21705   0.22614   0.23264   0.23600
 Alpha virt. eigenvalues --    0.24044   0.24477   0.25487   0.26976   0.27632
 Alpha virt. eigenvalues --    0.28893   0.29226   0.30010   0.31358   0.35742
 Alpha virt. eigenvalues --    0.36531   0.38246   0.39289   0.40937   0.41153
 Alpha virt. eigenvalues --    0.42003   0.42015   0.42984   0.43725   0.44491
 Alpha virt. eigenvalues --    0.44710   0.45166   0.45768   0.46536   0.47807
 Alpha virt. eigenvalues --    0.48274   0.48708   0.49045   0.50633   0.51051
 Alpha virt. eigenvalues --    0.51139   0.52173   0.52291   0.52691   0.54155
 Alpha virt. eigenvalues --    0.54301   0.54594   0.55573   0.56161   0.57625
 Alpha virt. eigenvalues --    0.58205   0.59140   0.61581   0.62314   0.62516
 Alpha virt. eigenvalues --    0.63132   0.63459   0.64930   0.65191   0.67730
 Alpha virt. eigenvalues --    0.70174   0.70397   0.71406   0.72643   0.72970
 Alpha virt. eigenvalues --    0.75411   0.76078   0.76495   0.76696   0.77128
 Alpha virt. eigenvalues --    0.77900   0.78155   0.78379   0.79951   0.80382
 Alpha virt. eigenvalues --    0.81209   0.81542   0.82649   0.82984   0.85331
 Alpha virt. eigenvalues --    0.86942   0.87756   0.88202   0.89513   0.90754
 Alpha virt. eigenvalues --    0.91045   0.91647   0.93443   0.94577   0.96193
 Alpha virt. eigenvalues --    0.97130   0.99778   1.01335   1.01361   1.02568
 Alpha virt. eigenvalues --    1.02964   1.03376   1.05048   1.07002   1.09098
 Alpha virt. eigenvalues --    1.19627   1.22657   1.23506   1.24200   1.28977
 Alpha virt. eigenvalues --    1.29735   1.32701   1.34213   1.35733   1.35921
 Alpha virt. eigenvalues --    1.39134   1.39374   1.40583   1.42807   1.43293
 Alpha virt. eigenvalues --    1.43337   1.44470   1.46386   1.46508   1.47627
 Alpha virt. eigenvalues --    1.47773   1.48528   1.51893   1.53749   1.55694
 Alpha virt. eigenvalues --    1.55862   1.56213   1.56613   1.57894   1.61552
 Alpha virt. eigenvalues --    1.62677   1.63422   1.64444   1.66081   1.68229
 Alpha virt. eigenvalues --    1.68487   1.68739   1.69950   1.74491   1.76095
 Alpha virt. eigenvalues --    1.77211   1.78134   1.79699   1.79904   1.81066
 Alpha virt. eigenvalues --    1.82561   1.83164   1.83646   1.83783   1.84185
 Alpha virt. eigenvalues --    1.84815   1.85304   1.86634   1.88525   1.91494
 Alpha virt. eigenvalues --    1.92277   1.94027   1.95546   1.97933   1.98185
 Alpha virt. eigenvalues --    1.99921   2.02512   2.04755   2.07394   2.11656
 Alpha virt. eigenvalues --    2.12333   2.14459   2.15331   2.19079   2.21235
 Alpha virt. eigenvalues --    2.22674   2.28276   2.30530   2.34313   2.34645
 Alpha virt. eigenvalues --    2.36507   2.38516   2.39773   2.42313   2.44272
 Alpha virt. eigenvalues --    2.46071   2.46630   2.49026   2.53021   2.53785
 Alpha virt. eigenvalues --    2.54413   2.56879   2.58027   2.58560   2.59276
 Alpha virt. eigenvalues --    2.59989   2.61468   2.62174   2.63624   2.63676
 Alpha virt. eigenvalues --    2.64911   2.65030   2.65048   2.65803   2.68010
 Alpha virt. eigenvalues --    2.68301   2.70911   2.71543   2.73422   2.74811
 Alpha virt. eigenvalues --    2.76254   2.78130   2.79584   2.83419   2.83437
 Alpha virt. eigenvalues --    2.84876   2.86299   2.92154   2.97228   2.99345
 Alpha virt. eigenvalues --    3.00265   3.04995   3.08385   3.11022   3.14805
 Alpha virt. eigenvalues --    3.20139   3.21215   3.25574   3.29227   3.31274
 Alpha virt. eigenvalues --    3.32886   3.35322   3.44555   3.46646   3.46938
 Alpha virt. eigenvalues --    3.48492   3.50048   3.56485   3.65346   3.67306
 Alpha virt. eigenvalues --    3.68434   3.93025   3.93785   3.95216   3.96811
 Alpha virt. eigenvalues --    4.03817   4.06155   4.07832   4.12515   4.35118
 Alpha virt. eigenvalues --    4.60600   4.68440   4.70633  23.45080  23.59609
 Alpha virt. eigenvalues --   23.78027  23.80059  23.83309  23.89411  23.92255
 Alpha virt. eigenvalues --   23.95293  23.95992  23.99243  24.06120  24.09999
 Alpha virt. eigenvalues --   24.12319  24.16178
          Condensed to atoms (all electrons):
               1          2          3          4          5          6
     1  C    9.235636  -0.206489  -0.280634   2.406661  -0.119468  -0.111289
     2  C   -0.206489   7.251051   0.170428  -1.262659   0.031906  -0.012408
     3  C   -0.280634   0.170428   6.617565   0.863720  -0.149846   0.016848
     4  C    2.406661  -1.262659   0.863720  10.505003  -0.380791  -0.106470
     5  C   -0.119468   0.031906  -0.149846  -0.380791  11.773400   0.688151
     6  C   -0.111289  -0.012408   0.016848  -0.106470   0.688151   6.627411
     7  C    0.006535  -0.000759  -0.015642  -0.051389  -0.937170   0.451512
     8  C    0.416091  -0.042809  -0.079303   0.010418   1.614162  -0.698495
     9  C   -1.113558  -0.776832   0.292991  -0.515266   0.171989   0.291033
    10  C   -1.441320   0.402223  -0.482850  -2.271994  -2.889689  -0.212607
    11  C    0.283129  -1.023162   1.159077  -0.366157  -1.629530  -0.251333
    12  C   -2.879218   1.969953  -1.576050  -1.632273  -0.534606  -0.073323
    13  C    0.335451  -0.348202  -0.075060  -1.375874  -0.371148   0.824188
    14  C   -1.047949  -0.009804  -0.334559  -0.162400  -1.647602  -1.322597
    15  H    0.372117  -0.109692   0.002986   0.030917   0.003802   0.000911
    16  H   -0.014728   0.369819  -0.009276   0.008159  -0.001182  -0.000277
    17  H   -0.036669  -0.002425   0.363905  -0.064885   0.000519   0.000372
    18  H    0.055961   0.001149  -0.083859   0.452195   0.006231  -0.005360
    19  H   -0.048934  -0.007382   0.051960  -0.058305  -0.088761   0.051185
    20  H    0.006924   0.002158  -0.005001   0.006110   0.472007  -0.082618
    21  H   -0.001466  -0.000354   0.000418   0.000027  -0.070779   0.384169
    22  H    0.001223   0.000416  -0.000373  -0.001754   0.018992  -0.023872
    23  H    0.004524  -0.003036   0.001314   0.006736   0.023418  -0.004096
    24  H    0.024590   0.012040  -0.001918  -0.013832  -0.010668  -0.001132
    25  H    0.024590   0.012040  -0.001918  -0.013832  -0.010668  -0.001132
               7          8          9         10         11         12
     1  C    0.006535   0.416091  -1.113558  -1.441320   0.283129  -2.879218
     2  C   -0.000759  -0.042809  -0.776832   0.402223  -1.023162   1.969953
     3  C   -0.015642  -0.079303   0.292991  -0.482850   1.159077  -1.576050
     4  C   -0.051389   0.010418  -0.515266  -2.271994  -0.366157  -1.632273
     5  C   -0.937170   1.614162   0.171989  -2.889689  -1.629530  -0.534606
     6  C    0.451512  -0.698495   0.291033  -0.212607  -0.251333  -0.073323
     7  C    7.217663   0.630769  -0.896595   0.107609  -0.204515  -0.347414
     8  C    0.630769   8.261781  -1.154854  -1.149844   0.186911  -1.188082
     9  C   -0.896595  -1.154854   9.696456   0.235549   1.411355  -1.637350
    10  C    0.107609  -1.149844   0.235549   9.104893  -0.518394   2.485130
    11  C   -0.204515   0.186911   1.411355  -0.518394  14.205685  -3.057920
    12  C   -0.347414  -1.188082  -1.637350   2.485130  -3.057920  15.793635
    13  C   -0.732067   0.353242   1.634898  -0.262542   1.018355  -4.827186
    14  C    0.888595  -1.650553  -2.213033   2.359105  -4.645379   3.084546
    15  H   -0.002070   0.007401   0.098613  -0.012066  -0.036872  -0.043473
    16  H    0.000284   0.000228   0.004238  -0.007170   0.025327  -0.032618
    17  H   -0.000424  -0.001200  -0.006785   0.020095  -0.026473   0.099187
    18  H    0.002009   0.006769  -0.026524   0.015877  -0.000572  -0.071432
    19  H   -0.008657  -0.041753   0.074287   0.423313   0.085124  -0.035785
    20  H    0.004025   0.045331  -0.021202   0.004313  -0.012698  -0.025287
    21  H   -0.024976  -0.017242  -0.004258   0.019765  -0.006342   0.005211
    22  H    0.384101  -0.019920   0.000949  -0.010995   0.003581  -0.011116
    23  H   -0.105231   0.366470   0.085382  -0.006703  -0.005826   0.008005
    24  H    0.016472   0.039802   0.357381   0.005686  -0.004472  -0.059740
    25  H    0.016472   0.039802   0.357381   0.005686  -0.004472  -0.059740
              13         14         15         16         17         18
     1  C    0.335451  -1.047949   0.372117  -0.014728  -0.036669   0.055961
     2  C   -0.348202  -0.009804  -0.109692   0.369819  -0.002425   0.001149
     3  C   -0.075060  -0.334559   0.002986  -0.009276   0.363905  -0.083859
     4  C   -1.375874  -0.162400   0.030917   0.008159  -0.064885   0.452195
     5  C   -0.371148  -1.647602   0.003802  -0.001182   0.000519   0.006231
     6  C    0.824188  -1.322597   0.000911  -0.000277   0.000372  -0.005360
     7  C   -0.732067   0.888595  -0.002070   0.000284  -0.000424   0.002009
     8  C    0.353242  -1.650553   0.007401   0.000228  -0.001200   0.006769
     9  C    1.634898  -2.213033   0.098613   0.004238  -0.006785  -0.026524
    10  C   -0.262542   2.359105  -0.012066  -0.007170   0.020095   0.015877
    11  C    1.018355  -4.645379  -0.036872   0.025327  -0.026473  -0.000572
    12  C   -4.827186   3.084546  -0.043473  -0.032618   0.099187  -0.071432
    13  C   14.651352  -4.256094   0.011048   0.002010  -0.006217  -0.012365
    14  C   -4.256094  16.454835   0.003371  -0.006767   0.005237  -0.004979
    15  H    0.011048   0.003371   0.447650  -0.008740   0.001080  -0.000021
    16  H    0.002010  -0.006767  -0.008740   0.423466  -0.005517   0.001859
    17  H   -0.006217   0.005237   0.001080  -0.005517   0.425961  -0.010391
    18  H   -0.012365  -0.004979  -0.000021   0.001859  -0.010391   0.461897
    19  H    0.077702  -0.098489   0.000185  -0.000445   0.000983  -0.007235
    20  H   -0.010365  -0.044622  -0.000097   0.000009  -0.000108   0.001262
    21  H   -0.024095   0.081827   0.000009  -0.000006   0.000010  -0.000178
    22  H    0.023945  -0.028198  -0.000133   0.000007  -0.000007   0.000022
    23  H   -0.029652  -0.006205   0.000561  -0.000123   0.000019  -0.000133
    24  H    0.030272  -0.059173  -0.000844   0.000632  -0.000152   0.000244
    25  H    0.030272  -0.059173  -0.000844   0.000632  -0.000152   0.000244
              19         20         21         22         23         24
     1  C   -0.048934   0.006924  -0.001466   0.001223   0.004524   0.024590
     2  C   -0.007382   0.002158  -0.000354   0.000416  -0.003036   0.012040
     3  C    0.051960  -0.005001   0.000418  -0.000373   0.001314  -0.001918
     4  C   -0.058305   0.006110   0.000027  -0.001754   0.006736  -0.013832
     5  C   -0.088761   0.472007  -0.070779   0.018992   0.023418  -0.010668
     6  C    0.051185  -0.082618   0.384169  -0.023872  -0.004096  -0.001132
     7  C   -0.008657   0.004025  -0.024976   0.384101  -0.105231   0.016472
     8  C   -0.041753   0.045331  -0.017242  -0.019920   0.366470   0.039802
     9  C    0.074287  -0.021202  -0.004258   0.000949   0.085382   0.357381
    10  C    0.423313   0.004313   0.019765  -0.010995  -0.006703   0.005686
    11  C    0.085124  -0.012698  -0.006342   0.003581  -0.005826  -0.004472
    12  C   -0.035785  -0.025287   0.005211  -0.011116   0.008005  -0.059740
    13  C    0.077702  -0.010365  -0.024095   0.023945  -0.029652   0.030272
    14  C   -0.098489  -0.044622   0.081827  -0.028198  -0.006205  -0.059173
    15  H    0.000185  -0.000097   0.000009  -0.000133   0.000561  -0.000844
    16  H   -0.000445   0.000009  -0.000006   0.000007  -0.000123   0.000632
    17  H    0.000983  -0.000108   0.000010  -0.000007   0.000019  -0.000152
    18  H   -0.007235   0.001262  -0.000178   0.000022  -0.000133   0.000244
    19  H    0.445116  -0.005603   0.001896  -0.000638   0.000470   0.000604
    20  H   -0.005603   0.445696  -0.009943   0.001999   0.000255   0.000121
    21  H    0.001896  -0.009943   0.418223  -0.007214   0.001748  -0.000128
    22  H   -0.000638   0.001999  -0.007214   0.414023  -0.008708   0.000620
    23  H    0.000470   0.000255   0.001748  -0.008708   0.431662  -0.000938
    24  H    0.000604   0.000121  -0.000128   0.000620  -0.000938   0.493165
    25  H    0.000604   0.000121  -0.000128   0.000620  -0.000938  -0.079333
              25
     1  C    0.024590
     2  C    0.012040
     3  C   -0.001918
     4  C   -0.013832
     5  C   -0.010668
     6  C   -0.001132
     7  C    0.016472
     8  C    0.039802
     9  C    0.357381
    10  C    0.005686
    11  C   -0.004472
    12  C   -0.059740
    13  C    0.030272
    14  C   -0.059173
    15  H   -0.000844
    16  H    0.000632
    17  H   -0.000152
    18  H    0.000244
    19  H    0.000604
    20  H    0.000121
    21  H   -0.000128
    22  H    0.000620
    23  H   -0.000938
    24  H   -0.079333
    25  H    0.493165
 Mulliken charges:
               1
     1  C    0.128288
     2  C   -0.417170
     3  C   -0.444923
     4  C   -0.012065
     5  C    0.037330
     6  C   -0.428770
     7  C   -0.399139
     8  C    0.064876
     9  C   -0.346245
    10  C    0.076929
    11  C   -0.584425
    12  C    0.646946
    13  C   -0.661867
    14  C    0.720060
    15  H    0.234199
    16  H    0.250180
    17  H    0.244037
    18  H    0.217330
    19  H    0.188555
    20  H    0.227213
    21  H    0.253807
    22  H    0.262429
    23  H    0.241024
    24  H    0.250701
    25  H    0.250701
 Sum of Mulliken charges =   1.00000
 Mulliken charges with hydrogens summed into heavy atoms:
               1
     1  C    0.362487
     2  C   -0.166990
     3  C   -0.200886
     4  C    0.205265
     5  C    0.264543
     6  C   -0.174963
     7  C   -0.136710
     8  C    0.305899
     9  C    0.155156
    10  C    0.265483
    11  C   -0.584425
    12  C    0.646946
    13  C   -0.661867
    14  C    0.720060
 Electronic spatial extent (au):  <R**2>=           2856.0107
 Charge=              1.0000 electrons
 Dipole moment (field-independent basis, Debye):
    X=             -0.9170    Y=             -1.2283    Z=              0.0000  Tot=              1.5328
 Quadrupole moment (field-independent basis, Debye-Ang):
   XX=            -48.8875   YY=            -38.3076   ZZ=            -84.1201
   XY=             11.5698   XZ=              0.0000   YZ=             -0.0000
 Traceless Quadrupole moment (field-independent basis, Debye-Ang):
   XX=              8.2176   YY=             18.7975   ZZ=            -27.0150
   XY=             11.5698   XZ=              0.0000   YZ=             -0.0000
 Octapole moment (field-independent basis, Debye-Ang**2):
  XXX=             -6.1365  YYY=            -17.9297  ZZZ=              0.0000  XYY=             -3.8428
  XXY=              1.0587  XXZ=              0.0000  XZZ=              1.4980  YZZ=             -3.4942
  YYZ=              0.0000  XYZ=             -0.0000
 Hexadecapole moment (field-independent basis, Debye-Ang**3):
 XXXX=          -1088.5459 YYYY=          -1767.6728 ZZZZ=            -99.2930 XXXY=           -368.6574
 XXXZ=              0.0000 YYYX=           -306.0149 YYYZ=             -0.0000 ZZZX=             -0.0000
 ZZZY=              0.0000 XXYY=           -444.0678 XXZZ=           -268.4154 YYZZ=           -467.8239
 XXYZ=             -0.0000 YYXZ=             -0.0000 ZZXY=           -198.8276
 N-N= 7.813491764103D+02 E-N=-2.799074861250D+03  KE= 5.375627650842D+02
 Symmetry A'   KE= 5.229019680679D+02
 Symmetry A"   KE= 1.466079701630D+01
 Unable to Open any file for archive entry.
 1\1\GINC-GADI-CPU-CLX-1762\SP\RM062X TD-FC\6-311++G(d,p)\C14H11(1+)\TS
 1578\02-Aug-2022\0\\#n M062X/6-311++G(d,p) TD(NStates=1) EmpiricalDisp
 ersion=GD3 SP\\SP_-150\\1,1\C,0,2.529855,1.358931,0.\C,0,3.746508,0.69
 1464,0.\C,0,3.696361,-0.67948,0.\C,0,2.420231,-1.382463,0.\C,0,-2.5060
 31,-1.432513,0.\C,0,-3.671061,-0.74768,0.\C,0,-3.656033,0.652689,0.\C,
 0,-2.454505,1.362231,0.\C,0,0.024075,1.452269,0.\C,0,-0.0671,-1.429139
 ,0.\C,0,1.25198,0.656015,0.\C,0,1.210071,-0.727579,0.\C,0,-1.272055,0.
 69809,0.\C,0,-1.265071,-0.734179,0.\H,0,2.499071,2.442572,0.\H,0,4.682
 253,1.227689,0.\H,0,4.601212,-1.273274,0.\H,0,2.44755,-2.465684,0.\H,0
 ,-0.061875,-2.510241,0.\H,0,-2.4877,-2.514359,0.\H,0,-4.617162,-1.2707
 99,0.\H,0,-4.590678,1.196064,0.\H,0,-2.475971,2.445047,0.\H,0,0.088,2.
 145537,-0.85931\H,0,0.088,2.145537,0.85931\\Version=ES64L-G16RevC.01\S
 tate=1-A'\HF=-539.7470067\RMSD=3.559e-09\PG=CS [SG(C14H9),X(H2)]\\@
 The archive entry for this job was punched.


 IF IT HAPPENS, IT MUST BE POSSIBLE.

 -- THE UNNAMED LAW FROM PAUL DICKSON'S 
    "THE OFFICIAL RULES"
 Job cpu time:       0 days  0 hours 53 minutes 17.7 seconds.
 Elapsed time:       0 days  0 hours  1 minutes  6.9 seconds.
 File lengths (MBytes):  RWF=    460 Int=      0 D2E=      0 Chk=     15 Scr=      1
 Normal termination of Gaussian 16 at Tue Aug  2 10:45:37 2022.
