 Entering Gaussian System, Link 0=g16
 Initial command:
 /apps/gaussian/g16c01/g16/l1.exe "/jobfs/53796104.gadi-pbs/Gau-3669820.inp" -scrdir="/jobfs/53796104.gadi-pbs/"
 Entering Link 1 = /apps/gaussian/g16c01/g16/l1.exe PID=   3669821.
  
 Copyright (c) 1988-2019, Gaussian, Inc.  All Rights Reserved.
  
 This is part of the Gaussian(R) 16 program.  It is based on
 the Gaussian(R) 09 system (copyright 2009, Gaussian, Inc.),
 the Gaussian(R) 03 system (copyright 2003, Gaussian, Inc.),
 the Gaussian(R) 98 system (copyright 1998, Gaussian, Inc.),
 the Gaussian(R) 94 system (copyright 1995, Gaussian, Inc.),
 the Gaussian 92(TM) system (copyright 1992, Gaussian, Inc.),
 the Gaussian 90(TM) system (copyright 1990, Gaussian, Inc.),
 the Gaussian 88(TM) system (copyright 1988, Gaussian, Inc.),
 the Gaussian 86(TM) system (copyright 1986, Carnegie Mellon
 University), and the Gaussian 82(TM) system (copyright 1983,
 Carnegie Mellon University). Gaussian is a federally registered
 trademark of Gaussian, Inc.
  
 This software contains proprietary and confidential information,
 including trade secrets, belonging to Gaussian, Inc.
  
 This software is provided under written license and may be
 used, copied, transmitted, or stored only in accord with that
 written license.
  
 The following legend is applicable only to US Government
 contracts under FAR:
  
                    RESTRICTED RIGHTS LEGEND
  
 Use, reproduction and disclosure by the US Government is
 subject to restrictions as set forth in subparagraphs (a)
 and (c) of the Commercial Computer Software - Restricted
 Rights clause in FAR 52.227-19.
  
 Gaussian, Inc.
 340 Quinnipiac St., Bldg. 40, Wallingford CT 06492
  
  
 ---------------------------------------------------------------
 Warning -- This program may not be used in any manner that
 competes with the business of Gaussian, Inc. or will provide
 assistance to any competitor of Gaussian, Inc.  The licensee
 of this program is prohibited from giving any competitor of
 Gaussian, Inc. access to this program.  By using this program,
 the user acknowledges that Gaussian, Inc. is engaged in the
 business of creating and licensing software in the field of
 computational chemistry and represents and warrants to the
 licensee that it is not a competitor of Gaussian, Inc. and that
 it will not use this program in any manner prohibited above.
 ---------------------------------------------------------------
  

 Cite this work as:
 Gaussian 16, Revision C.01,
 M. J. Frisch, G. W. Trucks, H. B. Schlegel, G. E. Scuseria, 
 M. A. Robb, J. R. Cheeseman, G. Scalmani, V. Barone, 
 G. A. Petersson, H. Nakatsuji, X. Li, M. Caricato, A. V. Marenich, 
 J. Bloino, B. G. Janesko, R. Gomperts, B. Mennucci, H. P. Hratchian, 
 J. V. Ortiz, A. F. Izmaylov, J. L. Sonnenberg, D. Williams-Young, 
 F. Ding, F. Lipparini, F. Egidi, J. Goings, B. Peng, A. Petrone, 
 T. Henderson, D. Ranasinghe, V. G. Zakrzewski, J. Gao, N. Rega, 
 G. Zheng, W. Liang, M. Hada, M. Ehara, K. Toyota, R. Fukuda, 
 J. Hasegawa, M. Ishida, T. Nakajima, Y. Honda, O. Kitao, H. Nakai, 
 T. Vreven, K. Throssell, J. A. Montgomery, Jr., J. E. Peralta, 
 F. Ogliaro, M. J. Bearpark, J. J. Heyd, E. N. Brothers, K. N. Kudin, 
 V. N. Staroverov, T. A. Keith, R. Kobayashi, J. Normand, 
 K. Raghavachari, A. P. Rendell, J. C. Burant, S. S. Iyengar, 
 J. Tomasi, M. Cossi, J. M. Millam, M. Klene, C. Adamo, R. Cammi, 
 J. W. Ochterski, R. L. Martin, K. Morokuma, O. Farkas, 
 J. B. Foresman, and D. J. Fox, Gaussian, Inc., Wallingford CT, 2019.
 
 ******************************************
 Gaussian 16:  ES64L-G16RevC.01  3-Jul-2019
                 2-Aug-2022 
 ******************************************
 %NProcShared=48
 Will use up to   48 processors via shared memory.
 %mem = 190GB
 ---------------------------------------------------------------
 #n M062X/6-311++G(d,p) TD(NStates=1) EmpiricalDispersion=GD3 SP
 ---------------------------------------------------------------
 1/38=1,172=1/1;
 2/12=2,17=6,18=5,40=1/2;
 3/5=4,6=6,7=1111,11=9,25=1,30=1,74=-55,124=31/1,2,3,8;
 4//1;
 5/5=2,38=5/2;
 8/6=1,10=2,108=1/1;
 9/41=1,42=1,70=2/14;
 6/7=2,8=2,9=2,10=2/1;
 99/5=1,9=1/99;
 ------
 SP_125
 ------
 Symbolic Z-matrix:
 Charge =  1 Multiplicity = 1
 C                     2.45451   1.36223   0. 
 C                     3.65603   0.65269   0. 
 C                     3.67106  -0.74768   0. 
 C                     2.50603  -1.43251   0. 
 C                    -2.42023  -1.38246   0. 
 C                    -3.69636  -0.67948   0. 
 C                    -3.74651   0.69146   0. 
 C                    -2.52986   1.35893   0. 
 C                    -0.02405   1.45227   0. 
 C                     0.0671   -1.42914   0. 
 C                     1.27206   0.69809   0. 
 C                     1.26507  -0.73418   0. 
 C                    -1.25198   0.65602   0. 
 C                    -1.21007  -0.72758   0. 
 H                     2.47597   2.44505   0. 
 H                     4.59068   1.19606   0. 
 H                     4.61716  -1.2708    0. 
 H                     2.4877   -2.51436   0. 
 H                     0.06188  -2.51024   0. 
 H                    -2.44755  -2.46568   0. 
 H                    -4.60121  -1.27327   0. 
 H                    -4.68225   1.22769   0. 
 H                    -2.49907   2.44257   0. 
 H                    -0.088     2.14554  -0.85931 
 H                    -0.088     2.14554   0.85931 
 
                          Input orientation:                          
 ---------------------------------------------------------------------
 Center     Atomic      Atomic             Coordinates (Angstroms)
 Number     Number       Type             X           Y           Z
 ---------------------------------------------------------------------
      1          6           0        2.454505    1.362231    0.000000
      2          6           0        3.656033    0.652689    0.000000
      3          6           0        3.671061   -0.747680    0.000000
      4          6           0        2.506031   -1.432513    0.000000
      5          6           0       -2.420231   -1.382463    0.000000
      6          6           0       -3.696361   -0.679480    0.000000
      7          6           0       -3.746508    0.691464    0.000000
      8          6           0       -2.529855    1.358931    0.000000
      9          6           0       -0.024050    1.452269    0.000000
     10          6           0        0.067100   -1.429139    0.000000
     11          6           0        1.272055    0.698090    0.000000
     12          6           0        1.265071   -0.734179    0.000000
     13          6           0       -1.251980    0.656015    0.000000
     14          6           0       -1.210071   -0.727579    0.000000
     15          1           0        2.475971    2.445047    0.000000
     16          1           0        4.590678    1.196064    0.000000
     17          1           0        4.617162   -1.270799    0.000000
     18          1           0        2.487700   -2.514359    0.000000
     19          1           0        0.061875   -2.510241    0.000000
     20          1           0       -2.447550   -2.465684    0.000000
     21          1           0       -4.601212   -1.273274    0.000000
     22          1           0       -4.682253    1.227689    0.000000
     23          1           0       -2.499071    2.442572    0.000000
     24          1           0       -0.088000    2.145537   -0.859310
     25          1           0       -0.088000    2.145537    0.859310
 ---------------------------------------------------------------------
                    Distance matrix (angstroms):
                    1          2          3          4          5
     1  C    0.000000
     2  C    1.395392   0.000000
     3  C    2.435515   1.400450   0.000000
     4  C    2.795219   2.381296   1.351403   0.000000
     5  C    5.594318   6.408028   6.124279   4.926516   0.000000
     6  C    6.480875   7.472106   7.367738   6.247938   1.456946
     7  C    6.237186   7.402643   7.555889   6.603448   2.461744
     8  C    4.984361   6.226073   6.548982   5.757804   2.743585
     9  C    2.480190   3.765945   4.300421   3.837092   3.711791
    10  C    3.673071   4.149030   3.667822   2.438933   2.487769
    11  C    1.356197   2.384410   2.800979   2.462147   4.238122
    12  C    2.410329   2.764073   2.406028   1.423956   3.741888
    13  C    3.773165   4.908014   5.119247   4.299372   2.349511
    14  C    4.218581   5.058074   4.881173   3.782373   1.375994
    15  H    1.083029   2.145948   3.409068   3.877677   6.214711
    16  H    2.142626   1.081119   2.150311   3.354873   7.470050
    17  H    3.407335   2.150250   1.081092   2.117316   7.038279
    18  H    3.876732   3.375677   2.126381   1.082001   5.036762
    19  H    4.552002   4.787703   4.016571   2.671216   2.726304
    20  H    6.219572   6.854048   6.355229   5.060179   1.083565
    21  H    7.531868   8.478881   8.288953   7.109027   2.183713
    22  H    7.138026   8.358088   8.583702   7.664731   3.453931
    23  H    5.070015   6.410069   6.946095   6.329876   3.825847
    24  H    2.795767   4.121261   4.820753   4.502205   4.315611
    25  H    2.795767   4.121261   4.820753   4.502205   4.315611
                    6          7          8          9         10
     6  C    0.000000
     7  C    1.371861   0.000000
     8  C    2.348586   1.387716   0.000000
     9  C    4.246201   3.799410   2.507543   0.000000
    10  C    3.837399   4.363549   3.810185   2.882849   0.000000
    11  C    5.155857   5.018567   3.858916   1.499558   2.444794
    12  C    4.961734   5.210411   4.333887   2.538186   1.384956
    13  C    2.785417   2.494780   1.458443   1.463500   2.467355
    14  C    2.486755   2.906406   2.468877   2.481609   1.457173
    15  H    6.918118   6.464851   5.122298   2.689928   4.562015
    16  H    8.496628   8.352442   7.122395   4.621835   5.230148
    17  H    8.334526   8.590777   7.615467   5.381073   4.552816
    18  H    6.450534   7.010182   6.338630   4.695000   2.652736
    19  H    4.180433   4.975409   4.656990   3.963442   1.081115
    20  H    2.179462   3.413924   3.825500   4.606920   2.719906
    21  H    1.082288   2.142595   3.349481   5.327194   4.670913
    22  H    2.146923   1.078497   2.156396   4.663614   5.441975
    23  H    3.343757   2.149995   1.084078   2.665789   4.644931
    24  H    4.662553   4.029569   2.705516   1.105949   3.679780
    25  H    4.662553   4.029569   2.705516   1.105949   3.679780
                   11         12         13         14         15
    11  C    0.000000
    12  C    1.432286   0.000000
    13  C    2.524386   2.875445   0.000000
    14  C    2.862426   2.475151   1.384229   0.000000
    15  H    2.121620   3.402022   4.135004   4.863380   0.000000
    16  H    3.355777   3.845192   5.867564   6.111390   2.456002
    17  H    3.881529   3.394772   6.177333   5.852498   4.288614
    18  H    3.434767   2.159598   4.902701   4.106835   4.959420
    19  H    3.428983   2.145245   3.428030   2.189916   5.512054
    20  H    4.883127   4.096543   3.342812   2.133627   6.953872
    21  H    6.195284   5.891002   3.865166   3.434766   7.994525
    22  H    5.977814   6.262554   3.477583   3.984861   7.261001
    23  H    4.155070   4.925496   2.178766   3.422189   4.975043
    24  H    2.164086   3.295752   2.076521   3.201914   2.720674
    25  H    2.164086   3.295752   2.076521   3.201914   2.720674
                   16         17         18         19         20
    16  H    0.000000
    17  H    2.467005   0.000000
    18  H    4.264945   2.465978   0.000000
    19  H    5.852073   4.720896   2.425828   0.000000
    20  H    7.933792   7.165048   4.935490   2.509821   0.000000
    21  H    9.517798   9.218374   7.196733   4.824362   2.461727
    22  H    9.272985   9.629204   8.087716   6.039774   4.316816
    23  H    7.198495   8.026824   7.031291   5.575733   4.908526
    24  H    4.850767   5.877781   5.393262   4.736786   5.250643
    25  H    4.850767   5.877781   5.393262   4.736786   5.250643
                   21         22         23         24         25
    21  H    0.000000
    22  H    2.502276   0.000000
    23  H    4.269251   2.498444   0.000000
    24  H    5.726759   4.763194   2.576802   0.000000
    25  H    5.726759   4.763194   2.576802   1.718620   0.000000
 Stoichiometry    C14H11(1+)
 Framework group  CS[SG(C14H9),X(H2)]
 Deg. of freedom    46
 Full point group                 CS      NOp   2
 Largest Abelian subgroup         CS      NOp   2
 Largest concise Abelian subgroup CS      NOp   2
                         Standard orientation:                         
 ---------------------------------------------------------------------
 Center     Atomic      Atomic             Coordinates (Angstroms)
 Number     Number       Type             X           Y           Z
 ---------------------------------------------------------------------
      1          6           0        0.098902   -2.806322    0.000000
      2          6           0        1.326375   -3.469970    0.000000
      3          6           0        2.533992   -2.760800    0.000000
      4          6           0        2.520069   -1.409468    0.000000
      5          6           0       -0.062853    2.785657    0.000000
      6          6           0       -1.323172    3.516608    0.000000
      7          6           0       -2.523684    2.852700    0.000000
      8          6           0       -2.468265    1.466091    0.000000
      9          6           0       -1.256216   -0.729065    0.000000
     10          6           0        1.259637    0.678523    0.000000
     11          6           0        0.058268   -1.450733    0.000000
     12          6           0        1.281867   -0.706255    0.000000
     13          6           0       -1.207103    0.733611    0.000000
     14          6           0       -0.000000    1.411099    0.000000
     15          1           0       -0.817811   -3.383027    0.000000
     16          1           0        1.342713   -4.550965    0.000000
     17          1           0        3.470032   -3.301714    0.000000
     18          1           0        3.437567   -0.835949    0.000000
     19          1           0        2.183255    1.240429    0.000000
     20          1           0        0.851189    3.367586    0.000000
     21          1           0       -1.280948    4.598072    0.000000
     22          1           0       -3.465615    3.377984    0.000000
     23          1           0       -3.380880    0.880977    0.000000
     24          1           0       -1.883197   -1.031728    0.859310
     25          1           0       -1.883197   -1.031728   -0.859310
 ---------------------------------------------------------------------
 Rotational constants (GHZ):           2.1373863           0.4445277           0.3687928
 Standard basis: 6-311++G(d,p) (5D, 7F)
 There are   299 symmetry adapted cartesian basis functions of A'  symmetry.
 There are   100 symmetry adapted cartesian basis functions of A"  symmetry.
 There are   285 symmetry adapted basis functions of A'  symmetry.
 There are   100 symmetry adapted basis functions of A"  symmetry.
   385 basis functions,   603 primitive gaussians,   399 cartesian basis functions
    47 alpha electrons       47 beta electrons
       nuclear repulsion energy       781.3501468272 Hartrees.
 NAtoms=   25 NActive=   25 NUniq=   24 SFac= 1.09D+00 NAtFMM=   60 NAOKFM=F Big=F
 Integral buffers will be    131072 words long.
 Regular integral format.
 Two-electron integral symmetry is turned on.
 Nuclear repulsion after empirical dispersion term =      781.3491681790 Hartrees.
 One-electron integrals computed using PRISM.
 NBasis=   385 RedAO= T EigKep=  1.11D-06  NBF=   285   100
 NBsUse=   379 1.00D-06 EigRej=  8.33D-07 NBFU=   279   100
 ExpMin= 3.60D-02 ExpMax= 4.56D+03 ExpMxC= 6.82D+02 IAcc=3 IRadAn=         5 AccDes= 0.00D+00
 Harris functional with IExCor= 1009 and IRadAn=       5 diagonalized for initial guess.
 HarFok:  IExCor= 1009 AccDes= 0.00D+00 IRadAn=         5 IDoV= 1 UseB2=F ITyADJ=14
 ICtDFT=  3500011 ScaDFX=  1.000000  1.000000  1.000000  1.000000
 FoFCou: FMM=F IPFlag=           0 FMFlag=      100000 FMFlg1=           0
         NFxFlg=           0 DoJE=T BraDBF=F KetDBF=T FulRan=T
         wScrn=  0.000000 ICntrl=       500 IOpCl=  0 I1Cent=   200000004 NGrid=           0
         NMat0=    1 NMatS0=      1 NMatT0=    0 NMatD0=    1 NMtDS0=    0 NMtDT0=    0
 Petite list used in FoFCou.
 Initial guess orbital symmetries:
       Occupied  (A') (A') (A') (A') (A') (A') (A') (A') (A') (A')
                 (A') (A') (A') (A') (A') (A') (A') (A') (A') (A')
                 (A') (A') (A') (A') (A') (A') (A') (A') (A') (A')
                 (A') (A') (A") (A') (A') (A') (A') (A') (A") (A')
                 (A") (A') (A') (A") (A") (A") (A")
       Virtual   (A") (A") (A") (A") (A") (A') (A') (A') (A') (A")
                 (A") (A') (A') (A') (A") (A') (A') (A') (A') (A")
                 (A') (A") (A') (A') (A') (A") (A') (A') (A") (A')
                 (A') (A') (A') (A') (A") (A') (A") (A') (A') (A')
                 (A") (A') (A") (A') (A') (A') (A') (A') (A") (A')
                 (A') (A') (A") (A") (A') (A') (A') (A") (A") (A')
                 (A') (A') (A') (A') (A') (A') (A") (A') (A') (A")
                 (A') (A') (A') (A') (A') (A') (A') (A') (A') (A')
                 (A') (A') (A') (A') (A') (A') (A') (A') (A') (A')
                 (A') (A') (A') (A') (A') (A') (A') (A") (A") (A')
                 (A') (A") (A') (A") (A') (A") (A') (A") (A") (A')
                 (A") (A') (A') (A') (A") (A') (A') (A") (A") (A')
                 (A") (A") (A') (A') (A') (A") (A') (A') (A') (A")
                 (A') (A') (A') (A') (A') (A') (A") (A') (A') (A')
                 (A') (A') (A') (A') (A') (A') (A') (A') (A') (A")
                 (A") (A') (A") (A") (A') (A') (A') (A") (A') (A")
                 (A") (A') (A") (A") (A") (A') (A') (A') (A') (A')
                 (A') (A") (A') (A') (A") (A') (A') (A') (A') (A")
                 (A') (A') (A') (A') (A") (A") (A') (A') (A") (A")
                 (A") (A') (A') (A") (A') (A') (A') (A") (A') (A')
                 (A") (A") (A") (A') (A') (A") (A') (A") (A') (A')
                 (A") (A") (A') (A") (A') (A') (A") (A') (A') (A')
                 (A") (A') (A') (A') (A") (A') (A') (A') (A") (A")
                 (A') (A') (A') (A") (A') (A') (A") (A') (A") (A')
                 (A") (A') (A') (A') (A') (A") (A') (A') (A') (A")
                 (A') (A') (A') (A") (A") (A') (A') (A") (A') (A')
                 (A') (A") (A') (A") (A') (A') (A') (A") (A') (A")
                 (A') (A') (A') (A') (A") (A') (A") (A') (A") (A")
                 (A') (A') (A") (A") (A") (A') (A') (A') (A') (A')
                 (A') (A') (A') (A') (A') (A') (A') (A') (A') (A')
                 (A') (A') (A') (A") (A') (A') (A') (A') (A') (A')
                 (A') (A') (A') (A') (A') (A') (A') (A') (A') (A')
                 (A') (A') (A') (A') (A') (A') (A') (A') (A') (A')
                 (A') (A')
 The electronic state of the initial guess is 1-A'.
 Requested convergence on RMS density matrix=1.00D-08 within 128 cycles.
 Requested convergence on MAX density matrix=1.00D-06.
 Requested convergence on             energy=1.00D-06.
 No special actions if energy rises.
 SCF Done:  E(RM062X) =  -539.747007051     A.U. after   16 cycles
            NFock= 16  Conv=0.35D-08     -V/T= 2.0041
 DoSCS=F DFT=T ScalE2(SS,OS)=  1.000000  1.000000
 ExpMin= 3.60D-02 ExpMax= 4.56D+03 ExpMxC= 6.82D+02 IAcc=3 IRadAn=         5 AccDes= 0.00D+00
 HarFok:  IExCor=  205 AccDes= 0.00D+00 IRadAn=         5 IDoV=-2 UseB2=F ITyADJ=14
 ICtDFT= 12500011 ScaDFX=  1.000000  1.000000  1.000000  1.000000
 Range of M.O.s used for correlation:    15   379
 NBasis=   385 NAE=    47 NBE=    47 NFC=    14 NFV=     0
 NROrb=    365 NOA=    33 NOB=    33 NVA=   332 NVB=   332

 **** Warning!!: The largest alpha MO coefficient is  0.14128082D+03

 Orbital symmetries:
       Occupied  (A') (A') (A') (A') (A') (A') (A') (A') (A') (A')
                 (A') (A') (A') (A') (A') (A') (A') (A') (A') (A')
                 (A') (A') (A') (A') (A') (A') (A') (A') (A') (A')
                 (A') (A") (A') (A') (A') (A') (A') (A") (A') (A")
                 (A') (A') (A') (A") (A") (A") (A")
       Virtual   (A") (A") (A") (A") (A') (A') (A') (A') (A") (A')
                 (A') (A") (A') (A') (A") (A') (A") (A') (A') (A')
                 (A") (A") (A') (A') (A') (A") (A') (A") (A') (A')
                 (A") (A') (A") (A') (A') (A') (A') (A') (A") (A')
                 (A") (A') (A') (A") (A") (A') (A") (A') (A") (A')
                 (A') (A') (A') (A') (A') (A") (A') (A') (A') (A')
                 (A') (A") (A') (A') (A') (A") (A') (A') (A') (A')
                 (A') (A') (A') (A') (A') (A') (A') (A') (A') (A')
                 (A') (A') (A') (A') (A') (A') (A') (A') (A') (A')
                 (A') (A') (A') (A') (A") (A") (A') (A") (A') (A")
                 (A') (A') (A') (A') (A") (A") (A') (A") (A") (A')
                 (A') (A") (A') (A') (A") (A') (A') (A") (A') (A")
                 (A") (A') (A") (A') (A') (A') (A") (A') (A') (A')
                 (A') (A') (A') (A') (A') (A') (A') (A') (A') (A')
                 (A') (A') (A') (A") (A') (A') (A') (A') (A') (A')
                 (A') (A") (A') (A') (A") (A') (A") (A") (A') (A")
                 (A") (A') (A') (A") (A') (A") (A") (A") (A') (A')
                 (A') (A') (A") (A') (A') (A") (A') (A') (A') (A")
                 (A') (A') (A') (A") (A") (A') (A') (A") (A") (A')
                 (A") (A') (A') (A") (A') (A") (A') (A') (A') (A')
                 (A") (A") (A") (A') (A") (A') (A') (A") (A') (A')
                 (A') (A") (A') (A") (A") (A') (A") (A') (A') (A")
                 (A') (A') (A') (A') (A") (A') (A') (A') (A") (A")
                 (A') (A') (A') (A") (A') (A') (A') (A") (A") (A')
                 (A") (A') (A') (A") (A') (A') (A') (A') (A') (A')
                 (A") (A') (A') (A') (A') (A") (A") (A") (A') (A')
                 (A') (A') (A') (A') (A') (A') (A') (A") (A') (A')
                 (A') (A") (A') (A") (A") (A") (A') (A") (A") (A')
                 (A') (A") (A") (A') (A") (A") (A') (A') (A') (A')
                 (A') (A') (A') (A') (A') (A') (A') (A') (A') (A')
                 (A') (A') (A') (A") (A') (A') (A') (A') (A') (A')
                 (A') (A') (A') (A') (A') (A') (A') (A') (A') (A')
                 (A') (A') (A') (A') (A') (A') (A') (A') (A') (A')
                 (A') (A')
     4 initial guesses have been made.
 Convergence on wavefunction:    0.001000000000000
 Iteration     1 Dimension     4 NMult     0 NNew      4
 CISAX will form     4 AO SS matrices at one time.
 Iteration     2 Dimension     6 NMult     4 NNew      2
 Iteration     3 Dimension     8 NMult     6 NNew      2
 Iteration     4 Dimension    10 NMult     8 NNew      2
 Iteration     5 Dimension    12 NMult    10 NNew      2
 Iteration     6 Dimension    14 NMult    12 NNew      2
 ***********************************************************************
 Excited states from <AA,BB:AA,BB> singles matrix:
 ***********************************************************************
 
 Ground to excited state transition densities written to RWF  633
 Ground to excited state transition electric dipole moments (Au):
       state          X           Y           Z        Dip. S.      Osc.
         1        -0.4807     -0.1854     -0.0000      0.2654      0.0166
 Ground to excited state transition velocity dipole moments (Au):
       state          X           Y           Z        Dip. S.      Osc.
         1         0.0484      0.0245      0.0000      0.0029      0.0209
 Ground to excited state transition magnetic dipole moments (Au):
       state          X           Y           Z
         1        -0.0000     -0.0000     -0.1557
 Ground to excited state transition velocity quadrupole moments (Au):
       state          XX          YY          ZZ          XY          XZ          YZ
         1        -0.0068      0.2385     -0.0075     -0.0444     -0.0000      0.0000
 <0|del|b> * <b|rxdel|0> + <0|del|b> * <b|delr+rdel|0>
 Rotatory Strengths (R) in cgs (10**-40 erg-esu-cm/Gauss)
       state          XX          YY          ZZ    R(velocity)    E-M Angle
         1        -0.0000      0.0000     -0.0000     -0.0000       90.00
 1/2[<0|r|b>*<b|rxdel|0> + (<0|rxdel|b>*<b|r|0>)*]
 Rotatory Strengths (R) in cgs (10**-40 erg-esu-cm/Gauss)
       state          XX          YY          ZZ     R(length)
         1        -0.0000     -0.0000     -0.0000     -0.0000
  1/2[<0|del|b>*<b|r|0> + (<0|r|b>*<b|del|0>)*] (Au)
       state          X           Y           Z        Dip. S.   Osc.(frdel)
         1        -0.0233     -0.0045     -0.0000      0.0278      0.0186

 Excitation energies and oscillator strengths:
 
 Excited State   1:      Singlet-A'     2.5533 eV  485.58 nm  f=0.0166  <S**2>=0.000
      47 -> 48         0.70340
 This state for optimization and/or second-order correction.
 Total Energy, E(TD-HF/TD-DFT) =  -539.653174004    
 Copying the excited state density for this state as the 1-particle RhoCI density.
 SavETr:  write IOETrn=   770 NScale= 10 NData=  16 NLR=1 NState=    1 LETran=      28.

 **********************************************************************

            Population analysis using the SCF Density.

 **********************************************************************

 Orbital symmetries:
       Occupied  (A') (A') (A') (A') (A') (A') (A') (A') (A') (A')
                 (A') (A') (A') (A') (A') (A') (A') (A') (A') (A')
                 (A') (A') (A') (A') (A') (A') (A') (A') (A') (A')
                 (A') (A") (A') (A') (A') (A') (A') (A") (A') (A")
                 (A') (A') (A') (A") (A") (A") (A")
       Virtual   (A") (A") (A") (A") (A') (A') (A') (A') (A") (A')
                 (A') (A") (A') (A') (A") (A') (A") (A') (A') (A')
                 (A") (A") (A') (A') (A') (A") (A') (A") (A') (A')
                 (A") (A') (A") (A') (A') (A') (A') (A') (A") (A')
                 (A") (A') (A') (A") (A") (A') (A") (A') (A") (A')
                 (A') (A') (A') (A') (A') (A") (A') (A') (A') (A')
                 (A') (A") (A') (A') (A') (A") (A') (A') (A') (A')
                 (A') (A') (A') (A') (A') (A') (A') (A') (A') (A')
                 (A') (A') (A') (A') (A') (A') (A') (A') (A') (A')
                 (A') (A') (A') (A') (A") (A") (A') (A") (A') (A")
                 (A') (A') (A') (A') (A") (A") (A') (A") (A") (A')
                 (A') (A") (A') (A') (A") (A') (A') (A") (A') (A")
                 (A") (A') (A") (A') (A') (A') (A") (A') (A') (A')
                 (A') (A') (A') (A') (A') (A') (A') (A') (A') (A')
                 (A') (A') (A') (A") (A') (A') (A') (A') (A') (A')
                 (A') (A") (A') (A') (A") (A') (A") (A") (A') (A")
                 (A") (A') (A') (A") (A') (A") (A") (A") (A') (A')
                 (A') (A') (A") (A') (A') (A") (A') (A') (A') (A")
                 (A') (A') (A') (A") (A") (A') (A') (A") (A") (A')
                 (A") (A') (A') (A") (A') (A") (A') (A') (A') (A')
                 (A") (A") (A") (A') (A") (A') (A') (A") (A') (A')
                 (A') (A") (A') (A") (A") (A') (A") (A') (A') (A")
                 (A') (A') (A') (A') (A") (A') (A') (A') (A") (A")
                 (A') (A') (A') (A") (A') (A') (A') (A") (A") (A')
                 (A") (A') (A') (A") (A') (A') (A') (A') (A') (A')
                 (A") (A') (A') (A') (A') (A") (A") (A") (A') (A')
                 (A') (A') (A') (A') (A') (A') (A') (A") (A') (A')
                 (A') (A") (A') (A") (A") (A") (A') (A") (A") (A')
                 (A') (A") (A") (A') (A") (A") (A') (A') (A') (A')
                 (A') (A') (A') (A') (A') (A') (A') (A') (A') (A')
                 (A') (A') (A') (A") (A') (A') (A') (A') (A') (A')
                 (A') (A') (A') (A') (A') (A') (A') (A') (A') (A')
                 (A') (A') (A') (A') (A') (A') (A') (A') (A') (A')
                 (A') (A')
 The electronic state is 1-A'.
 Alpha  occ. eigenvalues --  -10.77488 -10.73990 -10.72982 -10.72488 -10.72426
 Alpha  occ. eigenvalues --  -10.72053 -10.71716 -10.70985 -10.70568 -10.70328
 Alpha  occ. eigenvalues --  -10.70066 -10.69699 -10.69605 -10.69178  -1.16657
 Alpha  occ. eigenvalues --   -1.12488  -1.06933  -1.06004  -1.01260  -1.00633
 Alpha  occ. eigenvalues --   -0.95382  -0.91000  -0.86465  -0.85885  -0.83742
 Alpha  occ. eigenvalues --   -0.78269  -0.76255  -0.74330  -0.69958  -0.69381
 Alpha  occ. eigenvalues --   -0.68158  -0.68077  -0.67974  -0.65612  -0.64224
 Alpha  occ. eigenvalues --   -0.62579  -0.61336  -0.60701  -0.59207  -0.59032
 Alpha  occ. eigenvalues --   -0.56981  -0.55263  -0.54325  -0.52440  -0.47814
 Alpha  occ. eigenvalues --   -0.46148  -0.43299
 Alpha virt. eigenvalues --   -0.26118  -0.14666  -0.14055  -0.12745  -0.11204
 Alpha virt. eigenvalues --   -0.10104  -0.09286  -0.07939  -0.07882  -0.07493
 Alpha virt. eigenvalues --   -0.07223  -0.07125  -0.05649  -0.05568  -0.05374
 Alpha virt. eigenvalues --   -0.03873  -0.03684  -0.03267  -0.03131  -0.02146
 Alpha virt. eigenvalues --   -0.01331  -0.00984   0.00179   0.00591   0.00634
 Alpha virt. eigenvalues --    0.01073   0.01492   0.01922   0.02084   0.02301
 Alpha virt. eigenvalues --    0.02446   0.02678   0.02845   0.03195   0.03480
 Alpha virt. eigenvalues --    0.04198   0.04495   0.04747   0.05048   0.05415
 Alpha virt. eigenvalues --    0.06012   0.06285   0.06559   0.07071   0.07287
 Alpha virt. eigenvalues --    0.07917   0.08019   0.08343   0.08730   0.08888
 Alpha virt. eigenvalues --    0.09429   0.09589   0.09907   0.10770   0.10914
 Alpha virt. eigenvalues --    0.11138   0.12032   0.12243   0.12554   0.13058
 Alpha virt. eigenvalues --    0.13501   0.13523   0.13949   0.14260   0.15684
 Alpha virt. eigenvalues --    0.16358   0.16566   0.17292   0.17318   0.17729
 Alpha virt. eigenvalues --    0.18141   0.19070   0.19374   0.19770   0.20114
 Alpha virt. eigenvalues --    0.21439   0.21705   0.22614   0.23265   0.23600
 Alpha virt. eigenvalues --    0.24044   0.24477   0.25487   0.26976   0.27632
 Alpha virt. eigenvalues --    0.28893   0.29226   0.30010   0.31358   0.35742
 Alpha virt. eigenvalues --    0.36532   0.38246   0.39289   0.40937   0.41153
 Alpha virt. eigenvalues --    0.42003   0.42015   0.42984   0.43725   0.44491
 Alpha virt. eigenvalues --    0.44710   0.45166   0.45768   0.46536   0.47807
 Alpha virt. eigenvalues --    0.48274   0.48708   0.49045   0.50633   0.51051
 Alpha virt. eigenvalues --    0.51139   0.52173   0.52291   0.52691   0.54155
 Alpha virt. eigenvalues --    0.54301   0.54594   0.55573   0.56161   0.57625
 Alpha virt. eigenvalues --    0.58205   0.59140   0.61581   0.62314   0.62516
 Alpha virt. eigenvalues --    0.63132   0.63459   0.64930   0.65191   0.67730
 Alpha virt. eigenvalues --    0.70174   0.70397   0.71406   0.72643   0.72970
 Alpha virt. eigenvalues --    0.75411   0.76078   0.76495   0.76696   0.77128
 Alpha virt. eigenvalues --    0.77900   0.78155   0.78379   0.79951   0.80382
 Alpha virt. eigenvalues --    0.81209   0.81542   0.82649   0.82984   0.85331
 Alpha virt. eigenvalues --    0.86942   0.87756   0.88202   0.89513   0.90754
 Alpha virt. eigenvalues --    0.91045   0.91647   0.93443   0.94577   0.96193
 Alpha virt. eigenvalues --    0.97130   0.99778   1.01335   1.01361   1.02568
 Alpha virt. eigenvalues --    1.02964   1.03376   1.05048   1.07002   1.09098
 Alpha virt. eigenvalues --    1.19627   1.22657   1.23506   1.24200   1.28977
 Alpha virt. eigenvalues --    1.29735   1.32701   1.34213   1.35733   1.35921
 Alpha virt. eigenvalues --    1.39134   1.39374   1.40583   1.42807   1.43293
 Alpha virt. eigenvalues --    1.43338   1.44470   1.46385   1.46508   1.47627
 Alpha virt. eigenvalues --    1.47774   1.48528   1.51893   1.53749   1.55694
 Alpha virt. eigenvalues --    1.55862   1.56213   1.56613   1.57894   1.61552
 Alpha virt. eigenvalues --    1.62677   1.63422   1.64444   1.66081   1.68229
 Alpha virt. eigenvalues --    1.68487   1.68739   1.69950   1.74491   1.76095
 Alpha virt. eigenvalues --    1.77211   1.78134   1.79699   1.79904   1.81066
 Alpha virt. eigenvalues --    1.82561   1.83164   1.83647   1.83783   1.84185
 Alpha virt. eigenvalues --    1.84815   1.85304   1.86634   1.88525   1.91494
 Alpha virt. eigenvalues --    1.92277   1.94027   1.95545   1.97933   1.98185
 Alpha virt. eigenvalues --    1.99921   2.02512   2.04756   2.07394   2.11656
 Alpha virt. eigenvalues --    2.12333   2.14459   2.15331   2.19079   2.21235
 Alpha virt. eigenvalues --    2.22674   2.28276   2.30530   2.34313   2.34645
 Alpha virt. eigenvalues --    2.36507   2.38516   2.39772   2.42313   2.44272
 Alpha virt. eigenvalues --    2.46071   2.46630   2.49026   2.53021   2.53785
 Alpha virt. eigenvalues --    2.54413   2.56879   2.58027   2.58560   2.59276
 Alpha virt. eigenvalues --    2.59989   2.61468   2.62174   2.63624   2.63676
 Alpha virt. eigenvalues --    2.64911   2.65030   2.65048   2.65803   2.68010
 Alpha virt. eigenvalues --    2.68301   2.70911   2.71543   2.73422   2.74811
 Alpha virt. eigenvalues --    2.76254   2.78130   2.79584   2.83419   2.83437
 Alpha virt. eigenvalues --    2.84876   2.86299   2.92154   2.97228   2.99345
 Alpha virt. eigenvalues --    3.00265   3.04995   3.08385   3.11022   3.14805
 Alpha virt. eigenvalues --    3.20138   3.21216   3.25574   3.29226   3.31274
 Alpha virt. eigenvalues --    3.32886   3.35322   3.44555   3.46646   3.46938
 Alpha virt. eigenvalues --    3.48492   3.50047   3.56485   3.65345   3.67306
 Alpha virt. eigenvalues --    3.68434   3.93025   3.93785   3.95216   3.96811
 Alpha virt. eigenvalues --    4.03817   4.06155   4.07832   4.12515   4.35118
 Alpha virt. eigenvalues --    4.60600   4.68440   4.70633  23.45080  23.59610
 Alpha virt. eigenvalues --   23.78027  23.80060  23.83310  23.89410  23.92255
 Alpha virt. eigenvalues --   23.95292  23.95992  23.99243  24.06120  24.09999
 Alpha virt. eigenvalues --   24.12319  24.16178
          Condensed to atoms (all electrons):
               1          2          3          4          5          6
     1  C    8.261833   0.630764  -0.698494   1.614134   0.010434  -0.079302
     2  C    0.630764   7.217715   0.451528  -0.937186  -0.051385  -0.015642
     3  C   -0.698494   0.451528   6.627405   0.688155  -0.106473   0.016848
     4  C    1.614134  -0.937186   0.688155  11.773342  -0.380798  -0.149842
     5  C    0.010434  -0.051385  -0.106473  -0.380798  10.505042   0.863720
     6  C   -0.079302  -0.015642   0.016848  -0.149842   0.863720   6.617561
     7  C   -0.042816  -0.000760  -0.012408   0.031904  -1.262657   0.170427
     8  C    0.416101   0.006541  -0.111288  -0.119492   2.406717  -0.280633
     9  C   -1.154902  -0.896614   0.291031   0.171925  -0.515214   0.292994
    10  C   -1.149842   0.107622  -0.212620  -2.889689  -2.271998  -0.482834
    11  C    0.353313  -0.732087   0.824198  -0.371137  -1.375876  -0.075067
    12  C   -1.650526   0.888611  -1.322611  -1.647497  -0.162439  -0.334558
    13  C    0.186873  -0.204542  -0.251332  -1.629504  -0.366149   1.159053
    14  C   -1.188123  -0.347424  -0.073324  -0.534553  -1.632395  -1.576038
    15  H    0.366470  -0.105231  -0.004096   0.023418   0.006736   0.001314
    16  H   -0.019922   0.384102  -0.023870   0.018991  -0.001754  -0.000373
    17  H   -0.017243  -0.024976   0.384169  -0.070778   0.000027   0.000418
    18  H    0.045331   0.004024  -0.082618   0.472006   0.006110  -0.005001
    19  H   -0.041753  -0.008657   0.051185  -0.088755  -0.058308   0.051959
    20  H    0.006770   0.002009  -0.005360   0.006231   0.452195  -0.083859
    21  H   -0.001200  -0.000424   0.000372   0.000519  -0.064885   0.363904
    22  H    0.000228   0.000284  -0.000277  -0.001182   0.008159  -0.009276
    23  H    0.007401  -0.002070   0.000911   0.003802   0.030917   0.002986
    24  H    0.039803   0.016472  -0.001132  -0.010668  -0.013832  -0.001918
    25  H    0.039803   0.016472  -0.001132  -0.010668  -0.013832  -0.001918
               7          8          9         10         11         12
     1  C   -0.042816   0.416101  -1.154902  -1.149842   0.353313  -1.650526
     2  C   -0.000760   0.006541  -0.896614   0.107622  -0.732087   0.888611
     3  C   -0.012408  -0.111288   0.291031  -0.212620   0.824198  -1.322611
     4  C    0.031904  -0.119492   0.171925  -2.889689  -0.371137  -1.647497
     5  C   -1.262657   2.406717  -0.515214  -2.271998  -1.375876  -0.162439
     6  C    0.170427  -0.280633   0.292994  -0.482834  -0.075067  -0.334558
     7  C    7.251003  -0.206503  -0.776831   0.402212  -0.348177  -0.009795
     8  C   -0.206503   9.235656  -1.113482  -1.441329   0.335495  -1.047936
     9  C   -0.776831  -1.113482   9.696460   0.235551   1.634971  -2.213013
    10  C    0.402212  -1.441329   0.235551   9.104882  -0.262551   2.359063
    11  C   -0.348177   0.335495   1.634971  -0.262551  14.651173  -4.256098
    12  C   -0.009795  -1.047936  -2.213013   2.359063  -4.256098  16.454729
    13  C   -1.023128   0.283055   1.411330  -0.518359   1.018306  -4.645396
    14  C    1.969960  -2.879341  -1.637424   2.485162  -4.827137   3.084558
    15  H   -0.003036   0.004524   0.085381  -0.006703  -0.029651  -0.006205
    16  H    0.000416   0.001223   0.000948  -0.010995   0.023943  -0.028194
    17  H   -0.000354  -0.001466  -0.004258   0.019765  -0.024095   0.081827
    18  H    0.002158   0.006924  -0.021203   0.004314  -0.010367  -0.044620
    19  H   -0.007382  -0.048934   0.074288   0.423313   0.077704  -0.098488
    20  H    0.001149   0.055962  -0.026523   0.015876  -0.012365  -0.004980
    21  H   -0.002426  -0.036668  -0.006785   0.020095  -0.006217   0.005237
    22  H    0.369817  -0.014725   0.004239  -0.007170   0.002010  -0.006767
    23  H   -0.109691   0.372121   0.098615  -0.012065   0.011048   0.003371
    24  H    0.012039   0.024589   0.357382   0.005686   0.030273  -0.059172
    25  H    0.012039   0.024589   0.357382   0.005686   0.030273  -0.059172
              13         14         15         16         17         18
     1  C    0.186873  -1.188123   0.366470  -0.019922  -0.017243   0.045331
     2  C   -0.204542  -0.347424  -0.105231   0.384102  -0.024976   0.004024
     3  C   -0.251332  -0.073324  -0.004096  -0.023870   0.384169  -0.082618
     4  C   -1.629504  -0.534553   0.023418   0.018991  -0.070778   0.472006
     5  C   -0.366149  -1.632395   0.006736  -0.001754   0.000027   0.006110
     6  C    1.159053  -1.576038   0.001314  -0.000373   0.000418  -0.005001
     7  C   -1.023128   1.969960  -0.003036   0.000416  -0.000354   0.002158
     8  C    0.283055  -2.879341   0.004524   0.001223  -0.001466   0.006924
     9  C    1.411330  -1.637424   0.085381   0.000948  -0.004258  -0.021203
    10  C   -0.518359   2.485162  -0.006703  -0.010995   0.019765   0.004314
    11  C    1.018306  -4.827137  -0.029651   0.023943  -0.024095  -0.010367
    12  C   -4.645396   3.084558  -0.006205  -0.028194   0.081827  -0.044620
    13  C   14.205782  -3.057871  -0.005826   0.003580  -0.006342  -0.012698
    14  C   -3.057871  15.793802   0.008005  -0.011115   0.005211  -0.025286
    15  H   -0.005826   0.008005   0.431662  -0.008707   0.001748   0.000255
    16  H    0.003580  -0.011115  -0.008707   0.414023  -0.007214   0.001999
    17  H   -0.006342   0.005211   0.001748  -0.007214   0.418223  -0.009943
    18  H   -0.012698  -0.025286   0.000255   0.001999  -0.009943   0.445696
    19  H    0.085120  -0.035786   0.000470  -0.000638   0.001896  -0.005603
    20  H   -0.000570  -0.071435  -0.000133   0.000022  -0.000178   0.001262
    21  H   -0.026472   0.099187   0.000019  -0.000007   0.000010  -0.000108
    22  H    0.025327  -0.032621  -0.000123   0.000007  -0.000006   0.000009
    23  H   -0.036875  -0.043476   0.000561  -0.000133   0.000009  -0.000097
    24  H   -0.004474  -0.059740  -0.000938   0.000620  -0.000128   0.000121
    25  H   -0.004474  -0.059740  -0.000938   0.000620  -0.000128   0.000121
              19         20         21         22         23         24
     1  C   -0.041753   0.006770  -0.001200   0.000228   0.007401   0.039803
     2  C   -0.008657   0.002009  -0.000424   0.000284  -0.002070   0.016472
     3  C    0.051185  -0.005360   0.000372  -0.000277   0.000911  -0.001132
     4  C   -0.088755   0.006231   0.000519  -0.001182   0.003802  -0.010668
     5  C   -0.058308   0.452195  -0.064885   0.008159   0.030917  -0.013832
     6  C    0.051959  -0.083859   0.363904  -0.009276   0.002986  -0.001918
     7  C   -0.007382   0.001149  -0.002426   0.369817  -0.109691   0.012039
     8  C   -0.048934   0.055962  -0.036668  -0.014725   0.372121   0.024589
     9  C    0.074288  -0.026523  -0.006785   0.004239   0.098615   0.357382
    10  C    0.423313   0.015876   0.020095  -0.007170  -0.012065   0.005686
    11  C    0.077704  -0.012365  -0.006217   0.002010   0.011048   0.030273
    12  C   -0.098488  -0.004980   0.005237  -0.006767   0.003371  -0.059172
    13  C    0.085120  -0.000570  -0.026472   0.025327  -0.036875  -0.004474
    14  C   -0.035786  -0.071435   0.099187  -0.032621  -0.043476  -0.059740
    15  H    0.000470  -0.000133   0.000019  -0.000123   0.000561  -0.000938
    16  H   -0.000638   0.000022  -0.000007   0.000007  -0.000133   0.000620
    17  H    0.001896  -0.000178   0.000010  -0.000006   0.000009  -0.000128
    18  H   -0.005603   0.001262  -0.000108   0.000009  -0.000097   0.000121
    19  H    0.445115  -0.007235   0.000983  -0.000445   0.000185   0.000604
    20  H   -0.007235   0.461897  -0.010391   0.001859  -0.000021   0.000244
    21  H    0.000983  -0.010391   0.425961  -0.005517   0.001080  -0.000152
    22  H   -0.000445   0.001859  -0.005517   0.423466  -0.008740   0.000632
    23  H    0.000185  -0.000021   0.001080  -0.008740   0.447651  -0.000844
    24  H    0.000604   0.000244  -0.000152   0.000632  -0.000844   0.493163
    25  H    0.000604   0.000244  -0.000152   0.000632  -0.000844  -0.079332
              25
     1  C    0.039803
     2  C    0.016472
     3  C   -0.001132
     4  C   -0.010668
     5  C   -0.013832
     6  C   -0.001918
     7  C    0.012039
     8  C    0.024589
     9  C    0.357382
    10  C    0.005686
    11  C    0.030273
    12  C   -0.059172
    13  C   -0.004474
    14  C   -0.059740
    15  H   -0.000938
    16  H    0.000620
    17  H   -0.000128
    18  H    0.000121
    19  H    0.000604
    20  H    0.000244
    21  H   -0.000152
    22  H    0.000632
    23  H   -0.000844
    24  H   -0.079332
    25  H    0.493163
 Mulliken charges:
               1
     1  C    0.064865
     2  C   -0.399147
     3  C   -0.428770
     4  C    0.037323
     5  C   -0.012061
     6  C   -0.444923
     7  C   -0.417163
     8  C    0.128300
     9  C   -0.346246
    10  C    0.076928
    11  C   -0.661884
    12  C    0.720071
    13  C   -0.584414
    14  C    0.646943
    15  H    0.241024
    16  H    0.262429
    17  H    0.253807
    18  H    0.227213
    19  H    0.188555
    20  H    0.217330
    21  H    0.244037
    22  H    0.250180
    23  H    0.234199
    24  H    0.250701
    25  H    0.250701
 Sum of Mulliken charges =   1.00000
 Mulliken charges with hydrogens summed into heavy atoms:
               1
     1  C    0.305889
     2  C   -0.136719
     3  C   -0.174962
     4  C    0.264536
     5  C    0.205269
     6  C   -0.200885
     7  C   -0.166983
     8  C    0.362499
     9  C    0.155157
    10  C    0.265483
    11  C   -0.661884
    12  C    0.720071
    13  C   -0.584414
    14  C    0.646943
 Electronic spatial extent (au):  <R**2>=           2856.0107
 Charge=              1.0000 electrons
 Dipole moment (field-independent basis, Debye):
    X=              0.9170    Y=             -1.2283    Z=              0.0000  Tot=              1.5328
 Quadrupole moment (field-independent basis, Debye-Ang):
   XX=            -48.8875   YY=            -38.3076   ZZ=            -84.1201
   XY=            -11.5698   XZ=             -0.0000   YZ=             -0.0000
 Traceless Quadrupole moment (field-independent basis, Debye-Ang):
   XX=              8.2176   YY=             18.7975   ZZ=            -27.0150
   XY=            -11.5698   XZ=             -0.0000   YZ=             -0.0000
 Octapole moment (field-independent basis, Debye-Ang**2):
  XXX=              6.1364  YYY=            -17.9294  ZZZ=              0.0000  XYY=              3.8427
  XXY=              1.0588  XXZ=              0.0000  XZZ=             -1.4980  YZZ=             -3.4942
  YYZ=              0.0000  XYZ=              0.0000
 Hexadecapole moment (field-independent basis, Debye-Ang**3):
 XXXX=          -1088.5439 YYYY=          -1767.6748 ZZZZ=            -99.2931 XXXY=            368.6569
 XXXZ=             -0.0000 YYYX=            306.0144 YYYZ=             -0.0000 ZZZX=              0.0000
 ZZZY=              0.0000 XXYY=           -444.0679 XXZZ=           -268.4151 YYZZ=           -467.8243
 XXYZ=             -0.0000 YYXZ=             -0.0000 ZZXY=            198.8274
 N-N= 7.813491681790D+02 E-N=-2.799074838260D+03  KE= 5.375627576710D+02
 Symmetry A'   KE= 5.229019627846D+02
 Symmetry A"   KE= 1.466079488629D+01
 Unable to Open any file for archive entry.
 1\1\GINC-GADI-CPU-CLX-1762\SP\RM062X TD-FC\6-311++G(d,p)\C14H11(1+)\TS
 1578\02-Aug-2022\0\\#n M062X/6-311++G(d,p) TD(NStates=1) EmpiricalDisp
 ersion=GD3 SP\\SP_125\\1,1\C,0,2.454505,1.362231,0.\C,0,3.656033,0.652
 689,0.\C,0,3.671061,-0.74768,0.\C,0,2.506031,-1.432513,0.\C,0,-2.42023
 1,-1.382463,0.\C,0,-3.696361,-0.67948,0.\C,0,-3.746508,0.691464,0.\C,0
 ,-2.529855,1.358931,0.\C,0,-0.02405,1.452269,0.\C,0,0.0671,-1.429139,0
 .\C,0,1.272055,0.69809,0.\C,0,1.265071,-0.734179,0.\C,0,-1.25198,0.656
 015,0.\C,0,-1.210071,-0.727579,0.\H,0,2.475971,2.445047,0.\H,0,4.59067
 8,1.196064,0.\H,0,4.617162,-1.270799,0.\H,0,2.4877,-2.514359,0.\H,0,0.
 061875,-2.510241,0.\H,0,-2.44755,-2.465684,0.\H,0,-4.601212,-1.273274,
 0.\H,0,-4.682253,1.227689,0.\H,0,-2.499071,2.442572,0.\H,0,-0.088,2.14
 5537,-0.85931\H,0,-0.088,2.145537,0.85931\\Version=ES64L-G16RevC.01\St
 ate=1-A'\HF=-539.7470071\RMSD=3.518e-09\PG=CS [SG(C14H9),X(H2)]\\@
 The archive entry for this job was punched.


 THEREFORE SHALL EVIL COME UPON THEE...
 THOU SHALT NOT KNOW FROM WHENCE IT RISETH...
 AND MISCHIEF SHALL FALL UPON THEE...
 THOU SHALT NOT BE ABLE TO PUT IT OFF...
 AND DESOLATION SHALL COME UPON THEE SUDDENLY...
 WHICH THOU SHALT NOT KNOW...

                                         ISAIAH 47.11
 Job cpu time:       0 days  0 hours 53 minutes  8.3 seconds.
 Elapsed time:       0 days  0 hours  1 minutes  6.6 seconds.
 File lengths (MBytes):  RWF=    460 Int=      0 D2E=      0 Chk=     15 Scr=      1
 Normal termination of Gaussian 16 at Tue Aug  2 13:11:17 2022.
