 Entering Gaussian System, Link 0=g16
 Initial command:
 /apps/gaussian/g16c01/g16/l1.exe "/jobfs/53796104.gadi-pbs/Gau-3594157.inp" -scrdir="/jobfs/53796104.gadi-pbs/"
 Entering Link 1 = /apps/gaussian/g16c01/g16/l1.exe PID=   3594158.
  
 Copyright (c) 1988-2019, Gaussian, Inc.  All Rights Reserved.
  
 This is part of the Gaussian(R) 16 program.  It is based on
 the Gaussian(R) 09 system (copyright 2009, Gaussian, Inc.),
 the Gaussian(R) 03 system (copyright 2003, Gaussian, Inc.),
 the Gaussian(R) 98 system (copyright 1998, Gaussian, Inc.),
 the Gaussian(R) 94 system (copyright 1995, Gaussian, Inc.),
 the Gaussian 92(TM) system (copyright 1992, Gaussian, Inc.),
 the Gaussian 90(TM) system (copyright 1990, Gaussian, Inc.),
 the Gaussian 88(TM) system (copyright 1988, Gaussian, Inc.),
 the Gaussian 86(TM) system (copyright 1986, Carnegie Mellon
 University), and the Gaussian 82(TM) system (copyright 1983,
 Carnegie Mellon University). Gaussian is a federally registered
 trademark of Gaussian, Inc.
  
 This software contains proprietary and confidential information,
 including trade secrets, belonging to Gaussian, Inc.
  
 This software is provided under written license and may be
 used, copied, transmitted, or stored only in accord with that
 written license.
  
 The following legend is applicable only to US Government
 contracts under FAR:
  
                    RESTRICTED RIGHTS LEGEND
  
 Use, reproduction and disclosure by the US Government is
 subject to restrictions as set forth in subparagraphs (a)
 and (c) of the Commercial Computer Software - Restricted
 Rights clause in FAR 52.227-19.
  
 Gaussian, Inc.
 340 Quinnipiac St., Bldg. 40, Wallingford CT 06492
  
  
 ---------------------------------------------------------------
 Warning -- This program may not be used in any manner that
 competes with the business of Gaussian, Inc. or will provide
 assistance to any competitor of Gaussian, Inc.  The licensee
 of this program is prohibited from giving any competitor of
 Gaussian, Inc. access to this program.  By using this program,
 the user acknowledges that Gaussian, Inc. is engaged in the
 business of creating and licensing software in the field of
 computational chemistry and represents and warrants to the
 licensee that it is not a competitor of Gaussian, Inc. and that
 it will not use this program in any manner prohibited above.
 ---------------------------------------------------------------
  

 Cite this work as:
 Gaussian 16, Revision C.01,
 M. J. Frisch, G. W. Trucks, H. B. Schlegel, G. E. Scuseria, 
 M. A. Robb, J. R. Cheeseman, G. Scalmani, V. Barone, 
 G. A. Petersson, H. Nakatsuji, X. Li, M. Caricato, A. V. Marenich, 
 J. Bloino, B. G. Janesko, R. Gomperts, B. Mennucci, H. P. Hratchian, 
 J. V. Ortiz, A. F. Izmaylov, J. L. Sonnenberg, D. Williams-Young, 
 F. Ding, F. Lipparini, F. Egidi, J. Goings, B. Peng, A. Petrone, 
 T. Henderson, D. Ranasinghe, V. G. Zakrzewski, J. Gao, N. Rega, 
 G. Zheng, W. Liang, M. Hada, M. Ehara, K. Toyota, R. Fukuda, 
 J. Hasegawa, M. Ishida, T. Nakajima, Y. Honda, O. Kitao, H. Nakai, 
 T. Vreven, K. Throssell, J. A. Montgomery, Jr., J. E. Peralta, 
 F. Ogliaro, M. J. Bearpark, J. J. Heyd, E. N. Brothers, K. N. Kudin, 
 V. N. Staroverov, T. A. Keith, R. Kobayashi, J. Normand, 
 K. Raghavachari, A. P. Rendell, J. C. Burant, S. S. Iyengar, 
 J. Tomasi, M. Cossi, J. M. Millam, M. Klene, C. Adamo, R. Cammi, 
 J. W. Ochterski, R. L. Martin, K. Morokuma, O. Farkas, 
 J. B. Foresman, and D. J. Fox, Gaussian, Inc., Wallingford CT, 2019.
 
 ******************************************
 Gaussian 16:  ES64L-G16RevC.01  3-Jul-2019
                 2-Aug-2022 
 ******************************************
 %NProcShared=48
 Will use up to   48 processors via shared memory.
 %mem = 190GB
 ---------------------------------------------------------------
 #n M062X/6-311++G(d,p) TD(NStates=1) EmpiricalDispersion=GD3 SP
 ---------------------------------------------------------------
 1/38=1,172=1/1;
 2/12=2,17=6,18=5,40=1/2;
 3/5=4,6=6,7=1111,11=9,25=1,30=1,74=-55,124=31/1,2,3,8;
 4//1;
 5/5=2,38=5/2;
 8/6=1,10=2,108=1/1;
 9/41=1,42=1,70=2/14;
 6/7=2,8=2,9=2,10=2/1;
 99/5=1,9=1/99;
 -------
 SP_-125
 -------
 Symbolic Z-matrix:
 Charge =  1 Multiplicity = 1
 C                     2.51521   1.35983   0. 
 C                     3.72958   0.68459   0. 
 C                     3.69146  -0.69138   0. 
 C                     2.43578  -1.39146   0. 
 C                    -2.49038  -1.42331   0. 
 C                    -3.67536  -0.73478   0. 
 C                    -3.67201   0.65991   0. 
 C                    -2.46726   1.36193   0. 
 C                     0.01535   1.45007   0. 
 C                    -0.0427   -1.42904   0. 
 C                     1.25555   0.66364   0. 
 C                     1.22027  -0.72893   0. 
 C                    -1.26833   0.69042   0. 
 C                    -1.25527  -0.73313   0. 
 H                     2.49377   2.44335   0. 
 H                     4.66503   1.22231   0. 
 H                     4.60396  -1.2722    0. 
 H                     2.455    -2.47446   0. 
 H                    -0.03938  -2.51019   0. 
 H                    -2.48055  -2.50543   0. 
 H                    -4.61411  -1.27062   0. 
 H                    -4.60675   1.20219   0. 
 H                    -2.47907   2.44492   0. 
 H                     0.056     2.14504  -0.85876 
 H                     0.056     2.14504   0.85876 
 
                          Input orientation:                          
 ---------------------------------------------------------------------
 Center     Atomic      Atomic             Coordinates (Angstroms)
 Number     Number       Type             X           Y           Z
 ---------------------------------------------------------------------
      1          6           0        2.515205    1.359831    0.000000
      2          6           0        3.729583    0.684589    0.000000
      3          6           0        3.691461   -0.691380    0.000000
      4          6           0        2.435781   -1.391463    0.000000
      5          6           0       -2.490381   -1.423313    0.000000
      6          6           0       -3.675361   -0.734780    0.000000
      7          6           0       -3.672008    0.659914    0.000000
      8          6           0       -2.467255    1.361931    0.000000
      9          6           0        0.015350    1.450069    0.000000
     10          6           0       -0.042700   -1.429039    0.000000
     11          6           0        1.255555    0.663640    0.000000
     12          6           0        1.220271   -0.728929    0.000000
     13          6           0       -1.268330    0.690415    0.000000
     14          6           0       -1.255271   -0.733129    0.000000
     15          1           0        2.493771    2.443347    0.000000
     16          1           0        4.665028    1.222314    0.000000
     17          1           0        4.603962   -1.272199    0.000000
     18          1           0        2.455000   -2.474459    0.000000
     19          1           0       -0.039375   -2.510191    0.000000
     20          1           0       -2.480550   -2.505434    0.000000
     21          1           0       -4.614112   -1.270624    0.000000
     22          1           0       -4.606753    1.202189    0.000000
     23          1           0       -2.479071    2.444922    0.000000
     24          1           0        0.056000    2.145037   -0.858760
     25          1           0        0.056000    2.145037    0.858760
 ---------------------------------------------------------------------
                    Distance matrix (angstroms):
                    1          2          3          4          5
     1  C    0.000000
     2  C    1.389484   0.000000
     3  C    2.364539   1.376497   0.000000
     4  C    2.752440   2.446204   1.437654   0.000000
     5  C    5.727284   6.567435   6.225022   4.926265   0.000000
     6  C    6.535327   7.539748   7.366950   6.146323   1.370495
     7  C    6.226676   7.401632   7.486432   6.443076   2.395011
     8  C    4.982460   6.233746   6.491985   5.623250   2.785340
     9  C    2.501483   3.792293   4.254362   3.732665   3.812481
    10  C    3.784267   4.324065   3.806324   2.478766   2.447688
    11  C    1.439236   2.474117   2.787421   2.369891   4.288054
    12  C    2.457595   2.880049   2.471475   1.384347   3.775064
    13  C    3.842298   4.997916   5.148678   4.249077   2.441568
    14  C    4.312421   5.182537   4.946908   3.749302   1.414868
    15  H    1.083728   2.149526   3.355738   3.835248   6.308156
    16  H    2.154217   1.078984   2.147104   3.435313   7.628841
    17  H    3.360132   2.143259   1.081669   2.171459   7.095952
    18  H    3.834763   3.406486   2.169840   1.083167   5.055858
    19  H    4.637127   4.940816   4.150568   2.716238   2.681181
    20  H    6.316474   6.981547   6.433079   5.040956   1.082166
    21  H    7.599109   8.569720   8.325747   7.050929   2.129213
    22  H    7.123702   8.352389   8.511519   7.504953   3.372283
    23  H    5.110794   6.453383   6.921839   6.234871   3.868252
    24  H    2.720608   4.045441   4.690342   4.348294   4.467062
    25  H    2.720608   4.045441   4.690342   4.348294   4.467062
                    6          7          8          9         10
     6  C    0.000000
     7  C    1.394698   0.000000
     8  C    2.419859   1.394366   0.000000
     9  C    4.288929   3.771068   2.484169   0.000000
    10  C    3.698408   4.187553   3.697023   2.879693   0.000000
    11  C    5.125379   4.927564   3.787733   1.468530   2.462676
    12  C    4.895635   5.085595   4.239050   2.489953   1.444039
    13  C    2.797316   2.403872   1.374174   1.491613   2.448317
    14  C    2.420091   2.789478   2.420368   2.526031   1.398077
    15  H    6.939646   6.418525   5.077523   2.670051   4.629153
    16  H    8.566931   8.355984   7.133649   4.655253   5.402997
    17  H    8.296747   8.498514   7.545910   5.335363   4.649308
    18  H    6.372426   6.882189   6.240712   4.621019   2.707657
    19  H    4.046292   4.821368   4.570332   3.960638   1.081157
    20  H    2.136069   3.382159   3.867388   4.677127   2.664909
    21  H    1.080917   2.148147   3.396961   5.369738   4.574156
    22  H    2.149265   1.080653   2.145453   4.628745   5.268201
    23  H    3.397295   2.146940   1.083055   2.685492   4.576404
    24  H    4.791020   4.103791   2.778046   1.105487   3.677122
    25  H    4.791020   4.103791   2.778046   1.105487   3.677122
                   11         12         13         14         15
    11  C    0.000000
    12  C    1.393016   0.000000
    13  C    2.524027   2.864904   0.000000
    14  C    2.873188   2.475546   1.423604   0.000000
    15  H    2.168072   3.418353   4.150443   4.913788   0.000000
    16  H    3.454942   3.959002   5.957151   6.234878   2.491040
    17  H    3.867726   3.427026   6.191580   5.883979   4.272960
    18  H    3.359514   2.138090   4.886677   4.098578   4.917959
    19  H    3.427834   2.181651   3.428441   2.153219   5.563665
    20  H    4.899134   4.105124   3.418030   2.154617   7.016716
    21  H    6.180159   5.859476   3.878135   3.401575   8.019700
    22  H    5.886993   6.138683   3.377422   3.870128   7.208184
    23  H    4.137680   4.874265   2.131710   3.405539   4.972842
    24  H    2.090679   3.217558   2.146449   3.277307   2.601766
    25  H    2.090679   3.217558   2.146449   3.277307   2.601766
                   16         17         18         19         20
    16  H    0.000000
    17  H    2.495260   0.000000
    18  H    4.307012   2.462411   0.000000
    19  H    6.005248   4.805539   2.494631   0.000000
    20  H    8.059491   7.191049   4.935647   2.441180   0.000000
    21  H    9.608183   9.218074   7.170883   4.739699   2.465125
    22  H    9.271803   9.537288   7.961539   5.885806   4.274015
    23  H    7.247960   7.999147   6.967450   5.523157   4.950356
    24  H    4.778287   5.753167   5.275643   4.734735   5.366417
    25  H    4.778287   5.753167   5.275643   4.734735   5.366417
                   21         22         23         24         25
    21  H    0.000000
    22  H    2.472824   0.000000
    23  H    4.285287   2.464024   0.000000
    24  H    5.849287   4.834015   2.693322   0.000000
    25  H    5.849287   4.834015   2.693322   1.717520   0.000000
 Stoichiometry    C14H11(1+)
 Framework group  CS[SG(C14H9),X(H2)]
 Deg. of freedom    46
 Full point group                 CS      NOp   2
 Largest Abelian subgroup         CS      NOp   2
 Largest concise Abelian subgroup CS      NOp   2
                         Standard orientation:                         
 ---------------------------------------------------------------------
 Center     Atomic      Atomic             Coordinates (Angstroms)
 Number     Number       Type             X           Y           Z
 ---------------------------------------------------------------------
      1          6           0        0.026560    2.858574    0.000000
      2          6           0       -1.138062    3.616414    0.000000
      3          6           0       -2.336595    2.939464    0.000000
      4          6           0       -2.368451    1.502164    0.000000
      5          6           0       -0.093681   -2.867448    0.000000
      6          6           0        1.068947   -3.593088    0.000000
      7          6           0        2.300287   -2.938120    0.000000
      8          6           0        2.357661   -1.544934    0.000000
      9          6           0        1.274984    0.690890    0.000000
     10          6           0       -1.243006   -0.706377    0.000000
     11          6           0        0.000000    1.419583    0.000000
     12          6           0       -1.214535    0.737381    0.000000
     13          6           0        1.203557   -0.799012    0.000000
     14          6           0       -0.060959   -1.452959    0.000000
     15          1           0        0.994407    3.346158    0.000000
     16          1           0       -1.100024    4.694727    0.000000
     17          1           0       -3.276623    3.474588    0.000000
     18          1           0       -3.334803    1.012865    0.000000
     19          1           0       -2.200298   -1.208865    0.000000
     20          1           0       -1.054870   -3.364637    0.000000
     21          1           0        1.034117   -4.673444    0.000000
     22          1           0        3.216641   -3.510926    0.000000
     23          1           0        3.320548   -1.049093    0.000000
     24          1           0        1.870332    1.051714    0.858760
     25          1           0        1.870332    1.051714   -0.858760
 ---------------------------------------------------------------------
 Rotational constants (GHZ):           2.1376312           0.4447260           0.3689356
 Standard basis: 6-311++G(d,p) (5D, 7F)
 There are   299 symmetry adapted cartesian basis functions of A'  symmetry.
 There are   100 symmetry adapted cartesian basis functions of A"  symmetry.
 There are   285 symmetry adapted basis functions of A'  symmetry.
 There are   100 symmetry adapted basis functions of A"  symmetry.
   385 basis functions,   603 primitive gaussians,   399 cartesian basis functions
    47 alpha electrons       47 beta electrons
       nuclear repulsion energy       781.3884153337 Hartrees.
 NAtoms=   25 NActive=   25 NUniq=   24 SFac= 1.09D+00 NAtFMM=   60 NAOKFM=F Big=F
 Integral buffers will be    131072 words long.
 Regular integral format.
 Two-electron integral symmetry is turned on.
 Nuclear repulsion after empirical dispersion term =      781.3874362255 Hartrees.
 One-electron integrals computed using PRISM.
 NBasis=   385 RedAO= T EigKep=  1.11D-06  NBF=   285   100
 NBsUse=   379 1.00D-06 EigRej=  8.35D-07 NBFU=   279   100
 ExpMin= 3.60D-02 ExpMax= 4.56D+03 ExpMxC= 6.82D+02 IAcc=3 IRadAn=         5 AccDes= 0.00D+00
 Harris functional with IExCor= 1009 and IRadAn=       5 diagonalized for initial guess.
 HarFok:  IExCor= 1009 AccDes= 0.00D+00 IRadAn=         5 IDoV= 1 UseB2=F ITyADJ=14
 ICtDFT=  3500011 ScaDFX=  1.000000  1.000000  1.000000  1.000000
 FoFCou: FMM=F IPFlag=           0 FMFlag=      100000 FMFlg1=           0
         NFxFlg=           0 DoJE=T BraDBF=F KetDBF=T FulRan=T
         wScrn=  0.000000 ICntrl=       500 IOpCl=  0 I1Cent=   200000004 NGrid=           0
         NMat0=    1 NMatS0=      1 NMatT0=    0 NMatD0=    1 NMtDS0=    0 NMtDT0=    0
 Petite list used in FoFCou.
 Initial guess orbital symmetries:
       Occupied  (A') (A') (A') (A') (A') (A') (A') (A') (A') (A')
                 (A') (A') (A') (A') (A') (A') (A') (A') (A') (A')
                 (A') (A') (A') (A') (A') (A') (A') (A') (A') (A')
                 (A') (A') (A") (A') (A') (A') (A') (A') (A") (A')
                 (A") (A') (A') (A") (A") (A") (A")
       Virtual   (A") (A") (A") (A") (A") (A') (A') (A') (A') (A")
                 (A") (A') (A') (A') (A") (A') (A') (A') (A') (A")
                 (A') (A") (A') (A') (A') (A") (A') (A") (A') (A')
                 (A') (A') (A') (A') (A") (A') (A") (A') (A') (A')
                 (A") (A') (A") (A') (A') (A') (A') (A') (A") (A')
                 (A') (A') (A") (A") (A') (A') (A') (A") (A") (A')
                 (A') (A') (A') (A') (A') (A') (A") (A') (A') (A")
                 (A') (A') (A') (A') (A') (A') (A') (A') (A') (A')
                 (A') (A') (A') (A') (A') (A') (A') (A') (A') (A')
                 (A') (A') (A') (A') (A') (A') (A') (A") (A') (A")
                 (A') (A') (A") (A") (A') (A") (A') (A") (A") (A')
                 (A") (A') (A') (A') (A") (A') (A') (A") (A") (A')
                 (A") (A") (A') (A') (A') (A") (A') (A') (A') (A")
                 (A') (A') (A') (A') (A') (A') (A") (A') (A') (A')
                 (A') (A') (A') (A') (A') (A') (A') (A') (A') (A")
                 (A") (A') (A") (A") (A') (A') (A') (A") (A") (A')
                 (A") (A') (A") (A") (A") (A') (A') (A') (A') (A')
                 (A') (A") (A') (A') (A") (A') (A') (A') (A') (A")
                 (A') (A') (A') (A') (A") (A") (A') (A') (A") (A")
                 (A') (A") (A') (A") (A') (A') (A') (A") (A') (A')
                 (A") (A") (A") (A') (A') (A") (A') (A") (A') (A')
                 (A") (A") (A') (A") (A') (A") (A') (A') (A') (A")
                 (A') (A') (A') (A') (A") (A') (A') (A') (A") (A")
                 (A') (A') (A') (A") (A') (A') (A") (A') (A") (A')
                 (A") (A') (A') (A') (A') (A") (A') (A') (A') (A")
                 (A') (A') (A') (A") (A") (A') (A') (A") (A') (A')
                 (A') (A") (A') (A") (A') (A') (A') (A") (A') (A")
                 (A') (A') (A') (A') (A") (A') (A") (A') (A") (A')
                 (A") (A') (A") (A") (A") (A') (A') (A') (A') (A')
                 (A') (A') (A') (A') (A') (A') (A') (A') (A') (A')
                 (A') (A') (A') (A") (A') (A') (A') (A') (A') (A')
                 (A') (A') (A') (A') (A') (A') (A') (A') (A') (A')
                 (A') (A') (A') (A') (A') (A') (A') (A') (A') (A')
                 (A') (A')
 The electronic state of the initial guess is 1-A'.
 Requested convergence on RMS density matrix=1.00D-08 within 128 cycles.
 Requested convergence on MAX density matrix=1.00D-06.
 Requested convergence on             energy=1.00D-06.
 No special actions if energy rises.
 SCF Done:  E(RM062X) =  -539.754830026     A.U. after   15 cycles
            NFock= 15  Conv=0.94D-08     -V/T= 2.0041
 DoSCS=F DFT=T ScalE2(SS,OS)=  1.000000  1.000000
 ExpMin= 3.60D-02 ExpMax= 4.56D+03 ExpMxC= 6.82D+02 IAcc=3 IRadAn=         5 AccDes= 0.00D+00
 HarFok:  IExCor=  205 AccDes= 0.00D+00 IRadAn=         5 IDoV=-2 UseB2=F ITyADJ=14
 ICtDFT= 12500011 ScaDFX=  1.000000  1.000000  1.000000  1.000000
 Range of M.O.s used for correlation:    15   379
 NBasis=   385 NAE=    47 NBE=    47 NFC=    14 NFV=     0
 NROrb=    365 NOA=    33 NOB=    33 NVA=   332 NVB=   332

 **** Warning!!: The largest alpha MO coefficient is  0.13996648D+03

 Orbital symmetries:
       Occupied  (A') (A') (A') (A') (A') (A') (A') (A') (A') (A')
                 (A') (A') (A') (A') (A') (A') (A') (A') (A') (A')
                 (A') (A') (A') (A') (A') (A') (A') (A') (A') (A')
                 (A') (A') (A") (A') (A') (A') (A') (A") (A") (A')
                 (A') (A') (A') (A") (A") (A") (A")
       Virtual   (A") (A") (A") (A") (A') (A') (A') (A') (A") (A')
                 (A') (A") (A') (A') (A") (A') (A") (A') (A') (A')
                 (A") (A") (A') (A') (A') (A") (A') (A") (A') (A')
                 (A") (A') (A") (A') (A') (A') (A') (A') (A") (A')
                 (A") (A') (A') (A") (A") (A') (A") (A') (A") (A')
                 (A') (A') (A') (A') (A') (A") (A') (A') (A') (A')
                 (A') (A") (A') (A') (A') (A") (A') (A') (A') (A')
                 (A') (A') (A') (A') (A') (A') (A') (A') (A') (A')
                 (A') (A') (A') (A') (A') (A') (A') (A') (A') (A')
                 (A') (A') (A') (A') (A") (A') (A") (A") (A') (A")
                 (A') (A') (A') (A') (A") (A") (A') (A") (A") (A')
                 (A') (A') (A") (A') (A") (A') (A') (A") (A') (A")
                 (A") (A') (A") (A') (A') (A') (A") (A') (A') (A')
                 (A') (A') (A') (A') (A') (A') (A') (A') (A') (A')
                 (A') (A') (A') (A") (A') (A') (A') (A') (A') (A')
                 (A') (A') (A") (A') (A") (A') (A") (A") (A') (A")
                 (A") (A') (A') (A") (A") (A') (A") (A") (A') (A')
                 (A') (A') (A') (A") (A") (A') (A') (A') (A') (A")
                 (A') (A') (A') (A") (A") (A') (A') (A") (A") (A')
                 (A") (A') (A') (A") (A') (A") (A') (A') (A') (A')
                 (A") (A") (A") (A') (A") (A') (A') (A") (A') (A')
                 (A') (A") (A') (A") (A") (A') (A") (A') (A') (A")
                 (A') (A') (A') (A') (A") (A') (A') (A') (A") (A")
                 (A') (A') (A') (A") (A') (A') (A') (A") (A") (A')
                 (A") (A') (A') (A") (A') (A') (A') (A') (A') (A')
                 (A") (A') (A') (A') (A') (A") (A") (A") (A') (A')
                 (A') (A') (A') (A') (A') (A') (A') (A") (A') (A')
                 (A') (A") (A') (A") (A") (A") (A') (A") (A') (A")
                 (A') (A") (A") (A') (A") (A") (A') (A') (A') (A')
                 (A') (A') (A') (A') (A') (A') (A') (A') (A') (A')
                 (A') (A') (A') (A") (A') (A') (A') (A') (A') (A')
                 (A') (A') (A') (A') (A') (A') (A') (A') (A') (A')
                 (A') (A') (A') (A') (A') (A') (A') (A') (A') (A')
                 (A') (A')
     4 initial guesses have been made.
 Convergence on wavefunction:    0.001000000000000
 Iteration     1 Dimension     4 NMult     0 NNew      4
 CISAX will form     4 AO SS matrices at one time.
 Iteration     2 Dimension     6 NMult     4 NNew      2
 Iteration     3 Dimension     8 NMult     6 NNew      2
 Iteration     4 Dimension    10 NMult     8 NNew      2
 Iteration     5 Dimension    12 NMult    10 NNew      2
 Iteration     6 Dimension    14 NMult    12 NNew      2
 ***********************************************************************
 Excited states from <AA,BB:AA,BB> singles matrix:
 ***********************************************************************
 
 Ground to excited state transition densities written to RWF  633
 Ground to excited state transition electric dipole moments (Au):
       state          X           Y           Z        Dip. S.      Osc.
         1         0.4715      0.3053     -0.0000      0.3156      0.0208
 Ground to excited state transition velocity dipole moments (Au):
       state          X           Y           Z        Dip. S.      Osc.
         1        -0.0544     -0.0302     -0.0000      0.0039      0.0262
 Ground to excited state transition magnetic dipole moments (Au):
       state          X           Y           Z
         1         0.0000      0.0000      0.1677
 Ground to excited state transition velocity quadrupole moments (Au):
       state          XX          YY          ZZ          XY          XZ          YZ
         1         0.1403      0.1305     -0.0084     -0.1362      0.0000     -0.0000
 <0|del|b> * <b|rxdel|0> + <0|del|b> * <b|delr+rdel|0>
 Rotatory Strengths (R) in cgs (10**-40 erg-esu-cm/Gauss)
       state          XX          YY          ZZ    R(velocity)    E-M Angle
         1        -0.0000     -0.0000     -0.0000     -0.0000       90.00
 1/2[<0|r|b>*<b|rxdel|0> + (<0|rxdel|b>*<b|r|0>)*]
 Rotatory Strengths (R) in cgs (10**-40 erg-esu-cm/Gauss)
       state          XX          YY          ZZ     R(length)
         1        -0.0000     -0.0000      0.0000     -0.0000
  1/2[<0|del|b>*<b|r|0> + (<0|r|b>*<b|del|0>)*] (Au)
       state          X           Y           Z        Dip. S.   Osc.(frdel)
         1        -0.0257     -0.0092      0.0000      0.0349      0.0233

 Excitation energies and oscillator strengths:
 
 Excited State   1:      Singlet-A'     2.6877 eV  461.29 nm  f=0.0208  <S**2>=0.000
      47 -> 48         0.70352
 This state for optimization and/or second-order correction.
 Total Energy, E(TD-HF/TD-DFT) =  -539.656057298    
 Copying the excited state density for this state as the 1-particle RhoCI density.
 SavETr:  write IOETrn=   770 NScale= 10 NData=  16 NLR=1 NState=    1 LETran=      28.

 **********************************************************************

            Population analysis using the SCF Density.

 **********************************************************************

 Orbital symmetries:
       Occupied  (A') (A') (A') (A') (A') (A') (A') (A') (A') (A')
                 (A') (A') (A') (A') (A') (A') (A') (A') (A') (A')
                 (A') (A') (A') (A') (A') (A') (A') (A') (A') (A')
                 (A') (A') (A") (A') (A') (A') (A') (A") (A") (A')
                 (A') (A') (A') (A") (A") (A") (A")
       Virtual   (A") (A") (A") (A") (A') (A') (A') (A') (A") (A')
                 (A') (A") (A') (A') (A") (A') (A") (A') (A') (A')
                 (A") (A") (A') (A') (A') (A") (A') (A") (A') (A')
                 (A") (A') (A") (A') (A') (A') (A') (A') (A") (A')
                 (A") (A') (A') (A") (A") (A') (A") (A') (A") (A')
                 (A') (A') (A') (A') (A') (A") (A') (A') (A') (A')
                 (A') (A") (A') (A') (A') (A") (A') (A') (A') (A')
                 (A') (A') (A') (A') (A') (A') (A') (A') (A') (A')
                 (A') (A') (A') (A') (A') (A') (A') (A') (A') (A')
                 (A') (A') (A') (A') (A") (A') (A") (A") (A') (A")
                 (A') (A') (A') (A') (A") (A") (A') (A") (A") (A')
                 (A') (A') (A") (A') (A") (A') (A') (A") (A') (A")
                 (A") (A') (A") (A') (A') (A') (A") (A') (A') (A')
                 (A') (A') (A') (A') (A') (A') (A') (A') (A') (A')
                 (A') (A') (A') (A") (A') (A') (A') (A') (A') (A')
                 (A') (A') (A") (A') (A") (A') (A") (A") (A') (A")
                 (A") (A') (A') (A") (A") (A') (A") (A") (A') (A')
                 (A') (A') (A') (A") (A") (A') (A') (A') (A') (A")
                 (A') (A') (A') (A") (A") (A') (A') (A") (A") (A')
                 (A") (A') (A') (A") (A') (A") (A') (A') (A') (A')
                 (A") (A") (A") (A') (A") (A') (A') (A") (A') (A')
                 (A') (A") (A') (A") (A") (A') (A") (A') (A') (A")
                 (A') (A') (A') (A') (A") (A') (A') (A') (A") (A")
                 (A') (A') (A') (A") (A') (A') (A') (A") (A") (A')
                 (A") (A') (A') (A") (A') (A') (A') (A') (A') (A')
                 (A") (A') (A') (A') (A') (A") (A") (A") (A') (A')
                 (A') (A') (A') (A') (A') (A') (A') (A") (A') (A')
                 (A') (A") (A') (A") (A") (A") (A') (A") (A') (A")
                 (A') (A") (A") (A') (A") (A") (A') (A') (A') (A')
                 (A') (A') (A') (A') (A') (A') (A') (A') (A') (A')
                 (A') (A') (A') (A") (A') (A') (A') (A') (A') (A')
                 (A') (A') (A') (A') (A') (A') (A') (A') (A') (A')
                 (A') (A') (A') (A') (A') (A') (A') (A') (A') (A')
                 (A') (A')
 The electronic state is 1-A'.
 Alpha  occ. eigenvalues --  -10.77588 -10.73712 -10.72801 -10.72709 -10.71988
 Alpha  occ. eigenvalues --  -10.71938 -10.71821 -10.70973 -10.70866 -10.70199
 Alpha  occ. eigenvalues --  -10.70143 -10.69908 -10.69746 -10.69337  -1.16547
 Alpha  occ. eigenvalues --   -1.12486  -1.06938  -1.05868  -1.01291  -1.00403
 Alpha  occ. eigenvalues --   -0.95599  -0.91043  -0.86441  -0.85902  -0.83790
 Alpha  occ. eigenvalues --   -0.78348  -0.76141  -0.74378  -0.69743  -0.69313
 Alpha  occ. eigenvalues --   -0.68347  -0.68093  -0.68087  -0.65199  -0.64247
 Alpha  occ. eigenvalues --   -0.62811  -0.61646  -0.60391  -0.59300  -0.59149
 Alpha  occ. eigenvalues --   -0.56945  -0.55262  -0.54601  -0.52437  -0.47210
 Alpha  occ. eigenvalues --   -0.46115  -0.43891
 Alpha virt. eigenvalues --   -0.26094  -0.14669  -0.14080  -0.12761  -0.11190
 Alpha virt. eigenvalues --   -0.10095  -0.09254  -0.07964  -0.07929  -0.07483
 Alpha virt. eigenvalues --   -0.07213  -0.07139  -0.05644  -0.05577  -0.05351
 Alpha virt. eigenvalues --   -0.03847  -0.03663  -0.03275  -0.03131  -0.02157
 Alpha virt. eigenvalues --   -0.01353  -0.00953   0.00184   0.00594   0.00659
 Alpha virt. eigenvalues --    0.01064   0.01504   0.01930   0.02153   0.02301
 Alpha virt. eigenvalues --    0.02449   0.02675   0.02790   0.03227   0.03434
 Alpha virt. eigenvalues --    0.04222   0.04501   0.04716   0.05036   0.05386
 Alpha virt. eigenvalues --    0.06022   0.06294   0.06582   0.07060   0.07265
 Alpha virt. eigenvalues --    0.07905   0.08094   0.08358   0.08636   0.08912
 Alpha virt. eigenvalues --    0.09495   0.09589   0.09986   0.10837   0.10997
 Alpha virt. eigenvalues --    0.11122   0.12116   0.12255   0.12727   0.13037
 Alpha virt. eigenvalues --    0.13467   0.13523   0.13992   0.14326   0.15925
 Alpha virt. eigenvalues --    0.16335   0.16502   0.17331   0.17492   0.17782
 Alpha virt. eigenvalues --    0.18131   0.19047   0.19353   0.19670   0.19899
 Alpha virt. eigenvalues --    0.21503   0.21664   0.22688   0.23156   0.23575
 Alpha virt. eigenvalues --    0.23904   0.24521   0.25359   0.26944   0.27623
 Alpha virt. eigenvalues --    0.28873   0.29269   0.29939   0.31366   0.35807
 Alpha virt. eigenvalues --    0.36483   0.38208   0.39284   0.41074   0.41299
 Alpha virt. eigenvalues --    0.41993   0.42105   0.42983   0.43727   0.44383
 Alpha virt. eigenvalues --    0.44783   0.45138   0.45906   0.46392   0.47872
 Alpha virt. eigenvalues --    0.48418   0.48812   0.49027   0.50520   0.51169
 Alpha virt. eigenvalues --    0.51302   0.52069   0.52138   0.52804   0.54116
 Alpha virt. eigenvalues --    0.54133   0.54627   0.55633   0.55938   0.57490
 Alpha virt. eigenvalues --    0.58226   0.58951   0.61506   0.62228   0.62427
 Alpha virt. eigenvalues --    0.63174   0.63480   0.64982   0.65171   0.67499
 Alpha virt. eigenvalues --    0.70321   0.70464   0.71216   0.72517   0.72917
 Alpha virt. eigenvalues --    0.75580   0.76068   0.76425   0.76760   0.77129
 Alpha virt. eigenvalues --    0.77881   0.78019   0.78305   0.79902   0.80401
 Alpha virt. eigenvalues --    0.81255   0.81535   0.82391   0.83001   0.85261
 Alpha virt. eigenvalues --    0.87070   0.88206   0.88212   0.89291   0.90615
 Alpha virt. eigenvalues --    0.91097   0.91417   0.93295   0.94614   0.96294
 Alpha virt. eigenvalues --    0.96903   1.00191   1.01288   1.01530   1.02834
 Alpha virt. eigenvalues --    1.03042   1.03272   1.04869   1.06341   1.08898
 Alpha virt. eigenvalues --    1.19597   1.22977   1.24172   1.24406   1.28928
 Alpha virt. eigenvalues --    1.29296   1.32251   1.34239   1.35775   1.35974
 Alpha virt. eigenvalues --    1.39356   1.39713   1.40850   1.42908   1.43436
 Alpha virt. eigenvalues --    1.43530   1.44309   1.46381   1.46611   1.46825
 Alpha virt. eigenvalues --    1.47699   1.48215   1.51824   1.53681   1.55760
 Alpha virt. eigenvalues --    1.55906   1.56297   1.56583   1.57845   1.61511
 Alpha virt. eigenvalues --    1.62998   1.63332   1.64167   1.66114   1.68299
 Alpha virt. eigenvalues --    1.68409   1.68697   1.69816   1.74455   1.76043
 Alpha virt. eigenvalues --    1.77214   1.78083   1.79936   1.80041   1.80889
 Alpha virt. eigenvalues --    1.82866   1.83188   1.83654   1.83851   1.84160
 Alpha virt. eigenvalues --    1.84556   1.85470   1.86421   1.88368   1.91438
 Alpha virt. eigenvalues --    1.92174   1.94088   1.95364   1.97797   1.98179
 Alpha virt. eigenvalues --    1.99832   2.02556   2.04579   2.07315   2.11750
 Alpha virt. eigenvalues --    2.12195   2.14261   2.15264   2.19127   2.21291
 Alpha virt. eigenvalues --    2.22748   2.28435   2.30408   2.34543   2.34833
 Alpha virt. eigenvalues --    2.36353   2.38600   2.39686   2.42363   2.44384
 Alpha virt. eigenvalues --    2.46141   2.46682   2.49237   2.52981   2.53803
 Alpha virt. eigenvalues --    2.54379   2.56776   2.57923   2.58415   2.59449
 Alpha virt. eigenvalues --    2.59932   2.61563   2.62161   2.63590   2.63768
 Alpha virt. eigenvalues --    2.64843   2.65072   2.65102   2.65605   2.68046
 Alpha virt. eigenvalues --    2.68477   2.70948   2.71473   2.73381   2.74823
 Alpha virt. eigenvalues --    2.76283   2.78582   2.79678   2.83205   2.83222
 Alpha virt. eigenvalues --    2.84893   2.86327   2.92144   2.97083   2.99443
 Alpha virt. eigenvalues --    3.00170   3.05199   3.09725   3.11325   3.14156
 Alpha virt. eigenvalues --    3.20766   3.22556   3.26380   3.28931   3.30654
 Alpha virt. eigenvalues --    3.32849   3.34651   3.43888   3.46230   3.46917
 Alpha virt. eigenvalues --    3.48454   3.50158   3.56534   3.65360   3.67107
 Alpha virt. eigenvalues --    3.67897   3.93696   3.94080   3.95369   3.96498
 Alpha virt. eigenvalues --    4.03947   4.06562   4.07730   4.12530   4.35461
 Alpha virt. eigenvalues --    4.61253   4.69299   4.71252  23.45230  23.60184
 Alpha virt. eigenvalues --   23.80373  23.82765  23.85498  23.89353  23.91816
 Alpha virt. eigenvalues --   23.95309  23.95842  23.97668  24.03264  24.05691
 Alpha virt. eigenvalues --   24.11303  24.12892
          Condensed to atoms (all electrons):
               1          2          3          4          5          6
     1  C    8.903015   0.061771  -0.405874   2.204900  -0.068000  -0.105548
     2  C    0.061771   7.148383   0.260067  -1.164719   0.006656  -0.013456
     3  C   -0.405874   0.260067   6.592219   0.814622  -0.137096   0.016877
     4  C    2.204900  -1.164719   0.814622  10.601822  -0.346815  -0.111165
     5  C   -0.068000   0.006656  -0.137096  -0.346815  11.379721   0.708388
     6  C   -0.105548  -0.013456   0.016877  -0.111165   0.708388   6.608169
     7  C   -0.005859   0.001478  -0.015582  -0.044141  -0.962236   0.430157
     8  C    0.409998  -0.036563  -0.084409   0.008933   1.689036  -0.657811
     9  C   -1.175161  -0.764906   0.289151  -0.438996  -0.000168   0.290708
    10  C   -1.367139   0.339614  -0.439563  -2.378520  -2.764723  -0.269238
    11  C    0.279704  -1.010676   1.121073  -0.297148  -1.587172  -0.228210
    12  C   -2.446448   1.694367  -1.486099  -1.564768  -0.457814  -0.120892
    13  C    0.242203  -0.297762  -0.115444  -1.420916  -0.281159   0.897690
    14  C   -1.033848  -0.088845  -0.283249  -0.212843  -1.556526  -1.328007
    15  H    0.368516  -0.106499   0.000806   0.029338   0.004809   0.000974
    16  H   -0.016999   0.373182  -0.011502   0.010172  -0.001358  -0.000298
    17  H   -0.031049  -0.008500   0.367991  -0.065680   0.000484   0.000382
    18  H    0.053007   0.002152  -0.084468   0.451962   0.006695  -0.005199
    19  H   -0.048764  -0.007267   0.051287  -0.062349  -0.081153   0.050832
    20  H    0.007272   0.002047  -0.004942   0.006823   0.463575  -0.084034
    21  H   -0.001410  -0.000372   0.000409   0.000117  -0.069001   0.380653
    22  H    0.001022   0.000397  -0.000357  -0.001687   0.017183  -0.021064
    23  H    0.005044  -0.002932   0.001236   0.006547   0.024485  -0.003480
    24  H    0.027114   0.012845  -0.001748  -0.013266  -0.011375  -0.001255
    25  H    0.027114   0.012845  -0.001748  -0.013266  -0.011375  -0.001255
               7          8          9         10         11         12
     1  C   -0.005859   0.409998  -1.175161  -1.367139   0.279704  -2.446448
     2  C    0.001478  -0.036563  -0.764906   0.339614  -1.010676   1.694367
     3  C   -0.015582  -0.084409   0.289151  -0.439563   1.121073  -1.486099
     4  C   -0.044141   0.008933  -0.438996  -2.378520  -0.297148  -1.564768
     5  C   -0.962236   1.689036  -0.000168  -2.764723  -1.587172  -0.457814
     6  C    0.430157  -0.657811   0.290708  -0.269238  -0.228210  -0.120892
     7  C    7.147391   0.564794  -0.845344   0.152113  -0.211778  -0.298459
     8  C    0.564794   8.347400  -1.206861  -1.173482   0.173879  -1.144837
     9  C   -0.845344  -1.206861   9.664062   0.246000   1.561400  -1.776651
    10  C    0.152113  -1.173482   0.246000   9.182581  -0.560090   2.476134
    11  C   -0.211778   0.173879   1.561400  -0.560090  14.435959  -3.401572
    12  C   -0.298459  -1.144837  -1.776651   2.476134  -3.401572  15.917306
    13  C   -0.815453   0.305648   1.713334  -0.384600   1.064137  -4.857489
    14  C    1.022993  -1.686246  -2.144630   2.387411  -4.756432   3.035796
    15  H   -0.002369   0.006825   0.095985  -0.011280  -0.033485  -0.036162
    16  H    0.000316   0.000387   0.004576  -0.008324   0.027558  -0.034781
    17  H   -0.000418  -0.001244  -0.006610   0.020726  -0.028292   0.096961
    18  H    0.001986   0.007090  -0.026405   0.016538  -0.004319  -0.063221
    19  H   -0.008147  -0.043594   0.075415   0.422537   0.082531  -0.045815
    20  H    0.003501   0.046383  -0.023051   0.009724  -0.012250  -0.020191
    21  H   -0.022519  -0.018734  -0.004910   0.020069  -0.006334   0.005177
    22  H    0.381909  -0.020081   0.002554  -0.010625   0.003429  -0.010393
    23  H   -0.104067   0.365479   0.087762  -0.007794  -0.003244   0.007591
    24  H    0.015762   0.037115   0.357434   0.005610   0.001965  -0.060208
    25  H    0.015762   0.037115   0.357434   0.005610   0.001965  -0.060208
              13         14         15         16         17         18
     1  C    0.242203  -1.033848   0.368516  -0.016999  -0.031049   0.053007
     2  C   -0.297762  -0.088845  -0.106499   0.373182  -0.008500   0.002152
     3  C   -0.115444  -0.283249   0.000806  -0.011502   0.367991  -0.084468
     4  C   -1.420916  -0.212843   0.029338   0.010172  -0.065680   0.451962
     5  C   -0.281159  -1.556526   0.004809  -0.001358   0.000484   0.006695
     6  C    0.897690  -1.328007   0.000974  -0.000298   0.000382  -0.005199
     7  C   -0.815453   1.022993  -0.002369   0.000316  -0.000418   0.001986
     8  C    0.305648  -1.686246   0.006825   0.000387  -0.001244   0.007090
     9  C    1.713334  -2.144630   0.095985   0.004576  -0.006610  -0.026405
    10  C   -0.384600   2.387411  -0.011280  -0.008324   0.020726   0.016538
    11  C    1.064137  -4.756432  -0.033485   0.027558  -0.028292  -0.004319
    12  C   -4.857489   3.035796  -0.036162  -0.034781   0.096961  -0.063221
    13  C   14.639722  -4.112306   0.007069   0.002564  -0.006325  -0.012054
    14  C   -4.112306  16.267636   0.005033  -0.007732   0.005368  -0.007494
    15  H    0.007069   0.005033   0.444102  -0.008878   0.001233   0.000079
    16  H    0.002564  -0.007732  -0.008878   0.422138  -0.005998   0.001876
    17  H   -0.006325   0.005368   0.001233  -0.005998   0.424789  -0.010356
    18  H   -0.012054  -0.007494   0.000079   0.001876  -0.010356   0.458598
    19  H    0.076498  -0.086309   0.000213  -0.000473   0.001124  -0.006751
    20  H   -0.010552  -0.045674  -0.000101   0.000011  -0.000119   0.001273
    21  H   -0.025887   0.085005   0.000010  -0.000007   0.000010  -0.000165
    22  H    0.026449  -0.031584  -0.000130   0.000007  -0.000007   0.000019
    23  H   -0.029148  -0.012914   0.000584  -0.000123   0.000016  -0.000125
    24  H    0.024529  -0.059283  -0.000866   0.000632  -0.000149   0.000218
    25  H    0.024529  -0.059283  -0.000866   0.000632  -0.000149   0.000218
              19         20         21         22         23         24
     1  C   -0.048764   0.007272  -0.001410   0.001022   0.005044   0.027114
     2  C   -0.007267   0.002047  -0.000372   0.000397  -0.002932   0.012845
     3  C    0.051287  -0.004942   0.000409  -0.000357   0.001236  -0.001748
     4  C   -0.062349   0.006823   0.000117  -0.001687   0.006547  -0.013266
     5  C   -0.081153   0.463575  -0.069001   0.017183   0.024485  -0.011375
     6  C    0.050832  -0.084034   0.380653  -0.021064  -0.003480  -0.001255
     7  C   -0.008147   0.003501  -0.022519   0.381909  -0.104067   0.015762
     8  C   -0.043594   0.046383  -0.018734  -0.020081   0.365479   0.037115
     9  C    0.075415  -0.023051  -0.004910   0.002554   0.087762   0.357434
    10  C    0.422537   0.009724   0.020069  -0.010625  -0.007794   0.005610
    11  C    0.082531  -0.012250  -0.006334   0.003429  -0.003244   0.001965
    12  C   -0.045815  -0.020191   0.005177  -0.010393   0.007591  -0.060208
    13  C    0.076498  -0.010552  -0.025887   0.026449  -0.029148   0.024529
    14  C   -0.086309  -0.045674   0.085005  -0.031584  -0.012914  -0.059283
    15  H    0.000213  -0.000101   0.000010  -0.000130   0.000584  -0.000866
    16  H   -0.000473   0.000011  -0.000007   0.000007  -0.000123   0.000632
    17  H    0.001124  -0.000119   0.000010  -0.000007   0.000016  -0.000149
    18  H   -0.006751   0.001273  -0.000165   0.000019  -0.000125   0.000218
    19  H    0.443614  -0.005716   0.001707  -0.000597   0.000402   0.000612
    20  H   -0.005716   0.448175  -0.009998   0.001962   0.000253   0.000138
    21  H    0.001707  -0.009998   0.419785  -0.007063   0.001653  -0.000133
    22  H   -0.000597   0.001962  -0.007063   0.415970  -0.008843   0.000624
    23  H    0.000402   0.000253   0.001653  -0.008843   0.433946  -0.000919
    24  H    0.000612   0.000138  -0.000133   0.000624  -0.000919   0.494025
    25  H    0.000612   0.000138  -0.000133   0.000624  -0.000919  -0.080031
              25
     1  C    0.027114
     2  C    0.012845
     3  C   -0.001748
     4  C   -0.013266
     5  C   -0.011375
     6  C   -0.001255
     7  C    0.015762
     8  C    0.037115
     9  C    0.357434
    10  C    0.005610
    11  C    0.001965
    12  C   -0.060208
    13  C    0.024529
    14  C   -0.059283
    15  H   -0.000866
    16  H    0.000632
    17  H   -0.000149
    18  H    0.000218
    19  H    0.000612
    20  H    0.000138
    21  H   -0.000133
    22  H    0.000624
    23  H   -0.000919
    24  H   -0.080031
    25  H    0.494025
 Mulliken charges:
               1
     1  C    0.115422
     2  C   -0.413311
     3  C   -0.443658
     4  C    0.001040
     5  C    0.034941
     6  C   -0.433918
     7  C   -0.401791
     8  C    0.073779
     9  C   -0.332121
    10  C    0.090713
    11  C   -0.612598
    12  C    0.652677
    13  C   -0.655276
    14  C    0.703963
    15  H    0.235060
    16  H    0.252423
    17  H    0.245811
    18  H    0.218846
    19  H    0.189552
    20  H    0.225354
    21  H    0.252072
    22  H    0.260284
    23  H    0.239509
    24  H    0.250613
    25  H    0.250613
 Sum of Mulliken charges =   1.00000
 Mulliken charges with hydrogens summed into heavy atoms:
               1
     1  C    0.350482
     2  C   -0.160889
     3  C   -0.197846
     4  C    0.219887
     5  C    0.260295
     6  C   -0.181846
     7  C   -0.141507
     8  C    0.313288
     9  C    0.169105
    10  C    0.280264
    11  C   -0.612598
    12  C    0.652677
    13  C   -0.655276
    14  C    0.703963
 Electronic spatial extent (au):  <R**2>=           2855.0809
 Charge=              1.0000 electrons
 Dipole moment (field-independent basis, Debye):
    X=              0.3053    Y=             -0.9431    Z=              0.0000  Tot=              0.9912
 Quadrupole moment (field-independent basis, Debye-Ang):
   XX=            -51.1506   YY=            -36.1643   ZZ=            -84.1323
   XY=            -10.1600   XZ=              0.0000   YZ=              0.0000
 Traceless Quadrupole moment (field-independent basis, Debye-Ang):
   XX=              5.9985   YY=             20.9848   ZZ=            -26.9833
   XY=            -10.1600   XZ=              0.0000   YZ=              0.0000
 Octapole moment (field-independent basis, Debye-Ang**2):
  XXX=              3.1838  YYY=             -3.1745  ZZZ=              0.0000  XYY=              2.7432
  XXY=             -7.8991  XXZ=              0.0000  XZZ=              3.3822  YZZ=              0.1839
  YYZ=              0.0000  XYZ=              0.0000
 Hexadecapole moment (field-independent basis, Debye-Ang**3):
 XXXX=           -983.5073 YYYY=          -1851.4179 ZZZZ=            -99.3073 XXXY=            346.6433
 XXXZ=              0.0000 YYYX=            272.4983 YYYZ=             -0.0000 ZZZX=              0.0000
 ZZZY=              0.0000 XXYY=           -455.0616 XXZZ=           -240.2554 YYZZ=           -495.8897
 XXYZ=              0.0000 YYXZ=              0.0000 ZZXY=            182.0054
 N-N= 7.813874362255D+02 E-N=-2.799134968571D+03  KE= 5.375355506988D+02
 Symmetry A'   KE= 5.228828257792D+02
 Symmetry A"   KE= 1.465272491953D+01
 Unable to Open any file for archive entry.
 1\1\GINC-GADI-CPU-CLX-1762\SP\RM062X TD-FC\6-311++G(d,p)\C14H11(1+)\TS
 1578\02-Aug-2022\0\\#n M062X/6-311++G(d,p) TD(NStates=1) EmpiricalDisp
 ersion=GD3 SP\\SP_-125\\1,1\C,0,2.515205,1.359831,0.\C,0,3.729583,0.68
 4589,0.\C,0,3.691461,-0.69138,0.\C,0,2.435781,-1.391463,0.\C,0,-2.4903
 81,-1.423313,0.\C,0,-3.675361,-0.73478,0.\C,0,-3.672008,0.659914,0.\C,
 0,-2.467255,1.361931,0.\C,0,0.01535,1.450069,0.\C,0,-0.0427,-1.429039,
 0.\C,0,1.255555,0.66364,0.\C,0,1.220271,-0.728929,0.\C,0,-1.26833,0.69
 0415,0.\C,0,-1.255271,-0.733129,0.\H,0,2.493771,2.443347,0.\H,0,4.6650
 28,1.222314,0.\H,0,4.603962,-1.272199,0.\H,0,2.455,-2.474459,0.\H,0,-0
 .039375,-2.510191,0.\H,0,-2.48055,-2.505434,0.\H,0,-4.614112,-1.270624
 ,0.\H,0,-4.606753,1.202189,0.\H,0,-2.479071,2.444922,0.\H,0,0.056,2.14
 5037,-0.85876\H,0,0.056,2.145037,0.85876\\Version=ES64L-G16RevC.01\Sta
 te=1-A'\HF=-539.75483\RMSD=9.416e-09\PG=CS [SG(C14H9),X(H2)]\\@
 The archive entry for this job was punched.


 When cryptography is outlawed, bayl bhgynjf jvyy unir cevinpl.
 Job cpu time:       0 days  0 hours 53 minutes 56.0 seconds.
 Elapsed time:       0 days  0 hours  1 minutes  8.5 seconds.
 File lengths (MBytes):  RWF=    460 Int=      0 D2E=      0 Chk=     15 Scr=      1
 Normal termination of Gaussian 16 at Tue Aug  2 10:56:45 2022.
