 Entering Gaussian System, Link 0=g16
 Initial command:
 /apps/gaussian/g16c01/g16/l1.exe "/jobfs/53796104.gadi-pbs/Gau-3581161.inp" -scrdir="/jobfs/53796104.gadi-pbs/"
 Entering Link 1 = /apps/gaussian/g16c01/g16/l1.exe PID=   3581162.
  
 Copyright (c) 1988-2019, Gaussian, Inc.  All Rights Reserved.
  
 This is part of the Gaussian(R) 16 program.  It is based on
 the Gaussian(R) 09 system (copyright 2009, Gaussian, Inc.),
 the Gaussian(R) 03 system (copyright 2003, Gaussian, Inc.),
 the Gaussian(R) 98 system (copyright 1998, Gaussian, Inc.),
 the Gaussian(R) 94 system (copyright 1995, Gaussian, Inc.),
 the Gaussian 92(TM) system (copyright 1992, Gaussian, Inc.),
 the Gaussian 90(TM) system (copyright 1990, Gaussian, Inc.),
 the Gaussian 88(TM) system (copyright 1988, Gaussian, Inc.),
 the Gaussian 86(TM) system (copyright 1986, Carnegie Mellon
 University), and the Gaussian 82(TM) system (copyright 1983,
 Carnegie Mellon University). Gaussian is a federally registered
 trademark of Gaussian, Inc.
  
 This software contains proprietary and confidential information,
 including trade secrets, belonging to Gaussian, Inc.
  
 This software is provided under written license and may be
 used, copied, transmitted, or stored only in accord with that
 written license.
  
 The following legend is applicable only to US Government
 contracts under FAR:
  
                    RESTRICTED RIGHTS LEGEND
  
 Use, reproduction and disclosure by the US Government is
 subject to restrictions as set forth in subparagraphs (a)
 and (c) of the Commercial Computer Software - Restricted
 Rights clause in FAR 52.227-19.
  
 Gaussian, Inc.
 340 Quinnipiac St., Bldg. 40, Wallingford CT 06492
  
  
 ---------------------------------------------------------------
 Warning -- This program may not be used in any manner that
 competes with the business of Gaussian, Inc. or will provide
 assistance to any competitor of Gaussian, Inc.  The licensee
 of this program is prohibited from giving any competitor of
 Gaussian, Inc. access to this program.  By using this program,
 the user acknowledges that Gaussian, Inc. is engaged in the
 business of creating and licensing software in the field of
 computational chemistry and represents and warrants to the
 licensee that it is not a competitor of Gaussian, Inc. and that
 it will not use this program in any manner prohibited above.
 ---------------------------------------------------------------
  

 Cite this work as:
 Gaussian 16, Revision C.01,
 M. J. Frisch, G. W. Trucks, H. B. Schlegel, G. E. Scuseria, 
 M. A. Robb, J. R. Cheeseman, G. Scalmani, V. Barone, 
 G. A. Petersson, H. Nakatsuji, X. Li, M. Caricato, A. V. Marenich, 
 J. Bloino, B. G. Janesko, R. Gomperts, B. Mennucci, H. P. Hratchian, 
 J. V. Ortiz, A. F. Izmaylov, J. L. Sonnenberg, D. Williams-Young, 
 F. Ding, F. Lipparini, F. Egidi, J. Goings, B. Peng, A. Petrone, 
 T. Henderson, D. Ranasinghe, V. G. Zakrzewski, J. Gao, N. Rega, 
 G. Zheng, W. Liang, M. Hada, M. Ehara, K. Toyota, R. Fukuda, 
 J. Hasegawa, M. Ishida, T. Nakajima, Y. Honda, O. Kitao, H. Nakai, 
 T. Vreven, K. Throssell, J. A. Montgomery, Jr., J. E. Peralta, 
 F. Ogliaro, M. J. Bearpark, J. J. Heyd, E. N. Brothers, K. N. Kudin, 
 V. N. Staroverov, T. A. Keith, R. Kobayashi, J. Normand, 
 K. Raghavachari, A. P. Rendell, J. C. Burant, S. S. Iyengar, 
 J. Tomasi, M. Cossi, J. M. Millam, M. Klene, C. Adamo, R. Cammi, 
 J. W. Ochterski, R. L. Martin, K. Morokuma, O. Farkas, 
 J. B. Foresman, and D. J. Fox, Gaussian, Inc., Wallingford CT, 2019.
 
 ******************************************
 Gaussian 16:  ES64L-G16RevC.01  3-Jul-2019
                 2-Aug-2022 
 ******************************************
 %NProcShared=48
 Will use up to   48 processors via shared memory.
 %mem = 190GB
 ---------------------------------------------------------------
 #n M062X/6-311++G(d,p) TD(NStates=1) EmpiricalDispersion=GD3 SP
 ---------------------------------------------------------------
 1/38=1,172=1/1;
 2/12=2,17=6,18=5,40=1/2;
 3/5=4,6=6,7=1111,11=9,25=1,30=1,74=-55,124=31/1,2,3,8;
 4//1;
 5/5=2,38=5/2;
 8/6=1,10=2,108=1/1;
 9/41=1,42=1,70=2/14;
 6/7=2,8=2,9=2,10=2/1;
 99/5=1,9=1/99;
 -------
 SP_-150
 -------
 Symbolic Z-matrix:
 Charge =  1 Multiplicity = 1
 C                     2.48696   1.36223   0. 
 C                     3.69866   0.67304   0. 
 C                     3.68206  -0.71083   0. 
 C                     2.46286  -1.40694   0. 
 C                    -2.46286  -1.40694   0. 
 C                    -3.68206  -0.71083   0. 
 C                    -3.69866   0.67304   0. 
 C                    -2.48696   1.36223   0. 
 C                     0.00015   1.44017   0. 
 C                     0.       -1.42859   0. 
 C                     1.26161   0.67692   0. 
 C                     1.23867  -0.7317    0. 
 C                    -1.26161   0.67692   0. 
 C                    -1.23867  -0.7317    0. 
 H                     2.48147   2.4456    0. 
 H                     4.6333    1.21394   0. 
 H                     4.60836  -1.2686    0. 
 H                     2.46845  -2.48961   0. 
 H                     0.       -2.50997   0. 
 H                    -2.46845  -2.48961   0. 
 H                    -4.60836  -1.2686    0. 
 H                    -4.6333    1.21394   0. 
 H                    -2.48147   2.4456    0. 
 H                     0.        2.14279  -0.85629 
 H                     0.        2.14279   0.85629 
 
                          Input orientation:                          
 ---------------------------------------------------------------------
 Center     Atomic      Atomic             Coordinates (Angstroms)
 Number     Number       Type             X           Y           Z
 ---------------------------------------------------------------------
      1          6           0        2.486955    1.362231    0.000000
      2          6           0        3.698658    0.673039    0.000000
      3          6           0        3.682061   -0.710830    0.000000
      4          6           0        2.462856   -1.406938    0.000000
      5          6           0       -2.462856   -1.406938    0.000000
      6          6           0       -3.682061   -0.710830    0.000000
      7          6           0       -3.698658    0.673039    0.000000
      8          6           0       -2.486955    1.362231    0.000000
      9          6           0        0.000150    1.440169    0.000000
     10          6           0        0.000000   -1.428589    0.000000
     11          6           0        1.261605    0.676915    0.000000
     12          6           0        1.238671   -0.731704    0.000000
     13          6           0       -1.261605    0.676915    0.000000
     14          6           0       -1.238671   -0.731704    0.000000
     15          1           0        2.481471    2.445597    0.000000
     16          1           0        4.633303    1.213939    0.000000
     17          1           0        4.608362   -1.268599    0.000000
     18          1           0        2.468450   -2.489609    0.000000
     19          1           0        0.000000   -2.509966    0.000000
     20          1           0       -2.468450   -2.489609    0.000000
     21          1           0       -4.608362   -1.268599    0.000000
     22          1           0       -4.633303    1.213939    0.000000
     23          1           0       -2.481471    2.445597    0.000000
     24          1           0        0.000000    2.142787   -0.856285
     25          1           0        0.000000    2.142787    0.856285
 ---------------------------------------------------------------------
                    Distance matrix (angstroms):
                    1          2          3          4          5
     1  C    0.000000
     2  C    1.393991   0.000000
     3  C    2.392877   1.383969   0.000000
     4  C    2.769274   2.419403   1.403933   0.000000
     5  C    5.671766   6.503119   6.184220   4.925712   0.000000
     6  C    6.508021   7.509335   7.364122   6.184220   1.403933
     7  C    6.223889   7.397316   7.509335   6.503119   2.419403
     8  C    4.973910   6.223889   6.508021   5.671766   2.769274
     9  C    2.488026   3.777228   4.264184   3.764431   3.764627
    10  C    3.738131   4.254046   3.751367   2.462951   2.462951
    11  C    1.403973   2.437056   2.790062   2.405296   4.267793
    12  C    2.437781   2.832815   2.443479   1.398059   3.762611
    13  C    3.810690   4.960265   5.134751   4.267793   2.405296
    14  C    4.273740   5.133276   4.920776   3.762611   1.398059
    15  H    1.083380   2.150234   3.377047   3.852580   6.268046
    16  H    2.151465   1.079877   2.146997   3.402916   7.564686
    17  H    3.379591   2.144183   1.081268   2.149961   7.072571
    18  H    3.851884   3.393487   2.153348   1.082685   5.048758
    19  H    4.602049   4.879712   4.098105   2.698579   2.698579
    20  H    6.276361   6.930769   6.402565   5.048758   1.082685
    21  H    7.567350   8.530917   8.309165   7.072571   2.149961
    22  H    7.121802   8.349500   8.535222   7.564686   3.402916
    23  H    5.085169   6.429304   6.924750   6.268046   3.852580
    24  H    2.743617   4.071051   4.736447   4.404479   4.404479
    25  H    2.743617   4.071051   4.736447   4.404479   4.404479
                    6          7          8          9         10
     6  C    0.000000
     7  C    1.383969   0.000000
     8  C    2.392877   1.393991   0.000000
     9  C    4.264443   3.777522   2.488326   0.000000
    10  C    3.751367   4.254046   3.738131   2.868758   0.000000
    11  C    5.134751   4.960265   3.810690   1.474390   2.454546
    12  C    4.920776   5.133276   4.273740   2.500193   1.421251
    13  C    2.790062   2.437056   1.403973   1.474647   2.454546
    14  C    2.443479   2.832815   2.437781   2.500342   1.421251
    15  H    6.924750   6.429304   5.085169   2.677282   4.600762
    16  H    8.535222   8.349500   7.121802   4.638673   5.333896
    17  H    8.309165   8.530917   7.567350   5.345376   4.611138
    18  H    6.402565   6.930769   6.276361   4.640653   2.686821
    19  H    4.098105   4.879712   4.602049   3.950135   1.081377
    20  H    2.153348   3.393487   3.851884   4.640813   2.686821
    21  H    1.081268   2.144183   3.379591   5.345634   4.611138
    22  H    2.146997   1.079877   2.151465   4.638973   5.333896
    23  H    3.377047   2.150234   1.083380   2.677560   4.600762
    24  H    4.736447   4.071051   2.743617   1.107653   3.672595
    25  H    4.736447   4.071051   2.743617   1.107653   3.672595
                   11         12         13         14         15
    11  C    0.000000
    12  C    1.408806   0.000000
    13  C    2.523210   2.869771   0.000000
    14  C    2.869771   2.477342   1.408806   0.000000
    15  H    2.148560   3.411714   4.139910   4.892310   0.000000
    16  H    3.414197   3.912679   5.919319   6.185920   2.479388
    17  H    3.871151   3.412195   6.183974   5.871631   4.280060
    18  H    3.388709   2.145364   4.892871   4.102801   4.935223
    19  H    3.427515   2.167146   3.427515   2.167146   5.542139
    20  H    4.892871   4.102801   3.388709   2.145364   6.989848
    21  H    6.183974   5.871631   3.871151   3.412195   8.003811
    22  H    5.919319   6.185920   3.414197   3.912679   7.220595
    23  H    4.139910   4.892310   2.148560   3.411714   4.962942
    24  H    2.115101   3.245031   2.115101   3.245031   2.642464
    25  H    2.115101   3.245031   2.115101   3.245031   2.642464
                   16         17         18         19         20
    16  H    0.000000
    17  H    2.482663   0.000000
    18  H    4.289855   2.463755   0.000000
    19  H    5.944322   4.772630   2.468534   0.000000
    20  H    8.009442   7.181374   4.936900   2.468534   0.000000
    21  H    9.569293   9.216724   7.181374   4.772630   2.463755
    22  H    9.266606   9.569293   8.009442   5.944322   4.289855
    23  H    7.220595   8.003811   6.989848   5.542139   4.935223
    24  H    4.802445   5.797222   5.318417   4.730892   5.318417
    25  H    4.802445   5.797222   5.318417   4.730892   5.318417
                   21         22         23         24         25
    21  H    0.000000
    22  H    2.482663   0.000000
    23  H    4.280060   2.479388   0.000000
    24  H    5.797222   4.802445   2.642464   0.000000
    25  H    5.797222   4.802445   2.642464   1.712570   0.000000
 Stoichiometry    C14H11(1+)
 Framework group  CS[SG(C14H9),X(H2)]
 Deg. of freedom    46
 Full point group                 CS      NOp   2
 Largest Abelian subgroup         CS      NOp   2
 Largest concise Abelian subgroup CS      NOp   2
                         Standard orientation:                         
 ---------------------------------------------------------------------
 Center     Atomic      Atomic             Coordinates (Angstroms)
 Number     Number       Type             X           Y           Z
 ---------------------------------------------------------------------
      1          6           0       -1.362228   -2.486946    0.000000
      2          6           0       -0.673036   -3.698649    0.000000
      3          6           0        0.710833   -3.682052    0.000000
      4          6           0        1.406941   -2.462847    0.000000
      5          6           0        1.406941    2.462865    0.000000
      6          6           0        0.710833    3.682070    0.000000
      7          6           0       -0.673036    3.698667    0.000000
      8          6           0       -1.362228    2.486964    0.000000
      9          6           0       -1.440166   -0.000141    0.000000
     10          6           0        1.428592    0.000009    0.000000
     11          6           0       -0.676912   -1.261596    0.000000
     12          6           0        0.731707   -1.238662    0.000000
     13          6           0       -0.676912    1.261614    0.000000
     14          6           0        0.731707    1.238680    0.000000
     15          1           0       -2.445594   -2.481462    0.000000
     16          1           0       -1.213936   -4.633294    0.000000
     17          1           0        1.268602   -4.608353    0.000000
     18          1           0        2.489612   -2.468441    0.000000
     19          1           0        2.509969    0.000009    0.000000
     20          1           0        2.489612    2.468459    0.000000
     21          1           0        1.268602    4.608371    0.000000
     22          1           0       -1.213936    4.633312    0.000000
     23          1           0       -2.445594    2.481480    0.000000
     24          1           0       -2.142784    0.000009    0.856285
     25          1           0       -2.142784    0.000009   -0.856285
 ---------------------------------------------------------------------
 Rotational constants (GHZ):           2.1405368           0.4452719           0.3693932
 Standard basis: 6-311++G(d,p) (5D, 7F)
 There are   299 symmetry adapted cartesian basis functions of A'  symmetry.
 There are   100 symmetry adapted cartesian basis functions of A"  symmetry.
 There are   285 symmetry adapted basis functions of A'  symmetry.
 There are   100 symmetry adapted basis functions of A"  symmetry.
   385 basis functions,   603 primitive gaussians,   399 cartesian basis functions
    47 alpha electrons       47 beta electrons
       nuclear repulsion energy       781.7944547120 Hartrees.
 NAtoms=   25 NActive=   25 NUniq=   24 SFac= 1.09D+00 NAtFMM=   60 NAOKFM=F Big=F
 Integral buffers will be    131072 words long.
 Regular integral format.
 Two-electron integral symmetry is turned on.
 Nuclear repulsion after empirical dispersion term =      781.7934754153 Hartrees.
 One-electron integrals computed using PRISM.
 NBasis=   385 RedAO= T EigKep=  1.10D-06  NBF=   285   100
 NBsUse=   379 1.00D-06 EigRej=  8.29D-07 NBFU=   279   100
 ExpMin= 3.60D-02 ExpMax= 4.56D+03 ExpMxC= 6.82D+02 IAcc=3 IRadAn=         5 AccDes= 0.00D+00
 Harris functional with IExCor= 1009 and IRadAn=       5 diagonalized for initial guess.
 HarFok:  IExCor= 1009 AccDes= 0.00D+00 IRadAn=         5 IDoV= 1 UseB2=F ITyADJ=14
 ICtDFT=  3500011 ScaDFX=  1.000000  1.000000  1.000000  1.000000
 FoFCou: FMM=F IPFlag=           0 FMFlag=      100000 FMFlg1=           0
         NFxFlg=           0 DoJE=T BraDBF=F KetDBF=T FulRan=T
         wScrn=  0.000000 ICntrl=       500 IOpCl=  0 I1Cent=   200000004 NGrid=           0
         NMat0=    1 NMatS0=      1 NMatT0=    0 NMatD0=    1 NMtDS0=    0 NMtDT0=    0
 Petite list used in FoFCou.
 Initial guess orbital symmetries:
       Occupied  (A') (A') (A') (A') (A') (A') (A') (A') (A') (A')
                 (A') (A') (A') (A') (A') (A') (A') (A') (A') (A')
                 (A') (A') (A') (A') (A') (A') (A') (A') (A') (A')
                 (A') (A') (A") (A') (A') (A') (A') (A') (A') (A")
                 (A") (A') (A') (A") (A") (A") (A")
       Virtual   (A") (A") (A") (A") (A") (A') (A') (A') (A') (A")
                 (A") (A') (A') (A') (A") (A') (A') (A') (A') (A")
                 (A') (A") (A') (A') (A') (A") (A') (A") (A') (A')
                 (A') (A') (A') (A") (A') (A') (A") (A') (A') (A")
                 (A') (A') (A') (A") (A') (A') (A') (A') (A') (A")
                 (A') (A') (A") (A") (A') (A') (A') (A") (A") (A')
                 (A') (A') (A') (A') (A') (A") (A') (A') (A') (A")
                 (A') (A') (A') (A') (A') (A') (A') (A') (A') (A')
                 (A') (A') (A') (A') (A') (A') (A') (A') (A') (A')
                 (A') (A') (A') (A') (A') (A') (A') (A") (A') (A")
                 (A') (A') (A") (A") (A') (A") (A") (A') (A') (A")
                 (A") (A') (A') (A') (A") (A') (A') (A") (A") (A')
                 (A") (A") (A') (A') (A') (A") (A') (A') (A') (A")
                 (A') (A') (A') (A') (A') (A') (A") (A') (A') (A')
                 (A') (A') (A') (A') (A') (A') (A') (A') (A') (A")
                 (A") (A') (A") (A") (A') (A') (A') (A") (A") (A')
                 (A") (A') (A") (A") (A") (A') (A') (A') (A') (A')
                 (A') (A") (A') (A") (A') (A') (A') (A') (A') (A")
                 (A') (A') (A') (A') (A") (A') (A") (A') (A") (A")
                 (A') (A") (A') (A") (A') (A') (A') (A") (A') (A')
                 (A") (A") (A") (A') (A') (A") (A') (A") (A') (A')
                 (A") (A") (A') (A") (A') (A") (A') (A') (A") (A')
                 (A') (A') (A') (A') (A") (A') (A') (A') (A") (A")
                 (A') (A') (A') (A") (A') (A') (A") (A') (A") (A')
                 (A") (A') (A') (A') (A') (A') (A") (A') (A') (A")
                 (A') (A') (A") (A') (A") (A') (A') (A") (A') (A')
                 (A') (A') (A") (A") (A') (A') (A') (A") (A") (A')
                 (A') (A') (A') (A') (A") (A') (A") (A') (A") (A')
                 (A") (A') (A") (A") (A") (A') (A') (A') (A') (A')
                 (A') (A') (A') (A') (A') (A') (A') (A') (A') (A')
                 (A') (A') (A') (A") (A') (A') (A') (A') (A') (A')
                 (A') (A') (A') (A') (A') (A') (A') (A') (A') (A')
                 (A') (A') (A') (A') (A') (A') (A') (A') (A') (A')
                 (A') (A')
 The electronic state of the initial guess is 1-A'.
 Requested convergence on RMS density matrix=1.00D-08 within 128 cycles.
 Requested convergence on MAX density matrix=1.00D-06.
 Requested convergence on             energy=1.00D-06.
 No special actions if energy rises.
 SCF Done:  E(RM062X) =  -539.759921354     A.U. after   15 cycles
            NFock= 15  Conv=0.44D-08     -V/T= 2.0041
 DoSCS=F DFT=T ScalE2(SS,OS)=  1.000000  1.000000
 ExpMin= 3.60D-02 ExpMax= 4.56D+03 ExpMxC= 6.82D+02 IAcc=3 IRadAn=         5 AccDes= 0.00D+00
 HarFok:  IExCor=  205 AccDes= 0.00D+00 IRadAn=         5 IDoV=-2 UseB2=F ITyADJ=14
 ICtDFT= 12500011 ScaDFX=  1.000000  1.000000  1.000000  1.000000
 Range of M.O.s used for correlation:    15   379
 NBasis=   385 NAE=    47 NBE=    47 NFC=    14 NFV=     0
 NROrb=    365 NOA=    33 NOB=    33 NVA=   332 NVB=   332

 **** Warning!!: The largest alpha MO coefficient is  0.14584976D+03

 Orbital symmetries:
       Occupied  (A') (A') (A') (A') (A') (A') (A') (A') (A') (A')
                 (A') (A') (A') (A') (A') (A') (A') (A') (A') (A')
                 (A') (A') (A') (A') (A') (A') (A') (A') (A') (A')
                 (A') (A') (A") (A') (A') (A') (A') (A") (A") (A')
                 (A') (A') (A') (A") (A") (A") (A")
       Virtual   (A") (A") (A") (A") (A') (A') (A') (A') (A") (A')
                 (A') (A") (A') (A') (A") (A') (A") (A') (A') (A')
                 (A") (A") (A') (A') (A') (A") (A') (A") (A') (A')
                 (A") (A') (A") (A') (A') (A') (A') (A') (A") (A')
                 (A") (A') (A') (A") (A") (A') (A") (A') (A") (A')
                 (A') (A') (A') (A') (A') (A") (A') (A') (A') (A')
                 (A') (A") (A') (A') (A") (A') (A') (A') (A') (A')
                 (A') (A') (A') (A') (A') (A') (A') (A') (A') (A')
                 (A') (A') (A') (A') (A') (A') (A') (A') (A') (A')
                 (A') (A') (A') (A') (A") (A') (A") (A") (A') (A")
                 (A') (A') (A') (A') (A") (A") (A') (A") (A") (A')
                 (A') (A') (A") (A') (A') (A") (A') (A") (A') (A")
                 (A") (A') (A") (A') (A') (A') (A") (A') (A') (A')
                 (A') (A') (A') (A') (A') (A') (A') (A') (A') (A')
                 (A') (A') (A') (A") (A') (A') (A') (A') (A') (A')
                 (A') (A') (A") (A') (A") (A') (A") (A") (A') (A")
                 (A") (A') (A') (A") (A") (A") (A') (A") (A') (A')
                 (A') (A') (A') (A") (A") (A') (A') (A') (A') (A")
                 (A') (A') (A') (A") (A') (A") (A') (A') (A") (A")
                 (A") (A') (A') (A") (A') (A") (A') (A') (A') (A')
                 (A") (A") (A") (A') (A") (A') (A') (A") (A') (A')
                 (A') (A") (A") (A') (A") (A") (A') (A') (A') (A")
                 (A') (A') (A') (A') (A") (A') (A') (A') (A") (A")
                 (A') (A') (A') (A") (A') (A') (A') (A") (A") (A')
                 (A") (A') (A') (A") (A') (A') (A') (A') (A') (A')
                 (A") (A') (A') (A') (A') (A") (A") (A") (A') (A')
                 (A') (A') (A') (A') (A') (A') (A") (A') (A') (A')
                 (A') (A") (A') (A") (A") (A") (A') (A") (A") (A')
                 (A') (A") (A") (A') (A") (A") (A') (A') (A') (A')
                 (A') (A') (A') (A') (A') (A') (A') (A') (A') (A')
                 (A') (A') (A') (A") (A') (A') (A') (A') (A') (A')
                 (A') (A') (A') (A') (A') (A') (A') (A') (A') (A')
                 (A') (A') (A') (A') (A') (A') (A') (A') (A') (A')
                 (A') (A')
     4 initial guesses have been made.
 Convergence on wavefunction:    0.001000000000000
 Iteration     1 Dimension     4 NMult     0 NNew      4
 CISAX will form     4 AO SS matrices at one time.
 Iteration     2 Dimension     6 NMult     4 NNew      2
 Iteration     3 Dimension     8 NMult     6 NNew      2
 Iteration     4 Dimension    10 NMult     8 NNew      2
 Iteration     5 Dimension    12 NMult    10 NNew      2
 Iteration     6 Dimension    14 NMult    12 NNew      2
 ***********************************************************************
 Excited states from <AA,BB:AA,BB> singles matrix:
 ***********************************************************************
 
 Ground to excited state transition densities written to RWF  633
 Ground to excited state transition electric dipole moments (Au):
       state          X           Y           Z        Dip. S.      Osc.
         1        -0.6514     -0.0001     -0.0000      0.4244      0.0293
 Ground to excited state transition velocity dipole moments (Au):
       state          X           Y           Z        Dip. S.      Osc.
         1         0.0753      0.0000     -0.0000      0.0057      0.0365
 Ground to excited state transition magnetic dipole moments (Au):
       state          X           Y           Z
         1        -0.0000     -0.0000      0.0002
 Ground to excited state transition velocity quadrupole moments (Au):
       state          XX          YY          ZZ          XY          XZ          YZ
         1         0.0342      0.2940     -0.0098     -0.0000      0.0000     -0.0000
 <0|del|b> * <b|rxdel|0> + <0|del|b> * <b|delr+rdel|0>
 Rotatory Strengths (R) in cgs (10**-40 erg-esu-cm/Gauss)
       state          XX          YY          ZZ    R(velocity)    E-M Angle
         1        -0.0000     -0.0000      0.0000     -0.0000       90.00
 1/2[<0|r|b>*<b|rxdel|0> + (<0|rxdel|b>*<b|r|0>)*]
 Rotatory Strengths (R) in cgs (10**-40 erg-esu-cm/Gauss)
       state          XX          YY          ZZ     R(length)
         1        -0.0000     -0.0000      0.0000     -0.0000
  1/2[<0|del|b>*<b|r|0> + (<0|r|b>*<b|del|0>)*] (Au)
       state          X           Y           Z        Dip. S.   Osc.(frdel)
         1        -0.0491     -0.0000      0.0000      0.0491      0.0327

 Excitation energies and oscillator strengths:
 
 Excited State   1:      Singlet-A'     2.8212 eV  439.47 nm  f=0.0293  <S**2>=0.000
      47 -> 48         0.70426
 This state for optimization and/or second-order correction.
 Total Energy, E(TD-HF/TD-DFT) =  -539.656242340    
 Copying the excited state density for this state as the 1-particle RhoCI density.
 SavETr:  write IOETrn=   770 NScale= 10 NData=  16 NLR=1 NState=    1 LETran=      28.

 **********************************************************************

            Population analysis using the SCF Density.

 **********************************************************************

 Orbital symmetries:
       Occupied  (A') (A') (A') (A') (A') (A') (A') (A') (A') (A')
                 (A') (A') (A') (A') (A') (A') (A') (A') (A') (A')
                 (A') (A') (A') (A') (A') (A') (A') (A') (A') (A')
                 (A') (A') (A") (A') (A') (A') (A') (A") (A") (A')
                 (A') (A') (A') (A") (A") (A") (A")
       Virtual   (A") (A") (A") (A") (A') (A') (A') (A') (A") (A')
                 (A') (A") (A') (A') (A") (A') (A") (A') (A') (A')
                 (A") (A") (A') (A') (A') (A") (A') (A") (A') (A')
                 (A") (A') (A") (A') (A') (A') (A') (A') (A") (A')
                 (A") (A') (A') (A") (A") (A') (A") (A') (A") (A')
                 (A') (A') (A') (A') (A') (A") (A') (A') (A') (A')
                 (A') (A") (A') (A') (A") (A') (A') (A') (A') (A')
                 (A') (A') (A') (A') (A') (A') (A') (A') (A') (A')
                 (A') (A') (A') (A') (A') (A') (A') (A') (A') (A')
                 (A') (A') (A') (A') (A") (A') (A") (A") (A') (A")
                 (A') (A') (A') (A') (A") (A") (A') (A") (A") (A')
                 (A') (A') (A") (A') (A') (A") (A') (A") (A') (A")
                 (A") (A') (A") (A') (A') (A') (A") (A') (A') (A')
                 (A') (A') (A') (A') (A') (A') (A') (A') (A') (A')
                 (A') (A') (A') (A") (A') (A') (A') (A') (A') (A')
                 (A') (A') (A") (A') (A") (A') (A") (A") (A') (A")
                 (A") (A') (A') (A") (A") (A") (A') (A") (A') (A')
                 (A') (A') (A') (A") (A") (A') (A') (A') (A') (A")
                 (A') (A') (A') (A") (A') (A") (A') (A') (A") (A")
                 (A") (A') (A') (A") (A') (A") (A') (A') (A') (A')
                 (A") (A") (A") (A') (A") (A') (A') (A") (A') (A')
                 (A') (A") (A") (A') (A") (A") (A') (A') (A') (A")
                 (A') (A') (A') (A') (A") (A') (A') (A') (A") (A")
                 (A') (A') (A') (A") (A') (A') (A') (A") (A") (A')
                 (A") (A') (A') (A") (A') (A') (A') (A') (A') (A')
                 (A") (A') (A') (A') (A') (A") (A") (A") (A') (A')
                 (A') (A') (A') (A') (A') (A') (A") (A') (A') (A')
                 (A') (A") (A') (A") (A") (A") (A') (A") (A") (A')
                 (A') (A") (A") (A') (A") (A") (A') (A') (A') (A')
                 (A') (A') (A') (A') (A') (A') (A') (A') (A') (A')
                 (A') (A') (A') (A") (A') (A') (A') (A') (A') (A')
                 (A') (A') (A') (A') (A') (A') (A') (A') (A') (A')
                 (A') (A') (A') (A') (A') (A') (A') (A') (A') (A')
                 (A') (A')
 The electronic state is 1-A'.
 Alpha  occ. eigenvalues --  -10.77638 -10.73163 -10.73161 -10.72410 -10.72408
 Alpha  occ. eigenvalues --  -10.71360 -10.71360 -10.71017 -10.71017 -10.70940
 Alpha  occ. eigenvalues --  -10.69970 -10.69969 -10.69609 -10.69609  -1.16520
 Alpha  occ. eigenvalues --   -1.12517  -1.06944  -1.05855  -1.01315  -1.00275
 Alpha  occ. eigenvalues --   -0.95771  -0.91088  -0.86428  -0.85930  -0.83841
 Alpha  occ. eigenvalues --   -0.78412  -0.76100  -0.74426  -0.69525  -0.69266
 Alpha  occ. eigenvalues --   -0.68530  -0.68223  -0.68081  -0.64757  -0.64318
 Alpha  occ. eigenvalues --   -0.63180  -0.61874  -0.59915  -0.59715  -0.59074
 Alpha  occ. eigenvalues --   -0.56936  -0.55192  -0.54895  -0.52428  -0.46672
 Alpha  occ. eigenvalues --   -0.46056  -0.44456
 Alpha virt. eigenvalues --   -0.26059  -0.14677  -0.14094  -0.12767  -0.11184
 Alpha virt. eigenvalues --   -0.10096  -0.09230  -0.07984  -0.07955  -0.07478
 Alpha virt. eigenvalues --   -0.07214  -0.07151  -0.05639  -0.05586  -0.05338
 Alpha virt. eigenvalues --   -0.03827  -0.03649  -0.03282  -0.03127  -0.02162
 Alpha virt. eigenvalues --   -0.01373  -0.00932   0.00178   0.00593   0.00707
 Alpha virt. eigenvalues --    0.01058   0.01508   0.01929   0.02226   0.02260
 Alpha virt. eigenvalues --    0.02450   0.02676   0.02756   0.03211   0.03373
 Alpha virt. eigenvalues --    0.04235   0.04516   0.04687   0.05024   0.05363
 Alpha virt. eigenvalues --    0.06027   0.06308   0.06600   0.07068   0.07243
 Alpha virt. eigenvalues --    0.07897   0.08177   0.08379   0.08568   0.08928
 Alpha virt. eigenvalues --    0.09558   0.09560   0.10062   0.10909   0.11095
 Alpha virt. eigenvalues --    0.11103   0.12208   0.12251   0.12924   0.13032
 Alpha virt. eigenvalues --    0.13416   0.13519   0.14043   0.14367   0.16254
 Alpha virt. eigenvalues --    0.16318   0.16346   0.17351   0.17625   0.17790
 Alpha virt. eigenvalues --    0.18147   0.19036   0.19225   0.19670   0.19771
 Alpha virt. eigenvalues --    0.21601   0.21647   0.22732   0.23150   0.23595
 Alpha virt. eigenvalues --    0.23657   0.24513   0.25183   0.26929   0.27629
 Alpha virt. eigenvalues --    0.28888   0.29325   0.29926   0.31401   0.35911
 Alpha virt. eigenvalues --    0.36495   0.38179   0.39291   0.41176   0.41400
 Alpha virt. eigenvalues --    0.42043   0.42140   0.42980   0.43744   0.44303
 Alpha virt. eigenvalues --    0.44934   0.45047   0.46087   0.46219   0.47859
 Alpha virt. eigenvalues --    0.48539   0.48929   0.48996   0.50446   0.51353
 Alpha virt. eigenvalues --    0.51739   0.51739   0.52112   0.52979   0.53980
 Alpha virt. eigenvalues --    0.54083   0.54738   0.55681   0.55768   0.57248
 Alpha virt. eigenvalues --    0.58247   0.58822   0.61470   0.62129   0.62359
 Alpha virt. eigenvalues --    0.63250   0.63501   0.65106   0.65175   0.67475
 Alpha virt. eigenvalues --    0.70356   0.70527   0.71070   0.72450   0.72905
 Alpha virt. eigenvalues --    0.75754   0.76027   0.76334   0.76909   0.77110
 Alpha virt. eigenvalues --    0.77862   0.77961   0.78306   0.79843   0.80415
 Alpha virt. eigenvalues --    0.81310   0.81615   0.82123   0.83037   0.85254
 Alpha virt. eigenvalues --    0.87218   0.88278   0.88678   0.89098   0.90450
 Alpha virt. eigenvalues --    0.91214   0.91233   0.93198   0.94670   0.96519
 Alpha virt. eigenvalues --    0.96624   1.00347   1.01351   1.01671   1.02725
 Alpha virt. eigenvalues --    1.03212   1.03934   1.04746   1.05327   1.08831
 Alpha virt. eigenvalues --    1.19598   1.23234   1.24134   1.25363   1.28246
 Alpha virt. eigenvalues --    1.29612   1.31856   1.34178   1.35825   1.36021
 Alpha virt. eigenvalues --    1.39434   1.40209   1.41014   1.42889   1.43544
 Alpha virt. eigenvalues --    1.43566   1.45271   1.45389   1.46413   1.46698
 Alpha virt. eigenvalues --    1.47641   1.48087   1.51866   1.53628   1.55798
 Alpha virt. eigenvalues --    1.56235   1.56350   1.56560   1.57858   1.61555
 Alpha virt. eigenvalues --    1.63142   1.63528   1.63690   1.66186   1.68357
 Alpha virt. eigenvalues --    1.68416   1.68651   1.69681   1.74501   1.76038
 Alpha virt. eigenvalues --    1.77289   1.78043   1.80240   1.80294   1.80773
 Alpha virt. eigenvalues --    1.83196   1.83236   1.83718   1.83787   1.84105
 Alpha virt. eigenvalues --    1.84322   1.85860   1.86100   1.88259   1.91432
 Alpha virt. eigenvalues --    1.92156   1.94186   1.95280   1.97727   1.98218
 Alpha virt. eigenvalues --    1.99821   2.02884   2.04541   2.07266   2.11861
 Alpha virt. eigenvalues --    2.12148   2.14130   2.15212   2.19266   2.21474
 Alpha virt. eigenvalues --    2.22802   2.28439   2.30566   2.34808   2.35035
 Alpha virt. eigenvalues --    2.36225   2.38693   2.39599   2.42440   2.44094
 Alpha virt. eigenvalues --    2.46230   2.47089   2.49445   2.52993   2.53861
 Alpha virt. eigenvalues --    2.54566   2.56561   2.57865   2.58295   2.59688
 Alpha virt. eigenvalues --    2.59837   2.61656   2.62204   2.63597   2.63900
 Alpha virt. eigenvalues --    2.64805   2.65187   2.65239   2.65395   2.68251
 Alpha virt. eigenvalues --    2.68756   2.71005   2.71429   2.73368   2.74850
 Alpha virt. eigenvalues --    2.76302   2.79225   2.79798   2.83108   2.83195
 Alpha virt. eigenvalues --    2.84961   2.86452   2.92182   2.96930   2.99562
 Alpha virt. eigenvalues --    3.00139   3.05749   3.11421   3.11754   3.13182
 Alpha virt. eigenvalues --    3.21386   3.24786   3.26988   3.28362   3.30871
 Alpha virt. eigenvalues --    3.32797   3.33685   3.43420   3.45927   3.47034
 Alpha virt. eigenvalues --    3.48917   3.50426   3.56776   3.64448   3.67330
 Alpha virt. eigenvalues --    3.67532   3.94189   3.94624   3.95087   3.96304
 Alpha virt. eigenvalues --    4.04060   4.07020   4.07706   4.12521   4.35964
 Alpha virt. eigenvalues --    4.62255   4.70031   4.71749  23.45318  23.60731
 Alpha virt. eigenvalues --   23.82435  23.86355  23.88145  23.89560  23.90380
 Alpha virt. eigenvalues --   23.92378  23.98320  23.99739  23.99871  24.00523
 Alpha virt. eigenvalues --   24.10674  24.10766
          Condensed to atoms (all electrons):
               1          2          3          4          5          6
     1  C    8.495638   0.477239  -0.587076   1.774623   0.015749  -0.093698
     2  C    0.477239   7.017831   0.387740  -0.970088  -0.035391  -0.015495
     3  C   -0.587076   0.387740   6.580920   0.721829  -0.116599   0.016959
     4  C    1.774623  -0.970088   0.721829  10.642478  -0.251888  -0.116565
     5  C    0.015749  -0.035391  -0.116599  -0.251888  10.642926   0.721785
     6  C   -0.093698  -0.015495   0.016959  -0.116565   0.721785   6.580920
     7  C   -0.030095   0.005255  -0.015495  -0.035421  -0.969953   0.387635
     8  C    0.404724  -0.030046  -0.093690   0.015546   1.774986  -0.587089
     9  C   -1.343681  -0.749035   0.277331  -0.315524  -0.314930   0.277338
    10  C   -1.189399   0.219642  -0.361778  -2.519926  -2.519947  -0.361588
    11  C    0.186174  -0.968332   1.032782  -0.198566  -1.488160  -0.182405
    12  C   -1.647496   1.234199  -1.333254  -1.327664  -0.307993  -0.201473
    13  C    0.106255  -0.234317  -0.182373  -1.488022  -0.198470   1.032573
    14  C   -1.057083  -0.215059  -0.201488  -0.307528  -1.328871  -1.333065
    15  H    0.362268  -0.099892  -0.002454   0.025467   0.006195   0.001092
    16  H   -0.020274   0.376708  -0.015067   0.013772  -0.001564  -0.000328
    17  H   -0.020813  -0.017559   0.373907  -0.065183   0.000293   0.000388
    18  H    0.047306   0.002899  -0.085712   0.449486   0.008712  -0.004851
    19  H   -0.046985  -0.007321   0.050197  -0.070653  -0.070698   0.050189
    20  H    0.007786   0.001879  -0.004852   0.008706   0.449490  -0.085716
    21  H   -0.001344  -0.000395   0.000388   0.000294  -0.065183   0.373903
    22  H    0.000679   0.000352  -0.000328  -0.001564   0.013782  -0.015076
    23  H    0.006008  -0.002777   0.001092   0.006195   0.025466  -0.002453
    24  H    0.030587   0.014070  -0.001386  -0.012448  -0.012450  -0.001388
    25  H    0.030587   0.014070  -0.001386  -0.012448  -0.012450  -0.001388
               7          8          9         10         11         12
     1  C   -0.030095   0.404724  -1.343681  -1.189399   0.186174  -1.647496
     2  C    0.005255  -0.030046  -0.749035   0.219642  -0.968332   1.234199
     3  C   -0.015495  -0.093690   0.277331  -0.361778   1.032782  -1.333254
     4  C   -0.035421   0.015546  -0.315524  -2.519926  -0.198566  -1.327664
     5  C   -0.969953   1.774986  -0.314930  -2.519947  -1.488160  -0.307993
     6  C    0.387635  -0.587089   0.277338  -0.361588  -0.182405  -0.201473
     7  C    7.017293   0.477197  -0.748901   0.219495  -0.234047  -0.214952
     8  C    0.477197   8.495104  -1.343017  -1.189482   0.106755  -1.056695
     9  C   -0.748901  -1.343017   9.706073   0.246636   1.884322  -2.041938
    10  C    0.219495  -1.189482   0.246636   9.335809  -0.656083   2.422864
    11  C   -0.234047   0.106755   1.884322  -0.656083  14.807787  -3.885177
    12  C   -0.214952  -1.056695  -2.041938   2.422864  -3.885177  16.008163
    13  C   -0.968073   0.185644   1.883832  -0.655818   1.093201  -4.908028
    14  C    1.234109  -1.648222  -2.042497   2.423316  -4.907499   2.824732
    15  H   -0.002775   0.006008   0.092092  -0.009576  -0.029065  -0.023801
    16  H    0.000352   0.000677   0.005389  -0.010335   0.032088  -0.038006
    17  H   -0.000395  -0.001343  -0.006109   0.020941  -0.029263   0.089133
    18  H    0.001879   0.007782  -0.026179   0.020477  -0.012950  -0.048475
    19  H   -0.007322  -0.046980   0.077192   0.422508   0.077529  -0.064591
    20  H    0.002908   0.047308  -0.026168   0.020460  -0.011487  -0.010675
    21  H   -0.017565  -0.020804  -0.006112   0.020940  -0.006428   0.005234
    22  H    0.376702  -0.020250   0.005403  -0.010339   0.003261  -0.009190
    23  H   -0.099880   0.362286   0.092110  -0.009574   0.001332   0.006871
    24  H    0.014066   0.030573   0.359333   0.005853   0.012963  -0.059071
    25  H    0.014066   0.030573   0.359333   0.005853   0.012963  -0.059071
              13         14         15         16         17         18
     1  C    0.106255  -1.057083   0.362268  -0.020274  -0.020813   0.047306
     2  C   -0.234317  -0.215059  -0.099892   0.376708  -0.017559   0.002899
     3  C   -0.182373  -0.201488  -0.002454  -0.015067   0.373907  -0.085712
     4  C   -1.488022  -0.307528   0.025467   0.013772  -0.065183   0.449486
     5  C   -0.198470  -1.328871   0.006195  -0.001564   0.000293   0.008712
     6  C    1.032573  -1.333065   0.001092  -0.000328   0.000388  -0.004851
     7  C   -0.968073   1.234109  -0.002775   0.000352  -0.000395   0.001879
     8  C    0.185644  -1.648222   0.006008   0.000677  -0.001343   0.007782
     9  C    1.883832  -2.042497   0.092092   0.005389  -0.006109  -0.026179
    10  C   -0.655818   2.423316  -0.009576  -0.010335   0.020941   0.020477
    11  C    1.093201  -4.907499  -0.029065   0.032088  -0.029263  -0.012950
    12  C   -4.908028   2.824732  -0.023801  -0.038006   0.089133  -0.048475
    13  C   14.809206  -3.884990   0.001335   0.003258  -0.006429  -0.011488
    14  C   -3.884990  16.009627   0.006871  -0.009188   0.005233  -0.010663
    15  H    0.001335   0.006871   0.437858  -0.008862   0.001453   0.000235
    16  H    0.003258  -0.009188  -0.008862   0.418970  -0.006654   0.001890
    17  H   -0.006429   0.005233   0.001453  -0.006654   0.422372  -0.010021
    18  H   -0.011488  -0.010663   0.000235   0.001890  -0.010021   0.452252
    19  H    0.077485  -0.064610   0.000276  -0.000519   0.001382  -0.005983
    20  H   -0.012918  -0.048501  -0.000109   0.000014  -0.000140   0.001317
    21  H   -0.029259   0.089131   0.000012  -0.000007   0.000010  -0.000140
    22  H    0.032105  -0.038053  -0.000125   0.000007  -0.000007   0.000014
    23  H   -0.029086  -0.023818   0.000639  -0.000125   0.000012  -0.000109
    24  H    0.012940  -0.059074  -0.000864   0.000623  -0.000140   0.000165
    25  H    0.012940  -0.059074  -0.000864   0.000623  -0.000140   0.000165
              19         20         21         22         23         24
     1  C   -0.046985   0.007786  -0.001344   0.000679   0.006008   0.030587
     2  C   -0.007321   0.001879  -0.000395   0.000352  -0.002777   0.014070
     3  C    0.050197  -0.004852   0.000388  -0.000328   0.001092  -0.001386
     4  C   -0.070653   0.008706   0.000294  -0.001564   0.006195  -0.012448
     5  C   -0.070698   0.449490  -0.065183   0.013782   0.025466  -0.012450
     6  C    0.050189  -0.085716   0.373903  -0.015076  -0.002453  -0.001388
     7  C   -0.007322   0.002908  -0.017565   0.376702  -0.099880   0.014066
     8  C   -0.046980   0.047308  -0.020804  -0.020250   0.362286   0.030573
     9  C    0.077192  -0.026168  -0.006112   0.005403   0.092110   0.359333
    10  C    0.422508   0.020460   0.020940  -0.010339  -0.009574   0.005853
    11  C    0.077529  -0.011487  -0.006428   0.003261   0.001332   0.012963
    12  C   -0.064591  -0.010675   0.005234  -0.009190   0.006871  -0.059071
    13  C    0.077485  -0.012918  -0.029259   0.032105  -0.029086   0.012940
    14  C   -0.064610  -0.048501   0.089131  -0.038053  -0.023818  -0.059074
    15  H    0.000276  -0.000109   0.000012  -0.000125   0.000639  -0.000864
    16  H   -0.000519   0.000014  -0.000007   0.000007  -0.000125   0.000623
    17  H    0.001382  -0.000140   0.000010  -0.000007   0.000012  -0.000140
    18  H   -0.005983   0.001317  -0.000140   0.000014  -0.000109   0.000165
    19  H    0.442403  -0.005984   0.001382  -0.000519   0.000277   0.000650
    20  H   -0.005984   0.452255  -0.010020   0.001890   0.000235   0.000165
    21  H    0.001382  -0.010020   0.422371  -0.006655   0.001453  -0.000140
    22  H   -0.000519   0.001890  -0.006655   0.418970  -0.008863   0.000623
    23  H    0.000277   0.000235   0.001453  -0.008863   0.437860  -0.000865
    24  H    0.000650   0.000165  -0.000140   0.000623  -0.000865   0.495783
    25  H    0.000650   0.000165  -0.000140   0.000623  -0.000865  -0.082074
              25
     1  C    0.030587
     2  C    0.014070
     3  C   -0.001386
     4  C   -0.012448
     5  C   -0.012450
     6  C   -0.001388
     7  C    0.014066
     8  C    0.030573
     9  C    0.359333
    10  C    0.005853
    11  C    0.012963
    12  C   -0.059071
    13  C    0.012940
    14  C   -0.059074
    15  H   -0.000864
    16  H    0.000623
    17  H   -0.000140
    18  H    0.000165
    19  H    0.000650
    20  H    0.000165
    21  H   -0.000140
    22  H    0.000623
    23  H   -0.000865
    24  H   -0.082074
    25  H    0.495783
 Mulliken charges:
               1
     1  C    0.092323
     2  C   -0.406177
     3  C   -0.440208
     4  C    0.035093
     5  C    0.035160
     6  C   -0.440205
     7  C   -0.406082
     8  C    0.092457
     9  C   -0.302294
    10  C    0.109052
    11  C   -0.641696
    12  C    0.646354
    13  C   -0.641503
    14  C    0.646265
    15  H    0.236584
    16  H    0.256557
    17  H    0.249070
    18  H    0.221993
    19  H    0.190045
    20  H    0.221994
    21  H    0.249072
    22  H    0.256557
    23  H    0.236581
    24  H    0.251503
    25  H    0.251503
 Sum of Mulliken charges =   1.00000
 Mulliken charges with hydrogens summed into heavy atoms:
               1
     1  C    0.328907
     2  C   -0.149619
     3  C   -0.191138
     4  C    0.257086
     5  C    0.257154
     6  C   -0.191133
     7  C   -0.149525
     8  C    0.329038
     9  C    0.200713
    10  C    0.299098
    11  C   -0.641696
    12  C    0.646354
    13  C   -0.641503
    14  C    0.646265
 Electronic spatial extent (au):  <R**2>=           2851.8825
 Charge=              1.0000 electrons
 Dipole moment (field-independent basis, Debye):
    X=              0.1766    Y=              0.0000    Z=              0.0000  Tot=              0.1766
 Quadrupole moment (field-independent basis, Debye-Ang):
   XX=            -56.2432   YY=            -31.1864   ZZ=            -84.1390
   XY=             -0.0001   XZ=             -0.0000   YZ=             -0.0000
 Traceless Quadrupole moment (field-independent basis, Debye-Ang):
   XX=              0.9463   YY=             26.0031   ZZ=            -26.9495
   XY=             -0.0001   XZ=             -0.0000   YZ=             -0.0000
 Octapole moment (field-independent basis, Debye-Ang**2):
  XXX=              5.0855  YYY=              0.0018  ZZZ=             -0.0000  XYY=             -5.1631
  XXY=              0.0004  XXZ=              0.0000  XZZ=             -3.0362  YZZ=             -0.0002
  YYZ=              0.0000  XYZ=             -0.0000
 Hexadecapole moment (field-independent basis, Debye-Ang**3):
 XXXX=           -607.8793 YYYY=          -2121.1658 ZZZZ=            -99.2966 XXXY=             -0.0040
 XXXZ=              0.0000 YYYX=             -0.0042 YYYZ=              0.0000 ZZZX=              0.0000
 ZZZY=              0.0000 XXYY=           -506.8777 XXZZ=           -145.5644 YYZZ=           -589.8650
 XXYZ=             -0.0000 YYXZ=              0.0000 ZZXY=             -0.0010
 N-N= 7.817934754153D+02 E-N=-2.799948920271D+03  KE= 5.375376500673D+02
 Symmetry A'   KE= 5.228903507983D+02
 Symmetry A"   KE= 1.464729926903D+01
 Unable to Open any file for archive entry.
 1\1\GINC-GADI-CPU-CLX-1762\SP\RM062X TD-FC\6-311++G(d,p)\C14H11(1+)\TS
 1578\02-Aug-2022\0\\#n M062X/6-311++G(d,p) TD(NStates=1) EmpiricalDisp
 ersion=GD3 SP\\SP_-150\\1,1\C,0,2.486955,1.362231,0.\C,0,3.698658,0.67
 3039,0.\C,0,3.682061,-0.71083,0.\C,0,2.462856,-1.406938,0.\C,0,-2.4628
 56,-1.406938,0.\C,0,-3.682061,-0.71083,0.\C,0,-3.698658,0.673039,0.\C,
 0,-2.486955,1.362231,0.\C,0,0.00015,1.440169,0.\C,0,0.,-1.428589,0.\C,
 0,1.261605,0.676915,0.\C,0,1.238671,-0.731704,0.\C,0,-1.261605,0.67691
 5,0.\C,0,-1.238671,-0.731704,0.\H,0,2.481471,2.445597,0.\H,0,4.633303,
 1.213939,0.\H,0,4.608362,-1.268599,0.\H,0,2.46845,-2.489609,0.\H,0,0.,
 -2.509966,0.\H,0,-2.46845,-2.489609,0.\H,0,-4.608362,-1.268599,0.\H,0,
 -4.633303,1.213939,0.\H,0,-2.481471,2.445597,0.\H,0,0.,2.142787,-0.856
 285\H,0,0.,2.142787,0.856285\\Version=ES64L-G16RevC.01\State=1-A'\HF=-
 539.7599214\RMSD=4.377e-09\PG=CS [SG(C14H9),X(H2)]\\@
 The archive entry for this job was punched.


 ART, GLORY, FREEDOM FAIL, BUT NATURE STILL IS FAIR.

                                           -- BYRON
 Job cpu time:       0 days  0 hours 52 minutes 14.1 seconds.
 Elapsed time:       0 days  0 hours  1 minutes  5.6 seconds.
 File lengths (MBytes):  RWF=    460 Int=      0 D2E=      0 Chk=     15 Scr=      1
 Normal termination of Gaussian 16 at Tue Aug  2 10:33:13 2022.
