 Entering Gaussian System, Link 0=g16
 Initial command:
 /apps/gaussian/g16c01/g16/l1.exe "/jobfs/53796104.gadi-pbs/Gau-3652500.inp" -scrdir="/jobfs/53796104.gadi-pbs/"
 Entering Link 1 = /apps/gaussian/g16c01/g16/l1.exe PID=   3652501.
  
 Copyright (c) 1988-2019, Gaussian, Inc.  All Rights Reserved.
  
 This is part of the Gaussian(R) 16 program.  It is based on
 the Gaussian(R) 09 system (copyright 2009, Gaussian, Inc.),
 the Gaussian(R) 03 system (copyright 2003, Gaussian, Inc.),
 the Gaussian(R) 98 system (copyright 1998, Gaussian, Inc.),
 the Gaussian(R) 94 system (copyright 1995, Gaussian, Inc.),
 the Gaussian 92(TM) system (copyright 1992, Gaussian, Inc.),
 the Gaussian 90(TM) system (copyright 1990, Gaussian, Inc.),
 the Gaussian 88(TM) system (copyright 1988, Gaussian, Inc.),
 the Gaussian 86(TM) system (copyright 1986, Carnegie Mellon
 University), and the Gaussian 82(TM) system (copyright 1983,
 Carnegie Mellon University). Gaussian is a federally registered
 trademark of Gaussian, Inc.
  
 This software contains proprietary and confidential information,
 including trade secrets, belonging to Gaussian, Inc.
  
 This software is provided under written license and may be
 used, copied, transmitted, or stored only in accord with that
 written license.
  
 The following legend is applicable only to US Government
 contracts under FAR:
  
                    RESTRICTED RIGHTS LEGEND
  
 Use, reproduction and disclosure by the US Government is
 subject to restrictions as set forth in subparagraphs (a)
 and (c) of the Commercial Computer Software - Restricted
 Rights clause in FAR 52.227-19.
  
 Gaussian, Inc.
 340 Quinnipiac St., Bldg. 40, Wallingford CT 06492
  
  
 ---------------------------------------------------------------
 Warning -- This program may not be used in any manner that
 competes with the business of Gaussian, Inc. or will provide
 assistance to any competitor of Gaussian, Inc.  The licensee
 of this program is prohibited from giving any competitor of
 Gaussian, Inc. access to this program.  By using this program,
 the user acknowledges that Gaussian, Inc. is engaged in the
 business of creating and licensing software in the field of
 computational chemistry and represents and warrants to the
 licensee that it is not a competitor of Gaussian, Inc. and that
 it will not use this program in any manner prohibited above.
 ---------------------------------------------------------------
  

 Cite this work as:
 Gaussian 16, Revision C.01,
 M. J. Frisch, G. W. Trucks, H. B. Schlegel, G. E. Scuseria, 
 M. A. Robb, J. R. Cheeseman, G. Scalmani, V. Barone, 
 G. A. Petersson, H. Nakatsuji, X. Li, M. Caricato, A. V. Marenich, 
 J. Bloino, B. G. Janesko, R. Gomperts, B. Mennucci, H. P. Hratchian, 
 J. V. Ortiz, A. F. Izmaylov, J. L. Sonnenberg, D. Williams-Young, 
 F. Ding, F. Lipparini, F. Egidi, J. Goings, B. Peng, A. Petrone, 
 T. Henderson, D. Ranasinghe, V. G. Zakrzewski, J. Gao, N. Rega, 
 G. Zheng, W. Liang, M. Hada, M. Ehara, K. Toyota, R. Fukuda, 
 J. Hasegawa, M. Ishida, T. Nakajima, Y. Honda, O. Kitao, H. Nakai, 
 T. Vreven, K. Throssell, J. A. Montgomery, Jr., J. E. Peralta, 
 F. Ogliaro, M. J. Bearpark, J. J. Heyd, E. N. Brothers, K. N. Kudin, 
 V. N. Staroverov, T. A. Keith, R. Kobayashi, J. Normand, 
 K. Raghavachari, A. P. Rendell, J. C. Burant, S. S. Iyengar, 
 J. Tomasi, M. Cossi, J. M. Millam, M. Klene, C. Adamo, R. Cammi, 
 J. W. Ochterski, R. L. Martin, K. Morokuma, O. Farkas, 
 J. B. Foresman, and D. J. Fox, Gaussian, Inc., Wallingford CT, 2019.
 
 ******************************************
 Gaussian 16:  ES64L-G16RevC.01  3-Jul-2019
                 2-Aug-2022 
 ******************************************
 %NProcShared=48
 Will use up to   48 processors via shared memory.
 %mem = 190GB
 ---------------------------------------------------------------
 #n M062X/6-311++G(d,p) TD(NStates=1) EmpiricalDispersion=GD3 SP
 ---------------------------------------------------------------
 1/38=1,172=1/1;
 2/12=2,17=6,18=5,40=1/2;
 3/5=4,6=6,7=1111,11=9,25=1,30=1,74=-55,124=31/1,2,3,8;
 4//1;
 5/5=2,38=5/2;
 8/6=1,10=2,108=1/1;
 9/41=1,42=1,70=2/14;
 6/7=2,8=2,9=2,10=2/1;
 99/5=1,9=1/99;
 -----
 SP_50
 -----
 Symbolic Z-matrix:
 Charge =  1 Multiplicity = 1
 C                     2.50626   1.35893   0. 
 C                     3.71551   0.67666   0. 
 C                     3.68836  -0.70628   0. 
 C                     2.45163  -1.40106   0. 
 C                    -2.47503  -1.41471   0. 
 C                    -3.68146  -0.72488   0. 
 C                    -3.69083   0.66609   0. 
 C                    -2.48571   1.35983   0. 
 C                     0.00648   1.46107   0. 
 C                    -0.0183   -1.42954   0. 
 C                     1.25958   0.67142   0. 
 C                     1.22927  -0.72938   0. 
 C                    -1.26506   0.68289   0. 
 C                    -1.24427  -0.73118   0. 
 H                     2.49507   2.44217   0. 
 H                     4.65125   1.21469   0. 
 H                     4.60761  -1.27487   0. 
 H                     2.46155  -2.48368   0. 
 H                    -0.01688  -2.51044   0. 
 H                    -2.4725   -2.49696   0. 
 H                    -4.61196  -1.2742    0. 
 H                    -4.62628   1.20606   0. 
 H                    -2.48877   2.44285   0. 
 H                     0.024     2.14754  -0.86151 
 H                     0.024     2.14754   0.86151 
 
                          Input orientation:                          
 ---------------------------------------------------------------------
 Center     Atomic      Atomic             Coordinates (Angstroms)
 Number     Number       Type             X           Y           Z
 ---------------------------------------------------------------------
      1          6           0        2.506255    1.358931    0.000000
      2          6           0        3.715508    0.676664    0.000000
      3          6           0        3.688361   -0.706280    0.000000
      4          6           0        2.451631   -1.401063    0.000000
      5          6           0       -2.475031   -1.414713    0.000000
      6          6           0       -3.681461   -0.724880    0.000000
      7          6           0       -3.690833    0.666089    0.000000
      8          6           0       -2.485705    1.359831    0.000000
      9          6           0        0.006475    1.461069    0.000000
     10          6           0       -0.018300   -1.429539    0.000000
     11          6           0        1.259580    0.671415    0.000000
     12          6           0        1.229271   -0.729379    0.000000
     13          6           0       -1.265055    0.682890    0.000000
     14          6           0       -1.244271   -0.731179    0.000000
     15          1           0        2.495071    2.442172    0.000000
     16          1           0        4.651253    1.214689    0.000000
     17          1           0        4.607612   -1.274874    0.000000
     18          1           0        2.461550   -2.483684    0.000000
     19          1           0       -0.016875   -2.510441    0.000000
     20          1           0       -2.472500   -2.496959    0.000000
     21          1           0       -4.611962   -1.274199    0.000000
     22          1           0       -4.626278    1.206064    0.000000
     23          1           0       -2.488771    2.442847    0.000000
     24          1           0        0.024000    2.147537   -0.861510
     25          1           0        0.024000    2.147537    0.861510
 ---------------------------------------------------------------------
                    Distance matrix (angstroms):
                    1          2          3          4          5
     1  C    0.000000
     2  C    1.388446   0.000000
     3  C    2.379595   1.383210   0.000000
     4  C    2.760534   2.431940   1.418529   0.000000
     5  C    5.701431   6.534266   6.203973   4.926681   0.000000
     6  C    6.529173   7.528577   7.369845   6.170255   1.389728
     7  C    6.235698   7.406349   7.505725   6.480971   2.409961
     8  C    4.991960   6.238731   6.510599   5.656839   2.774565
     9  C    2.501866   3.791071   4.272433   3.764384   3.798420
    10  C    3.761508   4.286889   3.776564   2.470095   2.456776
    11  C    1.423684   2.455934   2.792315   2.390847   4.277762
    12  C    2.447800   2.856279   2.459198   1.394748   3.767166
    13  C    3.831424   4.980567   5.144524   4.261058   2.421566
    14  C    4.293600   5.155718   4.932695   3.756120   1.407831
    15  H    1.083299   2.146272   3.367000   3.843480   6.291063
    16  H    2.149842   1.079393   2.148786   3.417674   7.595899
    17  H    3.369366   2.145775   1.080889   2.159671   7.084023
    18  H    3.842875   3.400031   2.159683   1.082666   5.050993
    19  H    4.619332   4.907985   4.121137   2.706334   2.691310
    20  H    6.297292   6.954375   6.415819   5.044606   1.082249
    21  H    7.589624   8.552931   8.319729   7.064732   2.141546
    22  H    7.134171   8.358568   8.531722   7.542805   3.390625
    23  H    5.111278   6.450774   6.933539   6.259650   3.857584
    24  H    2.743299   4.066067   4.723771   4.384992   4.435874
    25  H    2.743299   4.066067   4.723771   4.384992   4.435874
                    6          7          8          9         10
     6  C    0.000000
     7  C    1.391001   0.000000
     8  C    2.403300   1.390544   0.000000
     9  C    4.287102   3.781809   2.494235   0.000000
    10  C    3.730321   4.228375   3.724067   2.890714   0.000000
    11  C    5.134542   4.950416   3.808028   1.481157   2.459062
    12  C    4.910734   5.114172   4.262141   2.508644   1.430614
    13  C    2.796575   2.425836   1.395792   1.490755   2.452907
    14  C    2.437198   2.817450   2.431765   2.523949   1.410926
    15  H    6.941165   6.435828   5.097018   2.675009   4.615970
    16  H    8.555469   8.360105   7.138434   4.651308   5.366253
    17  H    8.307299   8.522413   7.566823   5.353116   4.628497
    18  H    6.389834   6.911793   6.264818   4.646339   2.694602
    19  H    4.076447   4.856780   4.590656   3.971579   1.080903
    20  H    2.145192   3.389573   3.856813   4.670257   2.676282
    21  H    1.080548   2.147835   3.385127   5.367649   4.596288
    22  H    2.149703   1.080107   2.146089   4.639766   5.308471
    23  H    3.384820   2.145186   1.083020   2.681444   4.593321
    24  H    4.766909   4.091072   2.767905   1.101701   3.679601
    25  H    4.766909   4.091072   2.767905   1.101701   3.679601
                   11         12         13         14         15
    11  C    0.000000
    12  C    1.401122   0.000000
    13  C    2.524661   2.866386   0.000000
    14  C    2.869937   2.473543   1.414222   0.000000
    15  H    2.159171   3.414818   4.151340   4.904369   0.000000
    16  H    3.434908   3.935653   5.940161   6.208350   2.481096
    17  H    3.872642   3.422098   6.190400   5.877086   4.275425
    18  H    3.376297   2.143851   4.890274   4.099315   4.925970
    19  H    3.428344   2.173721   3.428603   2.161544   5.553220
    20  H    4.895612   4.102127   3.401377   2.150936   7.005125
    21  H    6.185501   5.866586   3.877110   3.411189   8.020058
    22  H    5.910091   6.167122   3.401695   3.897548   7.227833
    23  H    4.145854   4.887418   2.143579   3.409285   4.983842
    24  H    2.108979   3.235973   2.132851   3.261551   2.633477
    25  H    2.108979   3.235973   2.132851   3.261551   2.633477
                   16         17         18         19         20
    16  H    0.000000
    17  H    2.489945   0.000000
    18  H    4.297995   2.463088   0.000000
    19  H    5.972270   4.786701   2.478569   0.000000
    20  H    8.032695   7.184809   4.934068   2.455662   0.000000
    21  H    9.591752   9.219574   7.176171   4.758479   2.464232
    22  H    9.277535   9.561369   7.990716   5.921065   4.283823
    23  H    7.244882   8.011248   6.984009   5.535823   4.939833
    24  H    4.798320   5.784859   5.303966   4.737154   5.342851
    25  H    4.798320   5.784859   5.303966   4.737154   5.342851
                   21         22         23         24         25
    21  H    0.000000
    22  H    2.480304   0.000000
    23  H    4.280697   2.469528   0.000000
    24  H    5.826030   4.822205   2.672719   0.000000
    25  H    5.826030   4.822205   2.672719   1.723020   0.000000
 Stoichiometry    C14H11(1+)
 Framework group  CS[SG(C14H9),X(H2)]
 Deg. of freedom    46
 Full point group                 CS      NOp   2
 Largest Abelian subgroup         CS      NOp   2
 Largest concise Abelian subgroup CS      NOp   2
                         Standard orientation:                         
 ---------------------------------------------------------------------
 Center     Atomic      Atomic             Coordinates (Angstroms)
 Number     Number       Type             X           Y           Z
 ---------------------------------------------------------------------
      1          6           0        0.020151    2.850658    0.000000
      2          6           0       -1.150811    3.596735    0.000000
      3          6           0       -2.358370    2.922146    0.000000
      4          6           0       -2.389612    1.503961    0.000000
      5          6           0       -0.083806   -2.849824    0.000000
      6          6           0        1.092503   -3.589851    0.000000
      7          6           0        2.324325   -2.943710    0.000000
      8          6           0        2.369516   -1.553901    0.000000
      9          6           0        1.286352    0.692867    0.000000
     10          6           0       -1.252709   -0.688942    0.000000
     11          6           0        0.000000    1.427117    0.000000
     12          6           0       -1.221823    0.741339    0.000000
     13          6           0        1.197893   -0.795262    0.000000
     14          6           0       -0.059682   -1.442200    0.000000
     15          1           0        0.981281    3.350423    0.000000
     16          1           0       -1.116290    4.675576    0.000000
     17          1           0       -3.292587    3.465800    0.000000
     18          1           0       -3.349600    1.003372    0.000000
     19          1           0       -2.207184   -1.196217    0.000000
     20          1           0       -1.039988   -3.356756    0.000000
     21          1           0        1.045549   -4.669378    0.000000
     22          1           0        3.240907   -3.515119    0.000000
     23          1           0        3.326629   -1.047079    0.000000
     24          1           0        1.883857    1.031294    0.861510
     25          1           0        1.883857    1.031294   -0.861510
 ---------------------------------------------------------------------
 Rotational constants (GHZ):           2.1337589           0.4442395           0.3684905
 Standard basis: 6-311++G(d,p) (5D, 7F)
 There are   299 symmetry adapted cartesian basis functions of A'  symmetry.
 There are   100 symmetry adapted cartesian basis functions of A"  symmetry.
 There are   285 symmetry adapted basis functions of A'  symmetry.
 There are   100 symmetry adapted basis functions of A"  symmetry.
   385 basis functions,   603 primitive gaussians,   399 cartesian basis functions
    47 alpha electrons       47 beta electrons
       nuclear repulsion energy       780.8569961637 Hartrees.
 NAtoms=   25 NActive=   25 NUniq=   24 SFac= 1.09D+00 NAtFMM=   60 NAOKFM=F Big=F
 Integral buffers will be    131072 words long.
 Regular integral format.
 Two-electron integral symmetry is turned on.
 Nuclear repulsion after empirical dispersion term =      780.8560166206 Hartrees.
 One-electron integrals computed using PRISM.
 NBasis=   385 RedAO= T EigKep=  1.14D-06  NBF=   285   100
 NBsUse=   379 1.00D-06 EigRej=  8.43D-07 NBFU=   279   100
 ExpMin= 3.60D-02 ExpMax= 4.56D+03 ExpMxC= 6.82D+02 IAcc=3 IRadAn=         5 AccDes= 0.00D+00
 Harris functional with IExCor= 1009 and IRadAn=       5 diagonalized for initial guess.
 HarFok:  IExCor= 1009 AccDes= 0.00D+00 IRadAn=         5 IDoV= 1 UseB2=F ITyADJ=14
 ICtDFT=  3500011 ScaDFX=  1.000000  1.000000  1.000000  1.000000
 FoFCou: FMM=F IPFlag=           0 FMFlag=      100000 FMFlg1=           0
         NFxFlg=           0 DoJE=T BraDBF=F KetDBF=T FulRan=T
         wScrn=  0.000000 ICntrl=       500 IOpCl=  0 I1Cent=   200000004 NGrid=           0
         NMat0=    1 NMatS0=      1 NMatT0=    0 NMatD0=    1 NMtDS0=    0 NMtDT0=    0
 Petite list used in FoFCou.
 Initial guess orbital symmetries:
       Occupied  (A') (A') (A') (A') (A') (A') (A') (A') (A') (A')
                 (A') (A') (A') (A') (A') (A') (A') (A') (A') (A')
                 (A') (A') (A') (A') (A') (A') (A') (A') (A') (A')
                 (A') (A') (A") (A') (A') (A') (A') (A') (A") (A')
                 (A") (A') (A') (A") (A") (A") (A")
       Virtual   (A") (A") (A") (A") (A") (A') (A') (A') (A') (A")
                 (A") (A') (A') (A') (A") (A') (A') (A') (A') (A")
                 (A') (A") (A') (A') (A') (A") (A') (A") (A') (A')
                 (A') (A') (A') (A') (A") (A') (A") (A') (A') (A")
                 (A') (A') (A') (A") (A') (A') (A') (A') (A') (A")
                 (A') (A') (A") (A") (A') (A') (A') (A") (A") (A')
                 (A') (A') (A') (A') (A') (A') (A") (A') (A') (A")
                 (A') (A') (A') (A') (A') (A') (A') (A') (A') (A')
                 (A') (A') (A') (A') (A') (A') (A') (A') (A') (A')
                 (A') (A') (A') (A') (A') (A') (A') (A") (A') (A")
                 (A') (A') (A") (A") (A') (A") (A') (A") (A') (A")
                 (A") (A') (A') (A') (A") (A') (A') (A") (A") (A')
                 (A") (A") (A') (A') (A') (A") (A') (A') (A') (A")
                 (A') (A') (A') (A') (A') (A') (A") (A') (A') (A')
                 (A') (A') (A') (A') (A') (A') (A') (A') (A') (A")
                 (A") (A') (A") (A") (A') (A') (A') (A") (A") (A')
                 (A") (A') (A") (A") (A") (A') (A') (A') (A') (A')
                 (A') (A") (A") (A') (A') (A') (A') (A') (A') (A")
                 (A') (A') (A') (A') (A') (A") (A") (A') (A") (A")
                 (A') (A") (A') (A") (A') (A') (A') (A") (A') (A')
                 (A") (A") (A") (A') (A') (A") (A') (A") (A') (A')
                 (A") (A") (A') (A") (A') (A") (A') (A') (A') (A")
                 (A') (A') (A') (A') (A") (A') (A') (A') (A") (A")
                 (A') (A') (A') (A") (A') (A') (A") (A') (A") (A')
                 (A") (A') (A') (A') (A') (A") (A') (A') (A') (A")
                 (A') (A') (A") (A') (A") (A') (A') (A") (A') (A')
                 (A') (A") (A') (A") (A') (A') (A') (A") (A') (A")
                 (A') (A') (A') (A') (A") (A') (A") (A') (A") (A')
                 (A") (A') (A") (A") (A") (A') (A') (A') (A') (A')
                 (A') (A') (A') (A') (A') (A') (A') (A') (A') (A')
                 (A') (A') (A') (A') (A') (A") (A') (A') (A') (A')
                 (A') (A') (A') (A') (A') (A') (A') (A') (A') (A')
                 (A') (A') (A') (A') (A') (A') (A') (A') (A') (A')
                 (A') (A')
 The electronic state of the initial guess is 1-A'.
 Requested convergence on RMS density matrix=1.00D-08 within 128 cycles.
 Requested convergence on MAX density matrix=1.00D-06.
 Requested convergence on             energy=1.00D-06.
 No special actions if energy rises.
 SCF Done:  E(RM062X) =  -539.759282440     A.U. after   15 cycles
            NFock= 15  Conv=0.68D-08     -V/T= 2.0042
 DoSCS=F DFT=T ScalE2(SS,OS)=  1.000000  1.000000
 ExpMin= 3.60D-02 ExpMax= 4.56D+03 ExpMxC= 6.82D+02 IAcc=3 IRadAn=         5 AccDes= 0.00D+00
 HarFok:  IExCor=  205 AccDes= 0.00D+00 IRadAn=         5 IDoV=-2 UseB2=F ITyADJ=14
 ICtDFT= 12500011 ScaDFX=  1.000000  1.000000  1.000000  1.000000
 Range of M.O.s used for correlation:    15   379
 NBasis=   385 NAE=    47 NBE=    47 NFC=    14 NFV=     0
 NROrb=    365 NOA=    33 NOB=    33 NVA=   332 NVB=   332

 **** Warning!!: The largest alpha MO coefficient is  0.13356406D+03

 Orbital symmetries:
       Occupied  (A') (A') (A') (A') (A') (A') (A') (A') (A') (A')
                 (A') (A') (A') (A') (A') (A') (A') (A') (A') (A')
                 (A') (A') (A') (A') (A') (A') (A') (A') (A') (A')
                 (A') (A') (A") (A') (A') (A') (A') (A") (A") (A')
                 (A') (A') (A') (A") (A") (A") (A")
       Virtual   (A") (A") (A") (A") (A') (A') (A') (A') (A") (A')
                 (A') (A") (A') (A') (A") (A') (A") (A') (A') (A')
                 (A") (A") (A') (A') (A') (A") (A') (A") (A') (A')
                 (A") (A') (A") (A') (A') (A') (A') (A') (A") (A')
                 (A") (A') (A') (A") (A") (A') (A") (A') (A") (A')
                 (A') (A') (A') (A') (A') (A") (A') (A') (A') (A')
                 (A') (A") (A') (A') (A') (A') (A") (A') (A') (A')
                 (A') (A') (A') (A') (A') (A') (A') (A') (A') (A')
                 (A') (A') (A') (A') (A') (A') (A') (A') (A') (A')
                 (A') (A') (A') (A') (A") (A') (A") (A") (A') (A")
                 (A') (A') (A') (A') (A") (A") (A') (A") (A") (A')
                 (A') (A') (A") (A') (A') (A") (A') (A") (A') (A")
                 (A") (A') (A") (A') (A') (A') (A") (A') (A') (A')
                 (A') (A') (A') (A') (A') (A') (A') (A') (A') (A')
                 (A') (A') (A') (A") (A') (A') (A') (A') (A') (A')
                 (A') (A') (A") (A') (A") (A') (A") (A") (A') (A")
                 (A") (A') (A') (A") (A") (A") (A') (A") (A') (A')
                 (A') (A') (A') (A") (A") (A') (A') (A') (A') (A")
                 (A') (A') (A') (A") (A') (A") (A') (A') (A") (A")
                 (A") (A') (A') (A") (A") (A') (A') (A') (A') (A')
                 (A") (A") (A") (A') (A') (A") (A') (A") (A') (A')
                 (A') (A") (A') (A") (A") (A') (A") (A') (A') (A")
                 (A') (A') (A') (A') (A") (A') (A') (A') (A") (A")
                 (A') (A') (A') (A") (A') (A') (A') (A") (A") (A')
                 (A") (A') (A') (A") (A') (A') (A') (A') (A') (A')
                 (A") (A') (A') (A') (A') (A") (A") (A") (A') (A')
                 (A') (A') (A') (A') (A') (A') (A") (A') (A') (A')
                 (A') (A") (A') (A") (A") (A") (A') (A") (A') (A")
                 (A') (A") (A") (A') (A") (A") (A') (A') (A') (A')
                 (A') (A') (A') (A') (A') (A') (A') (A') (A') (A')
                 (A') (A') (A') (A') (A") (A') (A') (A') (A') (A')
                 (A') (A') (A') (A') (A') (A') (A') (A') (A') (A')
                 (A') (A') (A') (A') (A') (A') (A') (A') (A') (A')
                 (A') (A')
     4 initial guesses have been made.
 Convergence on wavefunction:    0.001000000000000
 Iteration     1 Dimension     4 NMult     0 NNew      4
 CISAX will form     4 AO SS matrices at one time.
 Iteration     2 Dimension     6 NMult     4 NNew      2
 Iteration     3 Dimension     8 NMult     6 NNew      2
 Iteration     4 Dimension    10 NMult     8 NNew      2
 Iteration     5 Dimension    12 NMult    10 NNew      2
 Iteration     6 Dimension    14 NMult    12 NNew      2
 ***********************************************************************
 Excited states from <AA,BB:AA,BB> singles matrix:
 ***********************************************************************
 
 Ground to excited state transition densities written to RWF  633
 Ground to excited state transition electric dipole moments (Au):
       state          X           Y           Z        Dip. S.      Osc.
         1         0.5329      0.3042      0.0000      0.3765      0.0258
 Ground to excited state transition velocity dipole moments (Au):
       state          X           Y           Z        Dip. S.      Osc.
         1        -0.0623     -0.0329     -0.0000      0.0050      0.0322
 Ground to excited state transition magnetic dipole moments (Au):
       state          X           Y           Z
         1        -0.0000      0.0000      0.1251
 Ground to excited state transition velocity quadrupole moments (Au):
       state          XX          YY          ZZ          XY          XZ          YZ
         1         0.1316      0.1853     -0.0094     -0.1332      0.0000     -0.0000
 <0|del|b> * <b|rxdel|0> + <0|del|b> * <b|delr+rdel|0>
 Rotatory Strengths (R) in cgs (10**-40 erg-esu-cm/Gauss)
       state          XX          YY          ZZ    R(velocity)    E-M Angle
         1         0.0000      0.0000     -0.0000     -0.0000       90.00
 1/2[<0|r|b>*<b|rxdel|0> + (<0|rxdel|b>*<b|r|0>)*]
 Rotatory Strengths (R) in cgs (10**-40 erg-esu-cm/Gauss)
       state          XX          YY          ZZ     R(length)
         1         0.0000     -0.0000     -0.0000     -0.0000
  1/2[<0|del|b>*<b|r|0> + (<0|r|b>*<b|del|0>)*] (Au)
       state          X           Y           Z        Dip. S.   Osc.(frdel)
         1        -0.0332     -0.0100     -0.0000      0.0432      0.0288

 Excitation energies and oscillator strengths:
 
 Excited State   1:      Singlet-A'     2.7919 eV  444.08 nm  f=0.0258  <S**2>=0.000
      47 -> 48         0.70396
 This state for optimization and/or second-order correction.
 Total Energy, E(TD-HF/TD-DFT) =  -539.656680837    
 Copying the excited state density for this state as the 1-particle RhoCI density.
 SavETr:  write IOETrn=   770 NScale= 10 NData=  16 NLR=1 NState=    1 LETran=      28.

 **********************************************************************

            Population analysis using the SCF Density.

 **********************************************************************

 Orbital symmetries:
       Occupied  (A') (A') (A') (A') (A') (A') (A') (A') (A') (A')
                 (A') (A') (A') (A') (A') (A') (A') (A') (A') (A')
                 (A') (A') (A') (A') (A') (A') (A') (A') (A') (A')
                 (A') (A') (A") (A') (A') (A') (A') (A") (A") (A')
                 (A') (A') (A') (A") (A") (A") (A")
       Virtual   (A") (A") (A") (A") (A') (A') (A') (A') (A") (A')
                 (A') (A") (A') (A') (A") (A') (A") (A') (A') (A')
                 (A") (A") (A') (A') (A') (A") (A') (A") (A') (A')
                 (A") (A') (A") (A') (A') (A') (A') (A') (A") (A')
                 (A") (A') (A') (A") (A") (A') (A") (A') (A") (A')
                 (A') (A') (A') (A') (A') (A") (A') (A') (A') (A')
                 (A') (A") (A') (A') (A') (A') (A") (A') (A') (A')
                 (A') (A') (A') (A') (A') (A') (A') (A') (A') (A')
                 (A') (A') (A') (A') (A') (A') (A') (A') (A') (A')
                 (A') (A') (A') (A') (A") (A') (A") (A") (A') (A")
                 (A') (A') (A') (A') (A") (A") (A') (A") (A") (A')
                 (A') (A') (A") (A') (A') (A") (A') (A") (A') (A")
                 (A") (A') (A") (A') (A') (A') (A") (A') (A') (A')
                 (A') (A') (A') (A') (A') (A') (A') (A') (A') (A')
                 (A') (A') (A') (A") (A') (A') (A') (A') (A') (A')
                 (A') (A') (A") (A') (A") (A') (A") (A") (A') (A")
                 (A") (A') (A') (A") (A") (A") (A') (A") (A') (A')
                 (A') (A') (A') (A") (A") (A') (A') (A') (A') (A")
                 (A') (A') (A') (A") (A') (A") (A') (A') (A") (A")
                 (A") (A') (A') (A") (A") (A') (A') (A') (A') (A')
                 (A") (A") (A") (A') (A') (A") (A') (A") (A') (A')
                 (A') (A") (A') (A") (A") (A') (A") (A') (A') (A")
                 (A') (A') (A') (A') (A") (A') (A') (A') (A") (A")
                 (A') (A') (A') (A") (A') (A') (A') (A") (A") (A')
                 (A") (A') (A') (A") (A') (A') (A') (A') (A') (A')
                 (A") (A') (A') (A') (A') (A") (A") (A") (A') (A')
                 (A') (A') (A') (A') (A') (A') (A") (A') (A') (A')
                 (A') (A") (A') (A") (A") (A") (A') (A") (A') (A")
                 (A') (A") (A") (A') (A") (A") (A') (A') (A') (A')
                 (A') (A') (A') (A') (A') (A') (A') (A') (A') (A')
                 (A') (A') (A') (A') (A") (A') (A') (A') (A') (A')
                 (A') (A') (A') (A') (A') (A') (A') (A') (A') (A')
                 (A') (A') (A') (A') (A') (A') (A') (A') (A') (A')
                 (A') (A')
 The electronic state is 1-A'.
 Alpha  occ. eigenvalues --  -10.77668 -10.73502 -10.73067 -10.72620 -10.72270
 Alpha  occ. eigenvalues --  -10.71574 -10.71389 -10.71164 -10.71004 -10.70617
 Alpha  occ. eigenvalues --  -10.70073 -10.69875 -10.69764 -10.69519  -1.16414
 Alpha  occ. eigenvalues --   -1.12437  -1.06945  -1.05677  -1.01308  -1.00171
 Alpha  occ. eigenvalues --   -0.95752  -0.91034  -0.86416  -0.85884  -0.83796
 Alpha  occ. eigenvalues --   -0.78382  -0.76005  -0.74405  -0.69619  -0.69249
 Alpha  occ. eigenvalues --   -0.68455  -0.68153  -0.68114  -0.64830  -0.64250
 Alpha  occ. eigenvalues --   -0.62940  -0.61816  -0.60158  -0.59558  -0.59114
 Alpha  occ. eigenvalues --   -0.56882  -0.55238  -0.54755  -0.52444  -0.46722
 Alpha  occ. eigenvalues --   -0.46079  -0.44387
 Alpha virt. eigenvalues --   -0.26108  -0.14664  -0.14096  -0.12775  -0.11178
 Alpha virt. eigenvalues --   -0.10082  -0.09235  -0.07978  -0.07972  -0.07476
 Alpha virt. eigenvalues --   -0.07198  -0.07140  -0.05646  -0.05578  -0.05332
 Alpha virt. eigenvalues --   -0.03830  -0.03648  -0.03277  -0.03136  -0.02166
 Alpha virt. eigenvalues --   -0.01361  -0.00933   0.00199   0.00592   0.00634
 Alpha virt. eigenvalues --    0.01057   0.01514   0.01945   0.02201   0.02304
 Alpha virt. eigenvalues --    0.02449   0.02667   0.02748   0.03330   0.03417
 Alpha virt. eigenvalues --    0.04240   0.04497   0.04705   0.05036   0.05370
 Alpha virt. eigenvalues --    0.06036   0.06288   0.06591   0.07030   0.07264
 Alpha virt. eigenvalues --    0.07891   0.08140   0.08351   0.08539   0.08925
 Alpha virt. eigenvalues --    0.09525   0.09568   0.10014   0.10840   0.10976
 Alpha virt. eigenvalues --    0.11126   0.12143   0.12239   0.12848   0.12978
 Alpha virt. eigenvalues --    0.13414   0.13527   0.13998   0.14383   0.16081
 Alpha virt. eigenvalues --    0.16338   0.16418   0.17340   0.17589   0.17796
 Alpha virt. eigenvalues --    0.18110   0.19090   0.19276   0.19606   0.19751
 Alpha virt. eigenvalues --    0.21500   0.21589   0.22701   0.23104   0.23540
 Alpha virt. eigenvalues --    0.23885   0.24603   0.25450   0.26923   0.27593
 Alpha virt. eigenvalues --    0.28821   0.29269   0.29836   0.31338   0.35757
 Alpha virt. eigenvalues --    0.36399   0.38194   0.39270   0.41129   0.41388
 Alpha virt. eigenvalues --    0.41926   0.42219   0.42985   0.43648   0.44306
 Alpha virt. eigenvalues --    0.44904   0.45050   0.46025   0.46223   0.47985
 Alpha virt. eigenvalues --    0.48502   0.48819   0.49045   0.50429   0.51032
 Alpha virt. eigenvalues --    0.51394   0.51755   0.52122   0.52838   0.53995
 Alpha virt. eigenvalues --    0.54099   0.54593   0.55679   0.55784   0.57615
 Alpha virt. eigenvalues --    0.58234   0.58832   0.61435   0.62243   0.62344
 Alpha virt. eigenvalues --    0.63188   0.63483   0.64882   0.65143   0.67184
 Alpha virt. eigenvalues --    0.70435   0.70614   0.71030   0.72406   0.72856
 Alpha virt. eigenvalues --    0.75744   0.76018   0.76288   0.76867   0.77098
 Alpha virt. eigenvalues --    0.77828   0.77861   0.78205   0.79910   0.80383
 Alpha virt. eigenvalues --    0.81211   0.81647   0.82198   0.82997   0.85154
 Alpha virt. eigenvalues --    0.87110   0.88114   0.88477   0.89167   0.90434
 Alpha virt. eigenvalues --    0.91003   0.91295   0.93204   0.94603   0.96372
 Alpha virt. eigenvalues --    0.96709   1.00391   1.01246   1.01671   1.02724
 Alpha virt. eigenvalues --    1.03200   1.03585   1.04752   1.05685   1.08748
 Alpha virt. eigenvalues --    1.19529   1.23228   1.24045   1.25013   1.28062
 Alpha virt. eigenvalues --    1.29675   1.31802   1.34369   1.35734   1.35985
 Alpha virt. eigenvalues --    1.39298   1.40039   1.40914   1.43075   1.43449
 Alpha virt. eigenvalues --    1.43493   1.44639   1.45879   1.46337   1.46651
 Alpha virt. eigenvalues --    1.47648   1.47998   1.51657   1.53612   1.55519
 Alpha virt. eigenvalues --    1.55828   1.56319   1.56600   1.57738   1.61381
 Alpha virt. eigenvalues --    1.63252   1.63451   1.63917   1.66064   1.68230
 Alpha virt. eigenvalues --    1.68348   1.68738   1.69783   1.74329   1.75964
 Alpha virt. eigenvalues --    1.77105   1.78051   1.79834   1.80057   1.80698
 Alpha virt. eigenvalues --    1.83058   1.83218   1.83550   1.83825   1.84202
 Alpha virt. eigenvalues --    1.84313   1.85743   1.86166   1.88225   1.91365
 Alpha virt. eigenvalues --    1.92038   1.94081   1.95174   1.97685   1.98117
 Alpha virt. eigenvalues --    1.99697   2.02170   2.04351   2.07268   2.11769
 Alpha virt. eigenvalues --    2.12020   2.14122   2.15233   2.19003   2.21111
 Alpha virt. eigenvalues --    2.22774   2.28687   2.29946   2.34526   2.34872
 Alpha virt. eigenvalues --    2.36240   2.38667   2.39608   2.42328   2.44993
 Alpha virt. eigenvalues --    2.46122   2.46195   2.49286   2.52864   2.53771
 Alpha virt. eigenvalues --    2.54061   2.56928   2.57837   2.58322   2.59567
 Alpha virt. eigenvalues --    2.59832   2.61560   2.62095   2.63508   2.63723
 Alpha virt. eigenvalues --    2.64775   2.65067   2.65150   2.65378   2.67780
 Alpha virt. eigenvalues --    2.68390   2.70924   2.71421   2.73336   2.74800
 Alpha virt. eigenvalues --    2.76301   2.78473   2.79667   2.82704   2.83055
 Alpha virt. eigenvalues --    2.84834   2.86197   2.92071   2.97053   2.99461
 Alpha virt. eigenvalues --    3.00028   3.04722   3.10520   3.11235   3.13249
 Alpha virt. eigenvalues --    3.20737   3.22809   3.26502   3.28200   3.30640
 Alpha virt. eigenvalues --    3.32770   3.33827   3.43492   3.45932   3.46386
 Alpha virt. eigenvalues --    3.48266   3.49960   3.56306   3.66584   3.66662
 Alpha virt. eigenvalues --    3.67442   3.94145   3.94381   3.95307   3.96213
 Alpha virt. eigenvalues --    4.03971   4.06741   4.07415   4.12561   4.35213
 Alpha virt. eigenvalues --    4.60775   4.69594   4.71486  23.45333  23.60344
 Alpha virt. eigenvalues --   23.81728  23.84530  23.87093  23.88985  23.90885
 Alpha virt. eigenvalues --   23.93199  23.96822  23.98328  24.00628  24.01884
 Alpha virt. eigenvalues --   24.10601  24.10981
          Condensed to atoms (all electrons):
               1          2          3          4          5          6
     1  C    8.823623   0.100085  -0.459498   2.208811  -0.076008  -0.100930
     2  C    0.100085   7.211098   0.296526  -1.182625   0.003132  -0.013526
     3  C   -0.459498   0.296526   6.593993   0.808352  -0.134235   0.016916
     4  C    2.208811  -1.182625   0.808352  11.035542  -0.423315  -0.122101
     5  C   -0.076008   0.003132  -0.134235  -0.423315  11.390912   0.760455
     6  C   -0.100930  -0.013526   0.016916  -0.122101   0.760455   6.596593
     7  C   -0.005029  -0.000636  -0.014363  -0.019844  -1.092887   0.372138
     8  C    0.400336  -0.018249  -0.092506  -0.038804   1.995553  -0.574259
     9  C   -1.076751  -0.812122   0.300973  -0.265840  -0.075481   0.301347
    10  C   -1.365636   0.303364  -0.384075  -2.512094  -2.685149  -0.311550
    11  C    0.326118  -0.915647   1.039556  -0.335413  -1.551838  -0.193745
    12  C   -2.486321   1.563782  -1.466556  -1.733140  -0.391098  -0.162405
    13  C    0.285350  -0.267058  -0.145637  -1.476534  -0.342593   0.946867
    14  C   -1.078284  -0.138037  -0.234472  -0.292607  -1.737756  -1.395814
    15  H    0.371152  -0.109705   0.000244   0.029461   0.005009   0.001052
    16  H   -0.018252   0.378151  -0.015631   0.011955  -0.001442  -0.000315
    17  H   -0.029850  -0.012346   0.372505  -0.068331   0.000386   0.000399
    18  H    0.053424   0.002325  -0.084406   0.460066   0.005123  -0.005252
    19  H   -0.047440  -0.007710   0.051861  -0.065792  -0.073988   0.051642
    20  H    0.006904   0.002156  -0.005153   0.005104   0.465408  -0.084099
    21  H   -0.001344  -0.000391   0.000411   0.000253  -0.069948   0.378218
    22  H    0.000874   0.000388  -0.000342  -0.001601   0.014846  -0.019562
    23  H    0.005110  -0.002715   0.001159   0.005827   0.027498  -0.001693
    24  H    0.032048   0.014073  -0.001735  -0.012547  -0.011734  -0.001526
    25  H    0.032048   0.014073  -0.001735  -0.012547  -0.011734  -0.001526
               7          8          9         10         11         12
     1  C   -0.005029   0.400336  -1.076751  -1.365636   0.326118  -2.486321
     2  C   -0.000636  -0.018249  -0.812122   0.303364  -0.915647   1.563782
     3  C   -0.014363  -0.092506   0.300973  -0.384075   1.039556  -1.466556
     4  C   -0.019844  -0.038804  -0.265840  -2.512094  -0.335413  -1.733140
     5  C   -1.092887   1.995553  -0.075481  -2.685149  -1.551838  -0.391098
     6  C    0.372138  -0.574259   0.301347  -0.311550  -0.193745  -0.162405
     7  C    7.205311   0.327246  -0.847411   0.224349  -0.226987  -0.230419
     8  C    0.327246   8.551399  -1.082528  -1.288942   0.243614  -1.113588
     9  C   -0.847411  -1.082528   9.532945   0.268341   1.432944  -1.782937
    10  C    0.224349  -1.288942   0.268341   9.058874  -0.370364   2.431949
    11  C   -0.226987   0.243614   1.432944  -0.370364  14.258906  -3.528308
    12  C   -0.230419  -1.113588  -1.782937   2.431949  -3.528308  15.975594
    13  C   -0.833570   0.342155   1.492262  -0.302549   1.106771  -4.759015
    14  C    1.265893  -2.148731  -1.943372   2.398976  -4.711925   3.208600
    15  H   -0.002453   0.005866   0.092181  -0.010317  -0.031936  -0.029636
    16  H    0.000352   0.000607   0.002901  -0.008400   0.024383  -0.031232
    17  H   -0.000410  -0.001271  -0.005804   0.020145  -0.026418   0.095445
    18  H    0.002117   0.006892  -0.024870   0.010682  -0.002880  -0.062011
    19  H   -0.008071  -0.045615   0.074678   0.421657   0.079140  -0.057647
    20  H    0.003169   0.050540  -0.023406   0.007507  -0.012219  -0.018358
    21  H   -0.018745  -0.024395  -0.005130   0.020087  -0.006244   0.005314
    22  H    0.382189  -0.019788   0.001931  -0.009428   0.003166  -0.009611
    23  H   -0.108715   0.369605   0.089026  -0.008928  -0.000769   0.006925
    24  H    0.015336   0.036101   0.354569   0.005113   0.009255  -0.060786
    25  H    0.015336   0.036101   0.354569   0.005113   0.009255  -0.060786
              13         14         15         16         17         18
     1  C    0.285350  -1.078284   0.371152  -0.018252  -0.029850   0.053424
     2  C   -0.267058  -0.138037  -0.109705   0.378151  -0.012346   0.002325
     3  C   -0.145637  -0.234472   0.000244  -0.015631   0.372505  -0.084406
     4  C   -1.476534  -0.292607   0.029461   0.011955  -0.068331   0.460066
     5  C   -0.342593  -1.737756   0.005009  -0.001442   0.000386   0.005123
     6  C    0.946867  -1.395814   0.001052  -0.000315   0.000399  -0.005252
     7  C   -0.833570   1.265893  -0.002453   0.000352  -0.000410   0.002117
     8  C    0.342155  -2.148731   0.005866   0.000607  -0.001271   0.006892
     9  C    1.492262  -1.943372   0.092181   0.002901  -0.005804  -0.024870
    10  C   -0.302549   2.398976  -0.010317  -0.008400   0.020145   0.010682
    11  C    1.106771  -4.711925  -0.031936   0.024383  -0.026418  -0.002880
    12  C   -4.759015   3.208600  -0.029636  -0.031232   0.095445  -0.062011
    13  C   14.383079  -3.855122   0.003736   0.002741  -0.006203  -0.012061
    14  C   -3.855122  16.166291   0.005625  -0.008429   0.005333  -0.012880
    15  H    0.003736   0.005625   0.441850  -0.009081   0.001377   0.000104
    16  H    0.002741  -0.008429  -0.009081   0.421029  -0.006362   0.001920
    17  H   -0.006203   0.005333   0.001377  -0.006362   0.423494  -0.010438
    18  H   -0.012061  -0.012880   0.000104   0.001920  -0.010438   0.456584
    19  H    0.077260  -0.074401   0.000286  -0.000524   0.001310  -0.006567
    20  H   -0.005632  -0.054554  -0.000110   0.000014  -0.000135   0.001237
    21  H   -0.025817   0.090643   0.000013  -0.000007   0.000011  -0.000155
    22  H    0.023967  -0.029880  -0.000130   0.000008  -0.000007   0.000018
    23  H   -0.030128  -0.019743   0.000545  -0.000127   0.000016  -0.000120
    24  H    0.018620  -0.060669  -0.000917   0.000637  -0.000147   0.000208
    25  H    0.018620  -0.060669  -0.000917   0.000637  -0.000147   0.000208
              19         20         21         22         23         24
     1  C   -0.047440   0.006904  -0.001344   0.000874   0.005110   0.032048
     2  C   -0.007710   0.002156  -0.000391   0.000388  -0.002715   0.014073
     3  C    0.051861  -0.005153   0.000411  -0.000342   0.001159  -0.001735
     4  C   -0.065792   0.005104   0.000253  -0.001601   0.005827  -0.012547
     5  C   -0.073988   0.465408  -0.069948   0.014846   0.027498  -0.011734
     6  C    0.051642  -0.084099   0.378218  -0.019562  -0.001693  -0.001526
     7  C   -0.008071   0.003169  -0.018745   0.382189  -0.108715   0.015336
     8  C   -0.045615   0.050540  -0.024395  -0.019788   0.369605   0.036101
     9  C    0.074678  -0.023406  -0.005130   0.001931   0.089026   0.354569
    10  C    0.421657   0.007507   0.020087  -0.009428  -0.008928   0.005113
    11  C    0.079140  -0.012219  -0.006244   0.003166  -0.000769   0.009255
    12  C   -0.057647  -0.018358   0.005314  -0.009611   0.006925  -0.060786
    13  C    0.077260  -0.005632  -0.025817   0.023967  -0.030128   0.018620
    14  C   -0.074401  -0.054554   0.090643  -0.029880  -0.019743  -0.060669
    15  H    0.000286  -0.000110   0.000013  -0.000130   0.000545  -0.000917
    16  H   -0.000524   0.000014  -0.000007   0.000008  -0.000127   0.000637
    17  H    0.001310  -0.000135   0.000011  -0.000007   0.000016  -0.000147
    18  H   -0.006567   0.001237  -0.000155   0.000018  -0.000120   0.000208
    19  H    0.443071  -0.006103   0.001561  -0.000578   0.000364   0.000565
    20  H   -0.006103   0.452128  -0.010314   0.001954   0.000181   0.000173
    21  H    0.001561  -0.010314   0.421405  -0.006845   0.001566  -0.000141
    22  H   -0.000578   0.001954  -0.006845   0.418370  -0.009080   0.000634
    23  H    0.000364   0.000181   0.001566  -0.009080   0.437456  -0.000946
    24  H    0.000565   0.000173  -0.000141   0.000634  -0.000946   0.492720
    25  H    0.000565   0.000173  -0.000141   0.000634  -0.000946  -0.078168
              25
     1  C    0.032048
     2  C    0.014073
     3  C   -0.001735
     4  C   -0.012547
     5  C   -0.011734
     6  C   -0.001526
     7  C    0.015336
     8  C    0.036101
     9  C    0.354569
    10  C    0.005113
    11  C    0.009255
    12  C   -0.060786
    13  C    0.018620
    14  C   -0.060669
    15  H   -0.000917
    16  H    0.000637
    17  H   -0.000147
    18  H    0.000208
    19  H    0.000565
    20  H    0.000173
    21  H   -0.000141
    22  H    0.000634
    23  H   -0.000946
    24  H   -0.078168
    25  H    0.492720
 Mulliken charges:
               1
     1  C    0.099461
     2  C   -0.408387
     3  C   -0.442155
     4  C   -0.002236
     5  C    0.010885
     6  C   -0.437323
     7  C   -0.403896
     8  C    0.082659
     9  C   -0.353014
    10  C    0.081274
    11  C   -0.618411
    12  C    0.696245
    13  C   -0.639508
    14  C    0.715983
    15  H    0.236700
    16  H    0.254468
    17  H    0.247450
    18  H    0.220734
    19  H    0.190476
    20  H    0.223435
    21  H    0.250133
    22  H    0.257871
    23  H    0.238633
    24  H    0.249262
    25  H    0.249262
 Sum of Mulliken charges =   1.00000
 Mulliken charges with hydrogens summed into heavy atoms:
               1
     1  C    0.336161
     2  C   -0.153920
     3  C   -0.194705
     4  C    0.218498
     5  C    0.234320
     6  C   -0.187189
     7  C   -0.146025
     8  C    0.321292
     9  C    0.145510
    10  C    0.271750
    11  C   -0.618411
    12  C    0.696245
    13  C   -0.639508
    14  C    0.715983
 Electronic spatial extent (au):  <R**2>=           2858.3097
 Charge=              1.0000 electrons
 Dipole moment (field-independent basis, Debye):
    X=              0.0289    Y=             -0.4608    Z=              0.0000  Tot=              0.4618
 Quadrupole moment (field-independent basis, Debye-Ang):
   XX=            -50.8637   YY=            -36.4726   ZZ=            -84.1417
   XY=            -10.3559   XZ=              0.0000   YZ=              0.0000
 Traceless Quadrupole moment (field-independent basis, Debye-Ang):
   XX=              6.2956   YY=             20.6867   ZZ=            -26.9824
   XY=            -10.3559   XZ=              0.0000   YZ=              0.0000
 Octapole moment (field-independent basis, Debye-Ang**2):
  XXX=              1.0256  YYY=              1.5505  ZZZ=              0.0000  XYY=              1.4377
  XXY=             -6.3640  XXZ=              0.0000  XZZ=              3.0395  YZZ=              0.9291
  YYZ=              0.0000  XYZ=              0.0000
 Hexadecapole moment (field-independent basis, Debye-Ang**3):
 XXXX=           -995.2608 YYYY=          -1845.6594 ZZZZ=            -99.3454 XXXY=            349.6185
 XXXZ=              0.0000 YYYX=            276.0431 YYYZ=              0.0000 ZZZX=              0.0000
 ZZZY=              0.0000 XXYY=           -454.2754 XXZZ=           -243.2577 YYZZ=           -493.7880
 XXYZ=              0.0000 YYXZ=              0.0000 ZZXY=            184.1752
 N-N= 7.808560166206D+02 E-N=-2.798044214875D+03  KE= 5.374911733229D+02
 Symmetry A'   KE= 5.228429533562D+02
 Symmetry A"   KE= 1.464821996665D+01
 Unable to Open any file for archive entry.
 1\1\GINC-GADI-CPU-CLX-1762\SP\RM062X TD-FC\6-311++G(d,p)\C14H11(1+)\TS
 1578\02-Aug-2022\0\\#n M062X/6-311++G(d,p) TD(NStates=1) EmpiricalDisp
 ersion=GD3 SP\\SP_50\\1,1\C,0,2.506255,1.358931,0.\C,0,3.715508,0.6766
 64,0.\C,0,3.688361,-0.70628,0.\C,0,2.451631,-1.401063,0.\C,0,-2.475031
 ,-1.414713,0.\C,0,-3.681461,-0.72488,0.\C,0,-3.690833,0.666089,0.\C,0,
 -2.485705,1.359831,0.\C,0,0.006475,1.461069,0.\C,0,-0.0183,-1.429539,0
 .\C,0,1.25958,0.671415,0.\C,0,1.229271,-0.729379,0.\C,0,-1.265055,0.68
 289,0.\C,0,-1.244271,-0.731179,0.\H,0,2.495071,2.442172,0.\H,0,4.65125
 3,1.214689,0.\H,0,4.607612,-1.274874,0.\H,0,2.46155,-2.483684,0.\H,0,-
 0.016875,-2.510441,0.\H,0,-2.4725,-2.496959,0.\H,0,-4.611962,-1.274199
 ,0.\H,0,-4.626278,1.206064,0.\H,0,-2.488771,2.442847,0.\H,0,0.024,2.14
 7537,-0.86151\H,0,0.024,2.147537,0.86151\\Version=ES64L-G16RevC.01\Sta
 te=1-A'\HF=-539.7592824\RMSD=6.750e-09\PG=CS [SG(C14H9),X(H2)]\\@
 The archive entry for this job was punched.


 "WHERE SHALL I START, PLEASE YOUR MAJESTY?" HE ASKED.
 "BEGIN AT THE BEGINNING," THE KING SAID GRAVELY,
 "AND GO ON TILL YOU COME TO THE END: THEN STOP." 

                                      -- LEWIS CARROLL
 Job cpu time:       0 days  0 hours 52 minutes 23.6 seconds.
 Elapsed time:       0 days  0 hours  1 minutes  5.8 seconds.
 File lengths (MBytes):  RWF=    460 Int=      0 D2E=      0 Chk=     15 Scr=      1
 Normal termination of Gaussian 16 at Tue Aug  2 12:40:19 2022.
