 Entering Gaussian System, Link 0=g16
 Initial command:
 /apps/gaussian/g16c01/g16/l1.exe "/jobfs/53796104.gadi-pbs/Gau-3603437.inp" -scrdir="/jobfs/53796104.gadi-pbs/"
 Entering Link 1 = /apps/gaussian/g16c01/g16/l1.exe PID=   3603438.
  
 Copyright (c) 1988-2019, Gaussian, Inc.  All Rights Reserved.
  
 This is part of the Gaussian(R) 16 program.  It is based on
 the Gaussian(R) 09 system (copyright 2009, Gaussian, Inc.),
 the Gaussian(R) 03 system (copyright 2003, Gaussian, Inc.),
 the Gaussian(R) 98 system (copyright 1998, Gaussian, Inc.),
 the Gaussian(R) 94 system (copyright 1995, Gaussian, Inc.),
 the Gaussian 92(TM) system (copyright 1992, Gaussian, Inc.),
 the Gaussian 90(TM) system (copyright 1990, Gaussian, Inc.),
 the Gaussian 88(TM) system (copyright 1988, Gaussian, Inc.),
 the Gaussian 86(TM) system (copyright 1986, Carnegie Mellon
 University), and the Gaussian 82(TM) system (copyright 1983,
 Carnegie Mellon University). Gaussian is a federally registered
 trademark of Gaussian, Inc.
  
 This software contains proprietary and confidential information,
 including trade secrets, belonging to Gaussian, Inc.
  
 This software is provided under written license and may be
 used, copied, transmitted, or stored only in accord with that
 written license.
  
 The following legend is applicable only to US Government
 contracts under FAR:
  
                    RESTRICTED RIGHTS LEGEND
  
 Use, reproduction and disclosure by the US Government is
 subject to restrictions as set forth in subparagraphs (a)
 and (c) of the Commercial Computer Software - Restricted
 Rights clause in FAR 52.227-19.
  
 Gaussian, Inc.
 340 Quinnipiac St., Bldg. 40, Wallingford CT 06492
  
  
 ---------------------------------------------------------------
 Warning -- This program may not be used in any manner that
 competes with the business of Gaussian, Inc. or will provide
 assistance to any competitor of Gaussian, Inc.  The licensee
 of this program is prohibited from giving any competitor of
 Gaussian, Inc. access to this program.  By using this program,
 the user acknowledges that Gaussian, Inc. is engaged in the
 business of creating and licensing software in the field of
 computational chemistry and represents and warrants to the
 licensee that it is not a competitor of Gaussian, Inc. and that
 it will not use this program in any manner prohibited above.
 ---------------------------------------------------------------
  

 Cite this work as:
 Gaussian 16, Revision C.01,
 M. J. Frisch, G. W. Trucks, H. B. Schlegel, G. E. Scuseria, 
 M. A. Robb, J. R. Cheeseman, G. Scalmani, V. Barone, 
 G. A. Petersson, H. Nakatsuji, X. Li, M. Caricato, A. V. Marenich, 
 J. Bloino, B. G. Janesko, R. Gomperts, B. Mennucci, H. P. Hratchian, 
 J. V. Ortiz, A. F. Izmaylov, J. L. Sonnenberg, D. Williams-Young, 
 F. Ding, F. Lipparini, F. Egidi, J. Goings, B. Peng, A. Petrone, 
 T. Henderson, D. Ranasinghe, V. G. Zakrzewski, J. Gao, N. Rega, 
 G. Zheng, W. Liang, M. Hada, M. Ehara, K. Toyota, R. Fukuda, 
 J. Hasegawa, M. Ishida, T. Nakajima, Y. Honda, O. Kitao, H. Nakai, 
 T. Vreven, K. Throssell, J. A. Montgomery, Jr., J. E. Peralta, 
 F. Ogliaro, M. J. Bearpark, J. J. Heyd, E. N. Brothers, K. N. Kudin, 
 V. N. Staroverov, T. A. Keith, R. Kobayashi, J. Normand, 
 K. Raghavachari, A. P. Rendell, J. C. Burant, S. S. Iyengar, 
 J. Tomasi, M. Cossi, J. M. Millam, M. Klene, C. Adamo, R. Cammi, 
 J. W. Ochterski, R. L. Martin, K. Morokuma, O. Farkas, 
 J. B. Foresman, and D. J. Fox, Gaussian, Inc., Wallingford CT, 2019.
 
 ******************************************
 Gaussian 16:  ES64L-G16RevC.01  3-Jul-2019
                 2-Aug-2022 
 ******************************************
 %NProcShared=48
 Will use up to   48 processors via shared memory.
 %mem = 190GB
 ---------------------------------------------------------------
 #n M062X/6-311++G(d,p) TD(NStates=1) EmpiricalDispersion=GD3 SP
 ---------------------------------------------------------------
 1/38=1,172=1/1;
 2/12=2,17=6,18=5,40=1/2;
 3/5=4,6=6,7=1111,11=9,25=1,30=1,74=-55,124=31/1,2,3,8;
 4//1;
 5/5=2,38=5/2;
 8/6=1,10=2,108=1/1;
 9/41=1,42=1,70=2/14;
 6/7=2,8=2,9=2,10=2/1;
 99/5=1,9=1/99;
 -------
 SP_-100
 -------
 Symbolic Z-matrix:
 Charge =  1 Multiplicity = 1
 C                     2.52006   1.35923   0. 
 C                     3.73441   0.68609   0. 
 C                     3.69306  -0.68903   0. 
 C                     2.43196  -1.38934   0. 
 C                    -2.49436  -1.42574   0. 
 C                    -3.67466  -0.73863   0. 
 C                    -3.66861   0.65789   0. 
 C                    -2.46525   1.36163   0. 
 C                     0.0175    1.45337   0. 
 C                    -0.0488   -1.42919   0. 
 C                     1.25476   0.66177   0. 
 C                     1.21747  -0.7284    0. 
 C                    -1.26936   0.69237   0. 
 C                    -1.25747  -0.7332    0. 
 H                     2.49647   2.44275   0. 
 H                     4.67005   1.22319   0. 
 H                     4.60346  -1.27325   0. 
 H                     2.45295  -2.47236   0. 
 H                    -0.045    -2.51027   0. 
 H                    -2.48215  -2.50776   0. 
 H                    -4.61506  -1.27145   0. 
 H                    -4.60345   1.20019   0. 
 H                    -2.47967   2.44455   0. 
 H                     0.064     2.14579  -0.85959 
 H                     0.064     2.14579   0.85959 
 
                          Input orientation:                          
 ---------------------------------------------------------------------
 Center     Atomic      Atomic             Coordinates (Angstroms)
 Number     Number       Type             X           Y           Z
 ---------------------------------------------------------------------
      1          6           0        2.520055    1.359231    0.000000
      2          6           0        3.734408    0.686089    0.000000
      3          6           0        3.693061   -0.689030    0.000000
      4          6           0        2.431956   -1.389338    0.000000
      5          6           0       -2.494356   -1.425738    0.000000
      6          6           0       -3.674661   -0.738630    0.000000
      7          6           0       -3.668608    0.657889    0.000000
      8          6           0       -2.465255    1.361631    0.000000
      9          6           0        0.017500    1.453369    0.000000
     10          6           0       -0.048800   -1.429189    0.000000
     11          6           0        1.254755    0.661765    0.000000
     12          6           0        1.217471   -0.728404    0.000000
     13          6           0       -1.269355    0.692365    0.000000
     14          6           0       -1.257471   -0.733204    0.000000
     15          1           0        2.496471    2.442747    0.000000
     16          1           0        4.670053    1.223189    0.000000
     17          1           0        4.603462   -1.273249    0.000000
     18          1           0        2.452950   -2.472359    0.000000
     19          1           0       -0.045000   -2.510266    0.000000
     20          1           0       -2.482150   -2.507759    0.000000
     21          1           0       -4.615062   -1.271449    0.000000
     22          1           0       -4.603453    1.200189    0.000000
     23          1           0       -2.479671    2.444547    0.000000
     24          1           0        0.064000    2.145787   -0.859585
     25          1           0        0.064000    2.145787    0.859585
 ---------------------------------------------------------------------
                    Distance matrix (angstroms):
                    1          2          3          4          5
     1  C    0.000000
     2  C    1.388443   0.000000
     3  C    2.360364   1.375740   0.000000
     4  C    2.749981   2.450261   1.442504   0.000000
     5  C    5.735884   6.577029   6.231121   4.926446   0.000000
     6  C    6.540300   7.544808   7.367889   6.141188   1.365737
     7  C    6.228277   7.403070   7.483873   6.434906   2.391729
     8  C    4.985311   6.236359   6.490768   5.616984   2.787521
     9  C    2.504325   3.795276   4.254365   3.729689   3.820822
    10  C    3.791346   4.334405   3.814362   2.481076   2.445558
    11  C    1.444799   2.479772   2.787469   2.364916   4.291096
    12  C    2.460680   2.887172   2.475903   1.382681   3.776762
    13  C    3.847641   5.003767   5.151099   4.246550   2.446832
    14  C    4.318331   5.189725   4.950729   3.747317   1.417564
    15  H    1.083773   2.149031   3.352589   3.832628   6.314549
    16  H    2.154298   1.078846   2.147346   3.440113   7.638427
    17  H    3.357162   2.143423   1.081731   2.174607   7.099456
    18  H    3.832178   3.408508   2.172127   1.083224   5.056803
    19  H    4.642469   4.949809   4.158125   2.718785   2.678721
    20  H    6.322631   6.989010   6.437469   5.039772   1.082090
    21  H    7.604628   8.575873   8.328512   7.048004   2.126311
    22  H    7.125283   8.353695   8.508895   7.496841   3.368053
    23  H    5.116168   6.458092   6.922566   6.230791   3.870313
    24  H    2.718412   4.042462   4.684566   4.340877   4.476591
    25  H    2.718412   4.042462   4.684566   4.340877   4.476591
                    6          7          8          9         10
     6  C    0.000000
     7  C    1.396532   0.000000
     8  C    2.423584   1.394027   0.000000
     9  C    4.293823   3.770965   2.484449   0.000000
    10  C    3.691035   4.178385   3.691603   2.883320   0.000000
    11  C    5.124475   4.923365   3.785272   1.468822   2.464010
    12  C    4.892143   5.078935   4.234468   2.489993   1.447253
    13  C    2.798793   2.399501   1.370436   1.495033   2.447600
    14  C    2.417196   2.783653   2.418073   2.531137   1.394733
    15  H    6.942912   6.418249   5.078143   2.669113   4.633605
    16  H    8.572222   8.357801   7.136651   4.658243   5.413195
    17  H    8.295368   8.494494   7.543829   5.335306   4.654875
    18  H    6.368158   6.875458   6.236042   4.619822   2.710527
    19  H    4.038952   4.813288   4.566095   3.964128   1.081084
    20  H    2.133518   3.380682   3.869427   4.683886   2.661673
    21  H    1.080856   2.148981   3.399232   5.374501   4.568986
    22  H    2.149808   1.080752   2.144284   4.627884   5.259134
    23  H    3.400091   2.146094   1.083012   2.686689   4.573288
    24  H    4.799618   4.109147   2.784047   1.104758   3.678595
    25  H    4.799618   4.109147   2.784047   1.104758   3.678595
                   11         12         13         14         15
    11  C    0.000000
    12  C    1.390669   0.000000
    13  C    2.524295   2.864068   0.000000
    14  C    2.873538   2.474947   1.425619   0.000000
    15  H    2.171118   3.419362   4.152744   4.917189   0.000000
    16  H    3.461135   3.965985   5.963082   6.242036   2.492344
    17  H    3.867573   3.429547   6.193030   5.885761   4.271772
    18  H    3.355355   2.137238   4.885799   4.097790   4.915299
    19  H    3.427994   2.183773   3.428686   2.151287   5.566993
    20  H    4.900035   4.105277   3.422231   2.156127   7.020981
    21  H    6.179973   5.857759   3.879474   3.400460   8.023039
    22  H    5.882899   6.132098   3.372550   3.864402   7.207834
    23  H    4.138146   4.872010   2.129555   3.404684   4.976142
    24  H    2.087847   3.214087   2.151548   3.282341   2.596919
    25  H    2.087847   3.214087   2.151548   3.282341   2.596919
                   16         17         18         19         20
    16  H    0.000000
    17  H    2.497326   0.000000
    18  H    4.309596   2.462228   0.000000
    19  H    6.014184   4.810240   2.498238   0.000000
    20  H    8.066845   7.192351   4.935227   2.437151   0.000000
    21  H    9.614394   9.218524   7.169308   4.734990   2.465315
    22  H    9.273535   9.533372   7.954900   5.877667   4.271862
    23  H    7.253294   7.999549   6.964676   5.520670   4.952307
    24  H    4.775542   5.747644   5.270032   4.735990   5.373756
    25  H    4.775542   5.747644   5.270032   4.735990   5.373756
                   21         22         23         24         25
    21  H    0.000000
    22  H    2.471665   0.000000
    23  H    4.285851   2.461479   0.000000
    24  H    5.857475   4.839231   2.701556   0.000000
    25  H    5.857475   4.839231   2.701556   1.719170   0.000000
 Stoichiometry    C14H11(1+)
 Framework group  CS[SG(C14H9),X(H2)]
 Deg. of freedom    46
 Full point group                 CS      NOp   2
 Largest Abelian subgroup         CS      NOp   2
 Largest concise Abelian subgroup CS      NOp   2
                         Standard orientation:                         
 ---------------------------------------------------------------------
 Center     Atomic      Atomic             Coordinates (Angstroms)
 Number     Number       Type             X           Y           Z
 ---------------------------------------------------------------------
      1          6           0        0.026310    2.862480    0.000000
      2          6           0       -1.135779    3.622298    0.000000
      3          6           0       -2.332648    2.943941    0.000000
      4          6           0       -2.363429    1.501766    0.000000
      5          6           0       -0.096437   -2.872091    0.000000
      6          6           0        1.062112   -3.595278    0.000000
      7          6           0        2.294380   -2.938149    0.000000
      8          6           0        2.355151   -1.545447    0.000000
      9          6           0        1.277546    0.693136    0.000000
     10          6           0       -1.240867   -0.710833    0.000000
     11          6           0        0.000000    1.417921    0.000000
     12          6           0       -1.212075    0.736134    0.000000
     13          6           0        1.205103   -0.800140    0.000000
     14          6           0       -0.061228   -1.454964    0.000000
     15          1           0        0.995587    3.347315    0.000000
     16          1           0       -1.097443    4.700462    0.000000
     17          1           0       -3.274233    3.476443    0.000000
     18          1           0       -3.331059    1.014871    0.000000
     19          1           0       -2.198754   -1.212027    0.000000
     20          1           0       -1.059082   -3.366291    0.000000
     21          1           0        1.029782   -4.675651    0.000000
     22          1           0        3.210300   -3.511833    0.000000
     23          1           0        3.319619   -1.052783    0.000000
     24          1           0        1.868224    1.057423    0.859585
     25          1           0        1.868224    1.057423   -0.859585
 ---------------------------------------------------------------------
 Rotational constants (GHZ):           2.1366495           0.4445460           0.3687839
 Standard basis: 6-311++G(d,p) (5D, 7F)
 There are   299 symmetry adapted cartesian basis functions of A'  symmetry.
 There are   100 symmetry adapted cartesian basis functions of A"  symmetry.
 There are   285 symmetry adapted basis functions of A'  symmetry.
 There are   100 symmetry adapted basis functions of A"  symmetry.
   385 basis functions,   603 primitive gaussians,   399 cartesian basis functions
    47 alpha electrons       47 beta electrons
       nuclear repulsion energy       781.2518889777 Hartrees.
 NAtoms=   25 NActive=   25 NUniq=   24 SFac= 1.09D+00 NAtFMM=   60 NAOKFM=F Big=F
 Integral buffers will be    131072 words long.
 Regular integral format.
 Two-electron integral symmetry is turned on.
 Nuclear repulsion after empirical dispersion term =      781.2509099226 Hartrees.
 One-electron integrals computed using PRISM.
 NBasis=   385 RedAO= T EigKep=  1.12D-06  NBF=   285   100
 NBsUse=   379 1.00D-06 EigRej=  8.36D-07 NBFU=   279   100
 ExpMin= 3.60D-02 ExpMax= 4.56D+03 ExpMxC= 6.82D+02 IAcc=3 IRadAn=         5 AccDes= 0.00D+00
 Harris functional with IExCor= 1009 and IRadAn=       5 diagonalized for initial guess.
 HarFok:  IExCor= 1009 AccDes= 0.00D+00 IRadAn=         5 IDoV= 1 UseB2=F ITyADJ=14
 ICtDFT=  3500011 ScaDFX=  1.000000  1.000000  1.000000  1.000000
 FoFCou: FMM=F IPFlag=           0 FMFlag=      100000 FMFlg1=           0
         NFxFlg=           0 DoJE=T BraDBF=F KetDBF=T FulRan=T
         wScrn=  0.000000 ICntrl=       500 IOpCl=  0 I1Cent=   200000004 NGrid=           0
         NMat0=    1 NMatS0=      1 NMatT0=    0 NMatD0=    1 NMtDS0=    0 NMtDT0=    0
 Petite list used in FoFCou.
 Initial guess orbital symmetries:
       Occupied  (A') (A') (A') (A') (A') (A') (A') (A') (A') (A')
                 (A') (A') (A') (A') (A') (A') (A') (A') (A') (A')
                 (A') (A') (A') (A') (A') (A') (A') (A') (A') (A')
                 (A') (A') (A") (A') (A') (A') (A') (A') (A") (A')
                 (A") (A') (A') (A") (A") (A") (A")
       Virtual   (A") (A") (A") (A") (A") (A') (A') (A') (A') (A")
                 (A") (A') (A') (A') (A") (A') (A') (A') (A') (A")
                 (A') (A") (A') (A') (A') (A") (A') (A") (A') (A')
                 (A') (A') (A') (A') (A") (A') (A") (A') (A') (A')
                 (A") (A') (A") (A') (A') (A') (A') (A') (A") (A')
                 (A') (A') (A") (A") (A') (A') (A') (A") (A") (A')
                 (A') (A') (A') (A') (A') (A') (A") (A') (A') (A")
                 (A') (A') (A') (A') (A') (A') (A') (A') (A') (A')
                 (A') (A') (A') (A') (A') (A') (A') (A') (A') (A')
                 (A') (A') (A') (A') (A') (A') (A') (A") (A') (A")
                 (A') (A') (A") (A") (A') (A") (A') (A") (A") (A')
                 (A") (A') (A') (A') (A") (A') (A') (A") (A") (A')
                 (A") (A") (A') (A') (A') (A") (A') (A') (A') (A")
                 (A') (A') (A') (A') (A') (A') (A") (A') (A') (A')
                 (A') (A') (A') (A') (A') (A') (A') (A') (A') (A")
                 (A") (A') (A") (A") (A') (A') (A') (A") (A") (A')
                 (A") (A') (A") (A") (A") (A') (A') (A') (A') (A')
                 (A') (A") (A') (A') (A") (A') (A') (A') (A') (A")
                 (A') (A') (A') (A') (A") (A") (A') (A') (A") (A")
                 (A") (A') (A') (A") (A') (A') (A') (A") (A') (A')
                 (A") (A") (A") (A') (A') (A") (A') (A") (A') (A')
                 (A") (A") (A') (A") (A') (A") (A') (A') (A') (A")
                 (A') (A') (A') (A') (A") (A') (A') (A') (A") (A")
                 (A') (A') (A') (A") (A') (A') (A") (A') (A") (A')
                 (A") (A') (A') (A') (A') (A") (A') (A') (A') (A")
                 (A') (A') (A') (A") (A") (A') (A') (A") (A') (A')
                 (A') (A") (A') (A") (A') (A') (A') (A") (A') (A")
                 (A') (A') (A') (A') (A") (A') (A") (A') (A") (A')
                 (A") (A') (A") (A") (A") (A') (A') (A') (A') (A')
                 (A') (A') (A') (A') (A') (A') (A') (A') (A') (A')
                 (A') (A') (A') (A') (A") (A') (A') (A') (A') (A')
                 (A') (A') (A') (A') (A') (A') (A') (A') (A') (A')
                 (A') (A') (A') (A') (A') (A') (A') (A') (A') (A')
                 (A') (A')
 The electronic state of the initial guess is 1-A'.
 Requested convergence on RMS density matrix=1.00D-08 within 128 cycles.
 Requested convergence on MAX density matrix=1.00D-06.
 Requested convergence on             energy=1.00D-06.
 No special actions if energy rises.
 SCF Done:  E(RM062X) =  -539.753257887     A.U. after   16 cycles
            NFock= 16  Conv=0.34D-08     -V/T= 2.0041
 DoSCS=F DFT=T ScalE2(SS,OS)=  1.000000  1.000000
 ExpMin= 3.60D-02 ExpMax= 4.56D+03 ExpMxC= 6.82D+02 IAcc=3 IRadAn=         5 AccDes= 0.00D+00
 HarFok:  IExCor=  205 AccDes= 0.00D+00 IRadAn=         5 IDoV=-2 UseB2=F ITyADJ=14
 ICtDFT= 12500011 ScaDFX=  1.000000  1.000000  1.000000  1.000000
 Range of M.O.s used for correlation:    15   379
 NBasis=   385 NAE=    47 NBE=    47 NFC=    14 NFV=     0
 NROrb=    365 NOA=    33 NOB=    33 NVA=   332 NVB=   332

 **** Warning!!: The largest alpha MO coefficient is  0.14006203D+03

 Orbital symmetries:
       Occupied  (A') (A') (A') (A') (A') (A') (A') (A') (A') (A')
                 (A') (A') (A') (A') (A') (A') (A') (A') (A') (A')
                 (A') (A') (A') (A') (A') (A') (A') (A') (A') (A')
                 (A') (A") (A') (A') (A') (A') (A') (A") (A") (A')
                 (A') (A') (A') (A") (A") (A") (A")
       Virtual   (A") (A") (A") (A") (A') (A') (A') (A') (A") (A')
                 (A') (A") (A') (A') (A") (A') (A") (A') (A') (A')
                 (A") (A") (A') (A') (A') (A") (A') (A") (A') (A')
                 (A") (A') (A") (A') (A') (A') (A') (A') (A") (A')
                 (A") (A') (A') (A") (A") (A') (A") (A') (A") (A')
                 (A') (A') (A') (A') (A') (A") (A') (A') (A') (A')
                 (A') (A") (A') (A') (A') (A") (A') (A') (A') (A')
                 (A') (A') (A') (A') (A') (A') (A') (A') (A') (A')
                 (A') (A') (A') (A') (A') (A') (A') (A') (A') (A')
                 (A') (A') (A') (A') (A") (A') (A") (A") (A') (A")
                 (A') (A') (A') (A') (A") (A") (A') (A") (A") (A')
                 (A') (A') (A") (A') (A") (A') (A') (A") (A') (A")
                 (A") (A') (A") (A') (A') (A') (A") (A') (A') (A')
                 (A') (A') (A') (A') (A') (A') (A') (A') (A') (A')
                 (A') (A') (A') (A") (A') (A') (A') (A') (A') (A')
                 (A') (A") (A') (A') (A") (A') (A") (A") (A') (A")
                 (A") (A') (A') (A") (A") (A') (A") (A") (A') (A')
                 (A') (A') (A") (A') (A") (A') (A') (A') (A') (A")
                 (A') (A') (A') (A") (A") (A') (A') (A") (A") (A')
                 (A") (A') (A') (A") (A') (A") (A') (A') (A') (A')
                 (A") (A") (A") (A') (A") (A') (A') (A") (A') (A')
                 (A') (A") (A') (A") (A") (A') (A") (A') (A') (A")
                 (A') (A') (A') (A') (A") (A') (A') (A') (A") (A")
                 (A') (A') (A') (A") (A') (A') (A') (A") (A") (A')
                 (A") (A') (A') (A") (A') (A') (A') (A') (A') (A')
                 (A") (A') (A') (A') (A') (A") (A") (A") (A') (A')
                 (A') (A') (A') (A') (A') (A') (A') (A") (A') (A')
                 (A') (A") (A') (A") (A") (A") (A') (A") (A') (A")
                 (A') (A") (A") (A') (A") (A") (A') (A') (A') (A')
                 (A') (A') (A') (A') (A') (A') (A') (A') (A') (A')
                 (A') (A') (A') (A") (A') (A') (A') (A') (A') (A')
                 (A') (A') (A') (A') (A') (A') (A') (A') (A') (A')
                 (A') (A') (A') (A') (A') (A') (A') (A') (A') (A')
                 (A') (A')
     4 initial guesses have been made.
 Convergence on wavefunction:    0.001000000000000
 Iteration     1 Dimension     4 NMult     0 NNew      4
 CISAX will form     4 AO SS matrices at one time.
 Iteration     2 Dimension     6 NMult     4 NNew      2
 Iteration     3 Dimension     8 NMult     6 NNew      2
 Iteration     4 Dimension    10 NMult     8 NNew      2
 Iteration     5 Dimension    12 NMult    10 NNew      2
 Iteration     6 Dimension    14 NMult    12 NNew      2
 ***********************************************************************
 Excited states from <AA,BB:AA,BB> singles matrix:
 ***********************************************************************
 
 Ground to excited state transition densities written to RWF  633
 Ground to excited state transition electric dipole moments (Au):
       state          X           Y           Z        Dip. S.      Osc.
         1         0.4533      0.3043      0.0000      0.2981      0.0194
 Ground to excited state transition velocity dipole moments (Au):
       state          X           Y           Z        Dip. S.      Osc.
         1        -0.0521     -0.0295     -0.0000      0.0036      0.0245
 Ground to excited state transition magnetic dipole moments (Au):
       state          X           Y           Z
         1        -0.0000     -0.0000      0.1723
 Ground to excited state transition velocity quadrupole moments (Au):
       state          XX          YY          ZZ          XY          XZ          YZ
         1         0.1400      0.1205     -0.0081     -0.1354      0.0000      0.0000
 <0|del|b> * <b|rxdel|0> + <0|del|b> * <b|delr+rdel|0>
 Rotatory Strengths (R) in cgs (10**-40 erg-esu-cm/Gauss)
       state          XX          YY          ZZ    R(velocity)    E-M Angle
         1        -0.0000     -0.0000      0.0000      0.0000       90.00
 1/2[<0|r|b>*<b|rxdel|0> + (<0|rxdel|b>*<b|r|0>)*]
 Rotatory Strengths (R) in cgs (10**-40 erg-esu-cm/Gauss)
       state          XX          YY          ZZ     R(length)
         1         0.0000      0.0000     -0.0000     -0.0000
  1/2[<0|del|b>*<b|r|0> + (<0|r|b>*<b|del|0>)*] (Au)
       state          X           Y           Z        Dip. S.   Osc.(frdel)
         1        -0.0236     -0.0090     -0.0000      0.0326      0.0217

 Excitation energies and oscillator strengths:
 
 Excited State   1:      Singlet-A'     2.6550 eV  466.98 nm  f=0.0194  <S**2>=0.000
      47 -> 48         0.70348
 This state for optimization and/or second-order correction.
 Total Energy, E(TD-HF/TD-DFT) =  -539.655688423    
 Copying the excited state density for this state as the 1-particle RhoCI density.
 SavETr:  write IOETrn=   770 NScale= 10 NData=  16 NLR=1 NState=    1 LETran=      28.

 **********************************************************************

            Population analysis using the SCF Density.

 **********************************************************************

 Orbital symmetries:
       Occupied  (A') (A') (A') (A') (A') (A') (A') (A') (A') (A')
                 (A') (A') (A') (A') (A') (A') (A') (A') (A') (A')
                 (A') (A') (A') (A') (A') (A') (A') (A') (A') (A')
                 (A') (A") (A') (A') (A') (A') (A') (A") (A") (A')
                 (A') (A') (A') (A") (A") (A") (A")
       Virtual   (A") (A") (A") (A") (A') (A') (A') (A') (A") (A')
                 (A') (A") (A') (A') (A") (A') (A") (A') (A') (A')
                 (A") (A") (A') (A') (A') (A") (A') (A") (A') (A')
                 (A") (A') (A") (A') (A') (A') (A') (A') (A") (A')
                 (A") (A') (A') (A") (A") (A') (A") (A') (A") (A')
                 (A') (A') (A') (A') (A') (A") (A') (A') (A') (A')
                 (A') (A") (A') (A') (A') (A") (A') (A') (A') (A')
                 (A') (A') (A') (A') (A') (A') (A') (A') (A') (A')
                 (A') (A') (A') (A') (A') (A') (A') (A') (A') (A')
                 (A') (A') (A') (A') (A") (A') (A") (A") (A') (A")
                 (A') (A') (A') (A') (A") (A") (A') (A") (A") (A')
                 (A') (A') (A") (A') (A") (A') (A') (A") (A') (A")
                 (A") (A') (A") (A') (A') (A') (A") (A') (A') (A')
                 (A') (A') (A') (A') (A') (A') (A') (A') (A') (A')
                 (A') (A') (A') (A") (A') (A') (A') (A') (A') (A')
                 (A') (A") (A') (A') (A") (A') (A") (A") (A') (A")
                 (A") (A') (A') (A") (A") (A') (A") (A") (A') (A')
                 (A') (A') (A") (A') (A") (A') (A') (A') (A') (A")
                 (A') (A') (A') (A") (A") (A') (A') (A") (A") (A')
                 (A") (A') (A') (A") (A') (A") (A') (A') (A') (A')
                 (A") (A") (A") (A') (A") (A') (A') (A") (A') (A')
                 (A') (A") (A') (A") (A") (A') (A") (A') (A') (A")
                 (A') (A') (A') (A') (A") (A') (A') (A') (A") (A")
                 (A') (A') (A') (A") (A') (A') (A') (A") (A") (A')
                 (A") (A') (A') (A") (A') (A') (A') (A') (A') (A')
                 (A") (A') (A') (A') (A') (A") (A") (A") (A') (A')
                 (A') (A') (A') (A') (A') (A') (A') (A") (A') (A')
                 (A') (A") (A') (A") (A") (A") (A') (A") (A') (A")
                 (A') (A") (A") (A') (A") (A") (A') (A') (A') (A')
                 (A') (A') (A') (A') (A') (A') (A') (A') (A') (A')
                 (A') (A') (A') (A") (A') (A') (A') (A') (A') (A')
                 (A') (A') (A') (A') (A') (A') (A') (A') (A') (A')
                 (A') (A') (A') (A') (A') (A') (A') (A') (A') (A')
                 (A') (A')
 The electronic state is 1-A'.
 Alpha  occ. eigenvalues --  -10.77573 -10.73800 -10.72854 -10.72653 -10.72072
 Alpha  occ. eigenvalues --  -10.71927 -10.71883 -10.70984 -10.70794 -10.70233
 Alpha  occ. eigenvalues --  -10.70023 -10.69952 -10.69714 -10.69302  -1.16554
 Alpha  occ. eigenvalues --   -1.12475  -1.06937  -1.05870  -1.01284  -1.00436
 Alpha  occ. eigenvalues --   -0.95551  -0.91027  -0.86444  -0.85892  -0.83775
 Alpha  occ. eigenvalues --   -0.78329  -0.76152  -0.74364  -0.69797  -0.69326
 Alpha  occ. eigenvalues --   -0.68298  -0.68089  -0.68058  -0.65294  -0.64234
 Alpha  occ. eigenvalues --   -0.62736  -0.61568  -0.60476  -0.59235  -0.59167
 Alpha  occ. eigenvalues --   -0.56947  -0.55266  -0.54530  -0.52440  -0.47345
 Alpha  occ. eigenvalues --   -0.46125  -0.43755
 Alpha virt. eigenvalues --   -0.26105  -0.14667  -0.14075  -0.12759  -0.11192
 Alpha virt. eigenvalues --   -0.10095  -0.09261  -0.07959  -0.07923  -0.07485
 Alpha virt. eigenvalues --   -0.07213  -0.07135  -0.05646  -0.05574  -0.05355
 Alpha virt. eigenvalues --   -0.03852  -0.03667  -0.03272  -0.03132  -0.02155
 Alpha virt. eigenvalues --   -0.01348  -0.00959   0.00186   0.00594   0.00644
 Alpha virt. eigenvalues --    0.01066   0.01502   0.01930   0.02138   0.02304
 Alpha virt. eigenvalues --    0.02448   0.02674   0.02800   0.03233   0.03454
 Alpha virt. eigenvalues --    0.04218   0.04497   0.04725   0.05040   0.05393
 Alpha virt. eigenvalues --    0.06021   0.06290   0.06577   0.07057   0.07272
 Alpha virt. eigenvalues --    0.07907   0.08073   0.08351   0.08652   0.08907
 Alpha virt. eigenvalues --    0.09480   0.09590   0.09963   0.10815   0.10964
 Alpha virt. eigenvalues --    0.11128   0.12092   0.12250   0.12678   0.13038
 Alpha virt. eigenvalues --    0.13474   0.13524   0.13977   0.14315   0.15852
 Alpha virt. eigenvalues --    0.16362   0.16504   0.17326   0.17444   0.17774
 Alpha virt. eigenvalues --    0.18129   0.19061   0.19365   0.19682   0.19939
 Alpha virt. eigenvalues --    0.21477   0.21662   0.22662   0.23187   0.23573
 Alpha virt. eigenvalues --    0.23951   0.24523   0.25424   0.26950   0.27622
 Alpha virt. eigenvalues --    0.28865   0.29253   0.29941   0.31356   0.35774
 Alpha virt. eigenvalues --    0.36479   0.38218   0.39282   0.41039   0.41270
 Alpha virt. eigenvalues --    0.41983   0.42095   0.42983   0.43717   0.44406
 Alpha virt. eigenvalues --    0.44761   0.45140   0.45872   0.46423   0.47876
 Alpha virt. eigenvalues --    0.48383   0.48778   0.49038   0.50541   0.51104
 Alpha virt. eigenvalues --    0.51231   0.52105   0.52146   0.52761   0.54126
 Alpha virt. eigenvalues --    0.54169   0.54602   0.55624   0.55983   0.57564
 Alpha virt. eigenvalues --    0.58220   0.58988   0.61516   0.62262   0.62441
 Alpha virt. eigenvalues --    0.63158   0.63473   0.64939   0.65169   0.67510
 Alpha virt. eigenvalues --    0.70304   0.70456   0.71251   0.72536   0.72921
 Alpha virt. eigenvalues --    0.75543   0.76065   0.76447   0.76731   0.77126
 Alpha virt. eigenvalues --    0.77880   0.78036   0.78306   0.79920   0.80393
 Alpha virt. eigenvalues --    0.81241   0.81529   0.82453   0.82991   0.85261
 Alpha virt. eigenvalues --    0.87030   0.88091   0.88181   0.89344   0.90650
 Alpha virt. eigenvalues --    0.91058   0.91466   0.93324   0.94597   0.96258
 Alpha virt. eigenvalues --    0.96954   1.00116   1.01286   1.01493   1.02861
 Alpha virt. eigenvalues --    1.02897   1.03291   1.04905   1.06525   1.08921
 Alpha virt. eigenvalues --    1.19594   1.22905   1.24164   1.24177   1.29078
 Alpha virt. eigenvalues --    1.29229   1.32341   1.34260   1.35755   1.35959
 Alpha virt. eigenvalues --    1.39321   1.39585   1.40799   1.42911   1.43402
 Alpha virt. eigenvalues --    1.43479   1.44282   1.46371   1.46583   1.47026
 Alpha virt. eigenvalues --    1.47716   1.48256   1.51808   1.53692   1.55751
 Alpha virt. eigenvalues --    1.55800   1.56278   1.56590   1.57840   1.61496
 Alpha virt. eigenvalues --    1.62924   1.63373   1.64244   1.66090   1.68283
 Alpha virt. eigenvalues --    1.68397   1.68718   1.69857   1.74438   1.76043
 Alpha virt. eigenvalues --    1.77188   1.78093   1.79829   1.79990   1.80913
 Alpha virt. eigenvalues --    1.82788   1.83186   1.83629   1.83823   1.84178
 Alpha virt. eigenvalues --    1.84629   1.85412   1.86470   1.88396   1.91440
 Alpha virt. eigenvalues --    1.92180   1.94058   1.95384   1.97817   1.98167
 Alpha virt. eigenvalues --    1.99833   2.02449   2.04586   2.07330   2.11716
 Alpha virt. eigenvalues --    2.12206   2.14298   2.15280   2.19082   2.21230
 Alpha virt. eigenvalues --    2.22729   2.28429   2.30357   2.34459   2.34773
 Alpha virt. eigenvalues --    2.36385   2.38579   2.39705   2.42338   2.44484
 Alpha virt. eigenvalues --    2.46113   2.46551   2.49172   2.52972   2.53787
 Alpha virt. eigenvalues --    2.54317   2.56845   2.57938   2.58448   2.59398
 Alpha virt. eigenvalues --    2.59939   2.61532   2.62149   2.63585   2.63726
 Alpha virt. eigenvalues --    2.64851   2.65050   2.65075   2.65643   2.67974
 Alpha virt. eigenvalues --    2.68394   2.70930   2.71485   2.73385   2.74813
 Alpha virt. eigenvalues --    2.76277   2.78390   2.79641   2.83189   2.83253
 Alpha virt. eigenvalues --    2.84868   2.86286   2.92131   2.97127   2.99408
 Alpha virt. eigenvalues --    3.00175   3.05023   3.09331   3.11205   3.14294
 Alpha virt. eigenvalues --    3.20561   3.22057   3.26148   3.28901   3.30750
 Alpha virt. eigenvalues --    3.32841   3.34844   3.44029   3.46307   3.46855
 Alpha virt. eigenvalues --    3.48346   3.50067   3.56461   3.65662   3.67043
 Alpha virt. eigenvalues --    3.67992   3.93544   3.94006   3.95353   3.96563
 Alpha virt. eigenvalues --    4.03912   4.06438   4.07715   4.12531   4.35291
 Alpha virt. eigenvalues --    4.60928   4.69066   4.71100  23.45203  23.60019
 Alpha virt. eigenvalues --   23.79778  23.82037  23.84909  23.89263  23.92035
 Alpha virt. eigenvalues --   23.95219  23.96003  23.97778  24.03868  24.06610
 Alpha virt. eigenvalues --   24.11506  24.13517
          Condensed to atoms (all electrons):
               1          2          3          4          5          6
     1  C    9.020682  -0.040608  -0.364975   2.295378  -0.090947  -0.107199
     2  C   -0.040608   7.197141   0.231374  -1.210941   0.016579  -0.013032
     3  C   -0.364975   0.231374   6.600596   0.835060  -0.141902   0.016869
     4  C    2.295378  -1.210941   0.835060  10.638441  -0.376386  -0.110989
     5  C   -0.090947   0.016579  -0.141902  -0.376386  11.552679   0.709835
     6  C   -0.107199  -0.013032   0.016869  -0.110989   0.709835   6.612314
     7  C   -0.000332   0.000224  -0.015391  -0.043153  -0.975961   0.430954
     8  C    0.409940  -0.035697  -0.083723   0.001979   1.714403  -0.662785
     9  C   -1.130461  -0.776331   0.292991  -0.443109   0.060020   0.293578
    10  C   -1.400346   0.360167  -0.448487  -2.358627  -2.806884  -0.253359
    11  C    0.293689  -1.001657   1.124412  -0.327725  -1.602134  -0.232633
    12  C   -2.636956   1.786442  -1.519664  -1.628102  -0.478034  -0.107647
    13  C    0.287661  -0.311727  -0.104132  -1.411453  -0.325899   0.875090
    14  C   -1.045444  -0.064755  -0.296221  -0.205400  -1.630944  -1.335696
    15  H    0.370491  -0.108402   0.001590   0.030106   0.004441   0.000961
    16  H   -0.016328   0.372779  -0.011316   0.009634  -0.001304  -0.000292
    17  H   -0.033233  -0.006687   0.367096  -0.065893   0.000489   0.000381
    18  H    0.054377   0.001776  -0.084225   0.453464   0.006150  -0.005276
    19  H   -0.048674  -0.007362   0.051640  -0.061055  -0.082860   0.051097
    20  H    0.007064   0.002111  -0.004999   0.006182   0.467356  -0.083514
    21  H   -0.001420  -0.000368   0.000413   0.000105  -0.069968   0.381830
    22  H    0.001079   0.000405  -0.000361  -0.001706   0.017520  -0.022032
    23  H    0.004827  -0.002941   0.001255   0.006530   0.024665  -0.003465
    24  H    0.027031   0.012728  -0.001823  -0.013369  -0.011156  -0.001258
    25  H    0.027031   0.012728  -0.001823  -0.013369  -0.011156  -0.001258
               7          8          9         10         11         12
     1  C   -0.000332   0.409940  -1.130461  -1.400346   0.293689  -2.636956
     2  C    0.000224  -0.035697  -0.776331   0.360167  -1.001657   1.786442
     3  C   -0.015391  -0.083723   0.292991  -0.448487   1.124412  -1.519664
     4  C   -0.043153   0.001979  -0.443109  -2.358627  -0.327725  -1.628102
     5  C   -0.975961   1.714403   0.060020  -2.806884  -1.602134  -0.478034
     6  C    0.430954  -0.662785   0.293578  -0.253359  -0.232633  -0.107647
     7  C    7.184854   0.552944  -0.866976   0.146664  -0.209302  -0.308035
     8  C    0.552944   8.337960  -1.159190  -1.185451   0.191564  -1.155652
     9  C   -0.866976  -1.159190   9.645165   0.247539   1.474718  -1.716523
    10  C    0.146664  -1.185451   0.247539   9.128581  -0.507548   2.473260
    11  C   -0.209302   0.191564   1.474718  -0.507548  14.306257  -3.285679
    12  C   -0.308035  -1.155652  -1.716523   2.473260  -3.285679  15.875622
    13  C   -0.782902   0.333275   1.641251  -0.316826   1.058447  -4.830184
    14  C    1.005948  -1.751261  -2.138628   2.378581  -4.706125   3.095327
    15  H   -0.002265   0.006871   0.096252  -0.011459  -0.034437  -0.038046
    16  H    0.000310   0.000357   0.004171  -0.007855   0.026089  -0.033372
    17  H   -0.000420  -0.001227  -0.006555   0.020394  -0.027345   0.097901
    18  H    0.002019   0.006929  -0.026218   0.015166  -0.002352  -0.066451
    19  H   -0.008320  -0.043249   0.074855   0.422581   0.082907  -0.043637
    20  H    0.003675   0.046711  -0.022355   0.007029  -0.012441  -0.022030
    21  H   -0.023099  -0.019016  -0.004679   0.019959  -0.006318   0.005212
    22  H    0.383072  -0.020082   0.001773  -0.010558   0.003451  -0.010568
    23  H   -0.105487   0.366657   0.087001  -0.007575  -0.003950   0.007711
    24  H    0.016036   0.038187   0.356771   0.005527   0.000592  -0.060238
    25  H    0.016036   0.038187   0.356771   0.005527   0.000592  -0.060238
              13         14         15         16         17         18
     1  C    0.287661  -1.045444   0.370491  -0.016328  -0.033233   0.054377
     2  C   -0.311727  -0.064755  -0.108402   0.372779  -0.006687   0.001776
     3  C   -0.104132  -0.296221   0.001590  -0.011316   0.367096  -0.084225
     4  C   -1.411453  -0.205400   0.030106   0.009634  -0.065893   0.453464
     5  C   -0.325899  -1.630944   0.004441  -0.001304   0.000489   0.006150
     6  C    0.875090  -1.335696   0.000961  -0.000292   0.000381  -0.005276
     7  C   -0.782902   1.005948  -0.002265   0.000310  -0.000420   0.002019
     8  C    0.333275  -1.751261   0.006871   0.000357  -0.001227   0.006929
     9  C    1.641251  -2.138628   0.096252   0.004171  -0.006555  -0.026218
    10  C   -0.316826   2.378581  -0.011459  -0.007855   0.020394   0.015166
    11  C    1.058447  -4.706125  -0.034437   0.026089  -0.027345  -0.002352
    12  C   -4.830184   3.095327  -0.038046  -0.033372   0.097901  -0.066451
    13  C   14.595160  -4.133349   0.008049   0.002378  -0.006260  -0.012162
    14  C   -4.133349  16.329845   0.004494  -0.007459   0.005327  -0.007426
    15  H    0.008049   0.004494   0.445207  -0.008878   0.001196   0.000043
    16  H    0.002378  -0.007459  -0.008878   0.422593  -0.005871   0.001877
    17  H   -0.006260   0.005327   0.001196  -0.005871   0.425082  -0.010402
    18  H   -0.012162  -0.007426   0.000043   0.001877  -0.010402   0.459680
    19  H    0.076990  -0.089296   0.000213  -0.000470   0.001094  -0.006912
    20  H   -0.009575  -0.046623  -0.000100   0.000011  -0.000117   0.001260
    21  H   -0.025206   0.084780   0.000010  -0.000007   0.000010  -0.000169
    22  H    0.024965  -0.029876  -0.000132   0.000007  -0.000007   0.000020
    23  H   -0.029456  -0.011318   0.000567  -0.000124   0.000017  -0.000127
    24  H    0.026021  -0.059583  -0.000868   0.000633  -0.000151   0.000228
    25  H    0.026021  -0.059583  -0.000868   0.000633  -0.000151   0.000228
              19         20         21         22         23         24
     1  C   -0.048674   0.007064  -0.001420   0.001079   0.004827   0.027031
     2  C   -0.007362   0.002111  -0.000368   0.000405  -0.002941   0.012728
     3  C    0.051640  -0.004999   0.000413  -0.000361   0.001255  -0.001823
     4  C   -0.061055   0.006182   0.000105  -0.001706   0.006530  -0.013369
     5  C   -0.082860   0.467356  -0.069968   0.017520   0.024665  -0.011156
     6  C    0.051097  -0.083514   0.381830  -0.022032  -0.003465  -0.001258
     7  C   -0.008320   0.003675  -0.023099   0.383072  -0.105487   0.016036
     8  C   -0.043249   0.046711  -0.019016  -0.020082   0.366657   0.038187
     9  C    0.074855  -0.022355  -0.004679   0.001773   0.087001   0.356771
    10  C    0.422581   0.007029   0.019959  -0.010558  -0.007575   0.005527
    11  C    0.082907  -0.012441  -0.006318   0.003451  -0.003950   0.000592
    12  C   -0.043637  -0.022030   0.005212  -0.010568   0.007711  -0.060238
    13  C    0.076990  -0.009575  -0.025206   0.024965  -0.029456   0.026021
    14  C   -0.089296  -0.046623   0.084780  -0.029876  -0.011318  -0.059583
    15  H    0.000213  -0.000100   0.000010  -0.000132   0.000567  -0.000868
    16  H   -0.000470   0.000011  -0.000007   0.000007  -0.000124   0.000633
    17  H    0.001094  -0.000117   0.000010  -0.000007   0.000017  -0.000151
    18  H   -0.006912   0.001260  -0.000169   0.000020  -0.000127   0.000228
    19  H    0.443982  -0.005719   0.001760  -0.000611   0.000423   0.000599
    20  H   -0.005719   0.447819  -0.010039   0.001975   0.000245   0.000137
    21  H    0.001760  -0.010039   0.419433  -0.007111   0.001683  -0.000132
    22  H   -0.000611   0.001975  -0.007111   0.415592  -0.008851   0.000625
    23  H    0.000423   0.000245   0.001683  -0.008851   0.433566  -0.000936
    24  H    0.000599   0.000137  -0.000132   0.000625  -0.000936   0.493434
    25  H    0.000599   0.000137  -0.000132   0.000625  -0.000936  -0.079357
              25
     1  C    0.027031
     2  C    0.012728
     3  C   -0.001823
     4  C   -0.013369
     5  C   -0.011156
     6  C   -0.001258
     7  C    0.016036
     8  C    0.038187
     9  C    0.356771
    10  C    0.005527
    11  C    0.000592
    12  C   -0.060238
    13  C    0.026021
    14  C   -0.059583
    15  H   -0.000868
    16  H    0.000633
    17  H   -0.000151
    18  H    0.000228
    19  H    0.000599
    20  H    0.000137
    21  H   -0.000132
    22  H    0.000625
    23  H   -0.000936
    24  H   -0.079357
    25  H    0.493434
 Mulliken charges:
               1
     1  C    0.117672
     2  C   -0.413945
     3  C   -0.444254
     4  C   -0.005601
     5  C    0.031398
     6  C   -0.432473
     7  C   -0.401094
     8  C    0.071370
     9  C   -0.341833
    10  C    0.084002
    11  C   -0.603071
    12  C    0.659580
    13  C   -0.656180
    14  C    0.714684
    15  H    0.234962
    16  H    0.251803
    17  H    0.245332
    18  H    0.218503
    19  H    0.189427
    20  H    0.225800
    21  H    0.252469
    22  H    0.260785
    23  H    0.240018
    24  H    0.250322
    25  H    0.250322
 Sum of Mulliken charges =   1.00000
 Mulliken charges with hydrogens summed into heavy atoms:
               1
     1  C    0.352635
     2  C   -0.162142
     3  C   -0.198923
     4  C    0.212902
     5  C    0.257199
     6  C   -0.180004
     7  C   -0.140309
     8  C    0.311388
     9  C    0.158812
    10  C    0.273429
    11  C   -0.603071
    12  C    0.659580
    13  C   -0.656180
    14  C    0.714684
 Electronic spatial extent (au):  <R**2>=           2856.1443
 Charge=              1.0000 electrons
 Dipole moment (field-independent basis, Debye):
    X=              0.3703    Y=             -1.0650    Z=             -0.0000  Tot=              1.1276
 Quadrupole moment (field-independent basis, Debye-Ang):
   XX=            -51.2214   YY=            -36.0576   ZZ=            -84.1304
   XY=            -10.1315   XZ=             -0.0000   YZ=              0.0000
 Traceless Quadrupole moment (field-independent basis, Debye-Ang):
   XX=              5.9151   YY=             21.0789   ZZ=            -26.9939
   XY=            -10.1315   XZ=             -0.0000   YZ=              0.0000
 Octapole moment (field-independent basis, Debye-Ang**2):
  XXX=              3.6809  YYY=             -4.3430  ZZZ=             -0.0000  XYY=              3.0586
  XXY=             -8.3091  XXZ=             -0.0000  XZZ=              3.4883  YZZ=              0.0084
  YYZ=              0.0000  XYZ=              0.0000
 Hexadecapole moment (field-independent basis, Debye-Ang**3):
 XXXX=           -981.3453 YYYY=          -1853.5864 ZZZZ=            -99.3114 XXXY=            345.9742
 XXXZ=             -0.0000 YYYX=            271.4314 YYYZ=             -0.0000 ZZZX=             -0.0000
 ZZZY=              0.0000 XXYY=           -455.4501 XXZZ=           -239.6388 YYZZ=           -496.7470
 XXYZ=             -0.0000 YYXZ=              0.0000 ZZXY=            181.5898
 N-N= 7.812509099226D+02 E-N=-2.798860923779D+03  KE= 5.375343030741D+02
 Symmetry A'   KE= 5.228799139956D+02
 Symmetry A"   KE= 1.465438907845D+01
 Unable to Open any file for archive entry.
 1\1\GINC-GADI-CPU-CLX-1762\SP\RM062X TD-FC\6-311++G(d,p)\C14H11(1+)\TS
 1578\02-Aug-2022\0\\#n M062X/6-311++G(d,p) TD(NStates=1) EmpiricalDisp
 ersion=GD3 SP\\SP_-100\\1,1\C,0,2.520055,1.359231,0.\C,0,3.734408,0.68
 6089,0.\C,0,3.693061,-0.68903,0.\C,0,2.431956,-1.389338,0.\C,0,-2.4943
 56,-1.425738,0.\C,0,-3.674661,-0.73863,0.\C,0,-3.668608,0.657889,0.\C,
 0,-2.465255,1.361631,0.\C,0,0.0175,1.453369,0.\C,0,-0.0488,-1.429189,0
 .\C,0,1.254755,0.661765,0.\C,0,1.217471,-0.728404,0.\C,0,-1.269355,0.6
 92365,0.\C,0,-1.257471,-0.733204,0.\H,0,2.496471,2.442747,0.\H,0,4.670
 053,1.223189,0.\H,0,4.603462,-1.273249,0.\H,0,2.45295,-2.472359,0.\H,0
 ,-0.045,-2.510266,0.\H,0,-2.48215,-2.507759,0.\H,0,-4.615062,-1.271449
 ,0.\H,0,-4.603453,1.200189,0.\H,0,-2.479671,2.444547,0.\H,0,0.064,2.14
 5787,-0.859585\H,0,0.064,2.145787,0.859585\\Version=ES64L-G16RevC.01\S
 tate=1-A'\HF=-539.7532579\RMSD=3.384e-09\PG=CS [SG(C14H9),X(H2)]\\@
 The archive entry for this job was punched.


 IT IS BY LOGIC THAT WE PROVE, BUT BY INTUITION THAT WE DISCOVER.
     -- J.H.POINCARE (1854-1912)
 Job cpu time:       0 days  0 hours 56 minutes 48.0 seconds.
 Elapsed time:       0 days  0 hours  1 minutes 12.7 seconds.
 File lengths (MBytes):  RWF=    460 Int=      0 D2E=      0 Chk=     15 Scr=      1
 Normal termination of Gaussian 16 at Tue Aug  2 11:13:40 2022.
