 Entering Gaussian System, Link 0=g16
 Initial command:
 /apps/gaussian/g16c01/g16/l1.exe "/jobfs/53796104.gadi-pbs/Gau-3677249.inp" -scrdir="/jobfs/53796104.gadi-pbs/"
 Entering Link 1 = /apps/gaussian/g16c01/g16/l1.exe PID=   3677250.
  
 Copyright (c) 1988-2019, Gaussian, Inc.  All Rights Reserved.
  
 This is part of the Gaussian(R) 16 program.  It is based on
 the Gaussian(R) 09 system (copyright 2009, Gaussian, Inc.),
 the Gaussian(R) 03 system (copyright 2003, Gaussian, Inc.),
 the Gaussian(R) 98 system (copyright 1998, Gaussian, Inc.),
 the Gaussian(R) 94 system (copyright 1995, Gaussian, Inc.),
 the Gaussian 92(TM) system (copyright 1992, Gaussian, Inc.),
 the Gaussian 90(TM) system (copyright 1990, Gaussian, Inc.),
 the Gaussian 88(TM) system (copyright 1988, Gaussian, Inc.),
 the Gaussian 86(TM) system (copyright 1986, Carnegie Mellon
 University), and the Gaussian 82(TM) system (copyright 1983,
 Carnegie Mellon University). Gaussian is a federally registered
 trademark of Gaussian, Inc.
  
 This software contains proprietary and confidential information,
 including trade secrets, belonging to Gaussian, Inc.
  
 This software is provided under written license and may be
 used, copied, transmitted, or stored only in accord with that
 written license.
  
 The following legend is applicable only to US Government
 contracts under FAR:
  
                    RESTRICTED RIGHTS LEGEND
  
 Use, reproduction and disclosure by the US Government is
 subject to restrictions as set forth in subparagraphs (a)
 and (c) of the Commercial Computer Software - Restricted
 Rights clause in FAR 52.227-19.
  
 Gaussian, Inc.
 340 Quinnipiac St., Bldg. 40, Wallingford CT 06492
  
  
 ---------------------------------------------------------------
 Warning -- This program may not be used in any manner that
 competes with the business of Gaussian, Inc. or will provide
 assistance to any competitor of Gaussian, Inc.  The licensee
 of this program is prohibited from giving any competitor of
 Gaussian, Inc. access to this program.  By using this program,
 the user acknowledges that Gaussian, Inc. is engaged in the
 business of creating and licensing software in the field of
 computational chemistry and represents and warrants to the
 licensee that it is not a competitor of Gaussian, Inc. and that
 it will not use this program in any manner prohibited above.
 ---------------------------------------------------------------
  

 Cite this work as:
 Gaussian 16, Revision C.01,
 M. J. Frisch, G. W. Trucks, H. B. Schlegel, G. E. Scuseria, 
 M. A. Robb, J. R. Cheeseman, G. Scalmani, V. Barone, 
 G. A. Petersson, H. Nakatsuji, X. Li, M. Caricato, A. V. Marenich, 
 J. Bloino, B. G. Janesko, R. Gomperts, B. Mennucci, H. P. Hratchian, 
 J. V. Ortiz, A. F. Izmaylov, J. L. Sonnenberg, D. Williams-Young, 
 F. Ding, F. Lipparini, F. Egidi, J. Goings, B. Peng, A. Petrone, 
 T. Henderson, D. Ranasinghe, V. G. Zakrzewski, J. Gao, N. Rega, 
 G. Zheng, W. Liang, M. Hada, M. Ehara, K. Toyota, R. Fukuda, 
 J. Hasegawa, M. Ishida, T. Nakajima, Y. Honda, O. Kitao, H. Nakai, 
 T. Vreven, K. Throssell, J. A. Montgomery, Jr., J. E. Peralta, 
 F. Ogliaro, M. J. Bearpark, J. J. Heyd, E. N. Brothers, K. N. Kudin, 
 V. N. Staroverov, T. A. Keith, R. Kobayashi, J. Normand, 
 K. Raghavachari, A. P. Rendell, J. C. Burant, S. S. Iyengar, 
 J. Tomasi, M. Cossi, J. M. Millam, M. Klene, C. Adamo, R. Cammi, 
 J. W. Ochterski, R. L. Martin, K. Morokuma, O. Farkas, 
 J. B. Foresman, and D. J. Fox, Gaussian, Inc., Wallingford CT, 2019.
 
 ******************************************
 Gaussian 16:  ES64L-G16RevC.01  3-Jul-2019
                 2-Aug-2022 
 ******************************************
 %NProcShared=48
 Will use up to   48 processors via shared memory.
 %mem = 190GB
 ---------------------------------------------------------------
 #n M062X/6-311++G(d,p) TD(NStates=1) EmpiricalDispersion=GD3 SP
 ---------------------------------------------------------------
 1/38=1,172=1/1;
 2/12=2,17=6,18=5,40=1/2;
 3/5=4,6=6,7=1111,11=9,25=1,30=1,74=-55,124=31/1,2,3,8;
 4//1;
 5/5=2,38=5/2;
 8/6=1,10=2,108=1/1;
 9/41=1,42=1,70=2/14;
 6/7=2,8=2,9=2,10=2/1;
 99/5=1,9=1/99;
 ------
 SP_125
 ------
 Symbolic Z-matrix:
 Charge =  1 Multiplicity = 1
 C                     2.50131   1.35863   0. 
 C                     3.70823   0.67279   0. 
 C                     3.68666  -0.71348   0. 
 C                     2.45953  -1.40581   0. 
 C                    -2.46733  -1.41036   0. 
 C                    -3.68436  -0.71968   0. 
 C                    -3.70001   0.66926   0. 
 C                    -2.49446   1.35893   0. 
 C                     0.00205   1.46547   0. 
 C                    -0.0061   -1.42974   0. 
 C                     1.26155   0.67529   0. 
 C                     1.23387  -0.72968   0. 
 C                    -1.26338   0.67912   0. 
 C                    -1.23887  -0.73028   0. 
 H                     2.49517   2.44175   0. 
 H                     4.64408   1.21106   0. 
 H                     4.60936  -1.2759    0. 
 H                     2.4649   -2.48826   0. 
 H                    -0.00563  -2.51054   0. 
 H                    -2.46855  -2.49268   0. 
 H                    -4.61081  -1.27567   0. 
 H                    -4.63575   1.20819   0. 
 H                    -2.49307   2.44197   0. 
 H                     0.008     2.14854  -0.86261 
 H                     0.008     2.14854   0.86261 
 
                          Input orientation:                          
 ---------------------------------------------------------------------
 Center     Atomic      Atomic             Coordinates (Angstroms)
 Number     Number       Type             X           Y           Z
 ---------------------------------------------------------------------
      1          6           0        2.501305    1.358631    0.000000
      2          6           0        3.708233    0.672789    0.000000
      3          6           0        3.686661   -0.713480    0.000000
      4          6           0        2.459531   -1.405813    0.000000
      5          6           0       -2.467331   -1.410363    0.000000
      6          6           0       -3.684361   -0.719680    0.000000
      7          6           0       -3.700008    0.669264    0.000000
      8          6           0       -2.494455    1.358931    0.000000
      9          6           0        0.002050    1.465469    0.000000
     10          6           0       -0.006100   -1.429739    0.000000
     11          6           0        1.261555    0.675290    0.000000
     12          6           0        1.233871   -0.729679    0.000000
     13          6           0       -1.263380    0.679115    0.000000
     14          6           0       -1.238871   -0.730279    0.000000
     15          1           0        2.495171    2.441747    0.000000
     16          1           0        4.644078    1.211064    0.000000
     17          1           0        4.609362   -1.275899    0.000000
     18          1           0        2.464900   -2.488259    0.000000
     19          1           0       -0.005625   -2.510541    0.000000
     20          1           0       -2.468550   -2.492684    0.000000
     21          1           0       -4.610812   -1.275674    0.000000
     22          1           0       -4.635753    1.208189    0.000000
     23          1           0       -2.493071    2.441972    0.000000
     24          1           0        0.008000    2.148537   -0.862610
     25          1           0        0.008000    2.148537    0.862610
 ---------------------------------------------------------------------
                    Distance matrix (angstroms):
                    1          2          3          4          5
     1  C    0.000000
     2  C    1.388184   0.000000
     3  C    2.387198   1.386437   0.000000
     4  C    2.764760   2.424839   1.408962   0.000000
     5  C    5.688117   6.517447   6.193324   4.926864   0.000000
     6  C    6.525476   7.522594   7.371025   6.182086   1.399359
     7  C    6.239512   7.408242   7.514976   6.499682   2.417507
     8  C    4.995760   6.240523   6.519285   5.673252   2.769427
     9  C    2.501538   3.790004   4.280675   3.779348   3.790548
    10  C    3.749945   4.268125   3.761584   2.465747   2.461307
    11  C    1.415604   2.446679   2.794606   2.401278   4.272533
    12  C    2.442832   2.844184   2.452843   1.399786   3.763273
    13  C    3.825519   4.971617   5.142201   4.266965   2.411517
    14  C    4.283977   5.142221   4.925561   3.759591   1.404147
    15  H    1.083133   2.144932   3.372700   3.847725   6.282132
    16  H    2.147848   1.079604   2.149539   3.408855   7.579183
    17  H    3.374115   2.146956   1.080598   2.153753   7.077970
    18  H    3.847062   3.396778   2.154656   1.082459   5.048640
    19  H    4.610335   4.891455   4.106386   2.701373   2.696366
    20  H    6.287455   6.940668   6.407198   5.046511   1.082322
    21  H    7.584311   8.544180   8.316497   7.071541   2.147709
    22  H    7.138643   8.361146   8.541393   7.561485   3.399834
    23  H    5.110520   6.448735   6.938729   6.271660   3.852421
    24  H    2.754018   4.075985   4.740019   4.403124   4.420082
    25  H    2.754018   4.075985   4.740019   4.403124   4.420082
                    6          7          8          9         10
     6  C    0.000000
     7  C    1.389032   0.000000
     8  C    2.395099   1.388884   0.000000
     9  C    4.285382   3.786710   2.498777   0.000000
    10  C    3.746170   4.248620   3.737458   2.895219   0.000000
    11  C    5.138874   4.961567   3.817719   1.486854   2.457254
    12  C    4.918242   5.128372   4.273489   2.517153   1.423942
    13  C    2.796029   2.436648   1.406306   1.489854   2.455202
    14  C    2.445513   2.831239   2.437476   2.522141   1.417381
    15  H    6.941271   6.443752   5.105767   2.677456   4.609204
    16  H    8.549308   8.361658   7.140064   4.648994   5.347709
    17  H    8.312354   8.534008   7.576711   5.361196   4.618025
    18  H    6.398538   6.926474   6.276629   4.658068   2.688179
    19  H    4.091489   4.874385   4.600770   3.976017   1.080802
    20  H    2.149823   3.393288   3.851702   4.665923   2.682072
    21  H    1.080482   2.147638   3.379365   5.365851   4.607289
    22  H    2.149843   1.079842   2.146597   4.644934   5.328447
    23  H    3.378641   2.144572   1.083042   2.679400   4.601649
    24  H    4.754397   4.084320   2.762219   1.100324   3.680809
    25  H    4.754397   4.084320   2.762219   1.100324   3.680809
                   11         12         13         14         15
    11  C    0.000000
    12  C    1.405242   0.000000
    13  C    2.524938   2.867222   0.000000
    14  C    2.868406   2.472742   1.409607   0.000000
    15  H    2.154572   3.413037   4.151334   4.899471   0.000000
    16  H    3.424692   3.923773   5.931360   6.194990   2.476365
    17  H    3.874913   3.419400   6.189602   5.873630   4.276762
    18  H    3.384683   2.146634   4.892068   4.099806   4.930099
    19  H    3.428595   2.169751   3.428681   2.165694   5.547895
    20  H    4.893847   4.100745   3.393043   2.148996   6.999081
    21  H    6.187969   5.870130   3.876403   3.415764   8.019614
    22  H    5.921336   6.181247   3.413623   3.911070   7.236832
    23  H    4.149504   4.893819   2.149373   3.411187   4.988242
    24  H    2.118007   3.245148   2.125960   3.253669   2.648790
    25  H    2.118007   3.245148   2.125960   3.253669   2.648790
                   16         17         18         19         20
    16  H    0.000000
    17  H    2.487205   0.000000
    18  H    4.293461   2.463439   0.000000
    19  H    5.955676   4.777284   2.470625   0.000000
    20  H    8.019179   7.181741   4.933452   2.462990   0.000000
    21  H    9.583155   9.220174   7.178862   4.767876   2.463818
    22  H    9.279831   9.573027   8.005186   5.938606   4.288733
    23  H    7.242515   8.016678   6.992042   5.542091   4.934717
    24  H    4.807928   5.800292   5.317925   4.738279   5.330884
    25  H    4.807928   5.800292   5.317925   4.738279   5.330884
                   21         22         23         24         25
    21  H    0.000000
    22  H    2.483988   0.000000
    23  H    4.278518   2.472510   0.000000
    24  H    5.814012   4.815890   2.661871   0.000000
    25  H    5.814012   4.815890   2.661871   1.725220   0.000000
 Stoichiometry    C14H11(1+)
 Framework group  CS[SG(C14H9),X(H2)]
 Deg. of freedom    46
 Full point group                 CS      NOp   2
 Largest Abelian subgroup         CS      NOp   2
 Largest concise Abelian subgroup CS      NOp   2
                         Standard orientation:                         
 ---------------------------------------------------------------------
 Center     Atomic      Atomic             Coordinates (Angstroms)
 Number     Number       Type             X           Y           Z
 ---------------------------------------------------------------------
      1          6           0        2.495323   -1.369438    0.000000
      2          6           0        3.705206   -0.688822    0.000000
      3          6           0        3.689629    0.697527    0.000000
      4          6           0        2.465504    1.395161    0.000000
      5          6           0       -2.461292    1.421018    0.000000
      6          6           0       -3.681297    0.735604    0.000000
      7          6           0       -3.702951   -0.653259    0.000000
      8          6           0       -2.500392   -1.348133    0.000000
      9          6           0       -0.004371   -1.465467    0.000000
     10          6           0        0.000000    1.429749    0.000000
     11          6           0        1.258540   -0.680742    0.000000
     12          6           0        1.236932    0.724334    0.000000
     13          6           0       -1.266388   -0.673648    0.000000
     14          6           0       -1.235784    0.735627    0.000000
     15          1           0        2.484505   -2.452517    0.000000
     16          1           0        4.638714   -1.231139    0.000000
     17          1           0        4.614754    1.255951    0.000000
     18          1           0        2.475555    2.477573    0.000000
     19          1           0        0.005149    2.510539    0.000000
     20          1           0       -2.457830    2.503334    0.000000
     21          1           0       -4.605335    1.295600    0.000000
     22          1           0       -4.641018   -1.188132    0.000000
     23          1           0       -2.503692   -2.431170    0.000000
     24          1           0       -0.001375   -2.148554    0.862610
     25          1           0       -0.001375   -2.148554   -0.862610
 ---------------------------------------------------------------------
 Rotational constants (GHZ):           2.1322579           0.4440350           0.3683071
 Standard basis: 6-311++G(d,p) (5D, 7F)
 There are   299 symmetry adapted cartesian basis functions of A'  symmetry.
 There are   100 symmetry adapted cartesian basis functions of A"  symmetry.
 There are   285 symmetry adapted basis functions of A'  symmetry.
 There are   100 symmetry adapted basis functions of A"  symmetry.
   385 basis functions,   603 primitive gaussians,   399 cartesian basis functions
    47 alpha electrons       47 beta electrons
       nuclear repulsion energy       780.6513257801 Hartrees.
 NAtoms=   25 NActive=   25 NUniq=   24 SFac= 1.09D+00 NAtFMM=   60 NAOKFM=F Big=F
 Integral buffers will be    131072 words long.
 Regular integral format.
 Two-electron integral symmetry is turned on.
 Nuclear repulsion after empirical dispersion term =      780.6503461194 Hartrees.
 One-electron integrals computed using PRISM.
 NBasis=   385 RedAO= T EigKep=  1.15D-06  NBF=   285   100
 NBsUse=   379 1.00D-06 EigRej=  8.46D-07 NBFU=   279   100
 ExpMin= 3.60D-02 ExpMax= 4.56D+03 ExpMxC= 6.82D+02 IAcc=3 IRadAn=         5 AccDes= 0.00D+00
 Harris functional with IExCor= 1009 and IRadAn=       5 diagonalized for initial guess.
 HarFok:  IExCor= 1009 AccDes= 0.00D+00 IRadAn=         5 IDoV= 1 UseB2=F ITyADJ=14
 ICtDFT=  3500011 ScaDFX=  1.000000  1.000000  1.000000  1.000000
 FoFCou: FMM=F IPFlag=           0 FMFlag=      100000 FMFlg1=           0
         NFxFlg=           0 DoJE=T BraDBF=F KetDBF=T FulRan=T
         wScrn=  0.000000 ICntrl=       500 IOpCl=  0 I1Cent=   200000004 NGrid=           0
         NMat0=    1 NMatS0=      1 NMatT0=    0 NMatD0=    1 NMtDS0=    0 NMtDT0=    0
 Petite list used in FoFCou.
 Initial guess orbital symmetries:
       Occupied  (A') (A') (A') (A') (A') (A') (A') (A') (A') (A')
                 (A') (A') (A') (A') (A') (A') (A') (A') (A') (A')
                 (A') (A') (A') (A') (A') (A') (A') (A') (A') (A')
                 (A') (A') (A") (A') (A') (A') (A') (A') (A') (A")
                 (A") (A') (A') (A") (A") (A") (A")
       Virtual   (A") (A") (A") (A") (A") (A') (A') (A') (A') (A")
                 (A") (A') (A') (A') (A") (A') (A') (A') (A') (A")
                 (A') (A") (A') (A') (A') (A") (A') (A") (A') (A')
                 (A') (A') (A') (A') (A") (A') (A") (A') (A') (A")
                 (A') (A') (A') (A") (A') (A') (A') (A') (A') (A")
                 (A') (A') (A") (A") (A') (A') (A') (A") (A") (A')
                 (A') (A') (A') (A') (A') (A') (A") (A') (A') (A")
                 (A') (A') (A') (A') (A') (A') (A') (A') (A') (A')
                 (A') (A') (A') (A') (A') (A') (A') (A') (A') (A')
                 (A') (A') (A') (A') (A') (A') (A') (A") (A') (A")
                 (A') (A') (A") (A") (A') (A") (A') (A") (A') (A")
                 (A") (A') (A') (A') (A") (A') (A') (A") (A') (A")
                 (A") (A") (A') (A') (A') (A") (A') (A') (A') (A")
                 (A') (A') (A') (A') (A') (A') (A") (A') (A') (A')
                 (A') (A') (A') (A') (A') (A') (A') (A') (A') (A")
                 (A') (A") (A") (A") (A') (A') (A') (A") (A") (A')
                 (A") (A') (A") (A") (A") (A') (A') (A') (A') (A')
                 (A') (A") (A") (A') (A') (A') (A') (A') (A') (A")
                 (A') (A') (A') (A') (A') (A") (A") (A') (A") (A")
                 (A') (A") (A') (A") (A') (A') (A') (A") (A') (A')
                 (A") (A") (A") (A') (A') (A") (A') (A") (A') (A')
                 (A") (A") (A') (A") (A') (A") (A') (A') (A') (A')
                 (A") (A') (A') (A') (A") (A') (A') (A') (A") (A")
                 (A') (A') (A') (A") (A') (A') (A") (A') (A") (A')
                 (A") (A') (A') (A') (A') (A") (A') (A') (A') (A")
                 (A') (A') (A") (A') (A") (A') (A') (A") (A') (A')
                 (A') (A") (A') (A") (A') (A') (A') (A") (A') (A")
                 (A') (A') (A') (A') (A") (A') (A") (A') (A") (A')
                 (A") (A') (A") (A") (A") (A') (A') (A') (A') (A')
                 (A') (A') (A') (A') (A') (A') (A') (A') (A') (A')
                 (A') (A') (A') (A') (A') (A") (A') (A') (A') (A')
                 (A') (A') (A') (A') (A') (A') (A') (A') (A') (A')
                 (A') (A') (A') (A') (A') (A') (A') (A') (A') (A')
                 (A') (A')
 The electronic state of the initial guess is 1-A'.
 Requested convergence on RMS density matrix=1.00D-08 within 128 cycles.
 Requested convergence on MAX density matrix=1.00D-06.
 Requested convergence on             energy=1.00D-06.
 No special actions if energy rises.
 SCF Done:  E(RM062X) =  -539.760141843     A.U. after   15 cycles
            NFock= 15  Conv=0.45D-08     -V/T= 2.0042
 DoSCS=F DFT=T ScalE2(SS,OS)=  1.000000  1.000000
 ExpMin= 3.60D-02 ExpMax= 4.56D+03 ExpMxC= 6.82D+02 IAcc=3 IRadAn=         5 AccDes= 0.00D+00
 HarFok:  IExCor=  205 AccDes= 0.00D+00 IRadAn=         5 IDoV=-2 UseB2=F ITyADJ=14
 ICtDFT= 12500011 ScaDFX=  1.000000  1.000000  1.000000  1.000000
 Range of M.O.s used for correlation:    15   379
 NBasis=   385 NAE=    47 NBE=    47 NFC=    14 NFV=     0
 NROrb=    365 NOA=    33 NOB=    33 NVA=   332 NVB=   332

 **** Warning!!: The largest alpha MO coefficient is  0.13920088D+03

 Orbital symmetries:
       Occupied  (A') (A') (A') (A') (A') (A') (A') (A') (A') (A')
                 (A') (A') (A') (A') (A') (A') (A') (A') (A') (A')
                 (A') (A') (A') (A') (A') (A') (A') (A') (A') (A')
                 (A') (A') (A") (A') (A') (A') (A') (A") (A") (A')
                 (A') (A') (A') (A") (A") (A") (A")
       Virtual   (A") (A") (A") (A") (A') (A') (A') (A") (A') (A')
                 (A') (A") (A') (A') (A") (A') (A") (A') (A') (A')
                 (A") (A") (A') (A') (A') (A") (A') (A") (A') (A')
                 (A") (A') (A") (A') (A') (A') (A') (A') (A") (A')
                 (A") (A') (A') (A") (A") (A') (A") (A') (A") (A')
                 (A') (A') (A') (A') (A') (A") (A') (A') (A') (A')
                 (A') (A") (A') (A') (A') (A') (A") (A') (A') (A')
                 (A') (A') (A') (A') (A') (A') (A') (A') (A') (A')
                 (A') (A') (A') (A') (A') (A') (A') (A') (A') (A')
                 (A') (A') (A') (A') (A") (A') (A") (A") (A') (A")
                 (A') (A') (A') (A') (A") (A") (A') (A") (A") (A')
                 (A') (A') (A") (A') (A') (A") (A') (A") (A') (A")
                 (A") (A') (A") (A') (A') (A') (A") (A') (A') (A')
                 (A') (A') (A') (A') (A') (A') (A') (A') (A') (A')
                 (A') (A') (A') (A") (A') (A') (A') (A') (A') (A')
                 (A') (A') (A") (A') (A") (A') (A") (A") (A') (A")
                 (A") (A') (A') (A") (A") (A") (A') (A") (A') (A')
                 (A') (A') (A') (A") (A") (A') (A') (A') (A') (A")
                 (A') (A') (A') (A") (A') (A") (A') (A') (A") (A")
                 (A") (A') (A') (A") (A") (A') (A') (A') (A') (A')
                 (A") (A") (A") (A') (A') (A") (A') (A") (A') (A')
                 (A') (A") (A') (A") (A") (A') (A") (A') (A') (A")
                 (A') (A') (A') (A') (A") (A') (A') (A') (A") (A")
                 (A') (A') (A') (A") (A') (A') (A') (A") (A") (A')
                 (A") (A') (A') (A") (A') (A') (A') (A') (A') (A')
                 (A') (A") (A') (A') (A') (A") (A") (A") (A') (A')
                 (A') (A') (A') (A') (A') (A') (A") (A') (A') (A')
                 (A') (A") (A') (A") (A") (A") (A') (A") (A') (A")
                 (A') (A") (A") (A') (A") (A") (A') (A') (A') (A')
                 (A') (A') (A') (A') (A') (A') (A') (A') (A') (A')
                 (A') (A') (A') (A') (A") (A') (A') (A') (A') (A')
                 (A') (A') (A') (A') (A') (A') (A') (A') (A') (A')
                 (A') (A') (A') (A') (A') (A') (A') (A') (A') (A')
                 (A') (A')
     4 initial guesses have been made.
 Convergence on wavefunction:    0.001000000000000
 Iteration     1 Dimension     4 NMult     0 NNew      4
 CISAX will form     4 AO SS matrices at one time.
 Iteration     2 Dimension     6 NMult     4 NNew      2
 Iteration     3 Dimension     8 NMult     6 NNew      2
 Iteration     4 Dimension    10 NMult     8 NNew      2
 Iteration     5 Dimension    12 NMult    10 NNew      2
 Iteration     6 Dimension    14 NMult    12 NNew      2
 ***********************************************************************
 Excited states from <AA,BB:AA,BB> singles matrix:
 ***********************************************************************
 
 Ground to excited state transition densities written to RWF  633
 Ground to excited state transition electric dipole moments (Au):
       state          X           Y           Z        Dip. S.      Osc.
         1         0.0029     -0.6343      0.0000      0.4023      0.0278
 Ground to excited state transition velocity dipole moments (Au):
       state          X           Y           Z        Dip. S.      Osc.
         1         0.0005      0.0734     -0.0000      0.0054      0.0346
 Ground to excited state transition magnetic dipole moments (Au):
       state          X           Y           Z
         1        -0.0000      0.0000      0.0499
 Ground to excited state transition velocity quadrupole moments (Au):
       state          XX          YY          ZZ          XY          XZ          YZ
         1         0.2988      0.0355     -0.0098      0.0188      0.0000      0.0000
 <0|del|b> * <b|rxdel|0> + <0|del|b> * <b|delr+rdel|0>
 Rotatory Strengths (R) in cgs (10**-40 erg-esu-cm/Gauss)
       state          XX          YY          ZZ    R(velocity)    E-M Angle
         1        -0.0000     -0.0000      0.0000     -0.0000       90.00
 1/2[<0|r|b>*<b|rxdel|0> + (<0|rxdel|b>*<b|r|0>)*]
 Rotatory Strengths (R) in cgs (10**-40 erg-esu-cm/Gauss)
       state          XX          YY          ZZ     R(length)
         1         0.0000      0.0000     -0.0000     -0.0000
  1/2[<0|del|b>*<b|r|0> + (<0|r|b>*<b|del|0>)*] (Au)
       state          X           Y           Z        Dip. S.   Osc.(frdel)
         1         0.0000     -0.0465     -0.0000      0.0465      0.0310

 Excitation energies and oscillator strengths:
 
 Excited State   1:      Singlet-A'     2.8200 eV  439.66 nm  f=0.0278  <S**2>=0.000
      47 -> 48         0.70422
 This state for optimization and/or second-order correction.
 Total Energy, E(TD-HF/TD-DFT) =  -539.656508981    
 Copying the excited state density for this state as the 1-particle RhoCI density.
 SavETr:  write IOETrn=   770 NScale= 10 NData=  16 NLR=1 NState=    1 LETran=      28.

 **********************************************************************

            Population analysis using the SCF Density.

 **********************************************************************

 Orbital symmetries:
       Occupied  (A') (A') (A') (A') (A') (A') (A') (A') (A') (A')
                 (A') (A') (A') (A') (A') (A') (A') (A') (A') (A')
                 (A') (A') (A') (A') (A') (A') (A') (A') (A') (A')
                 (A') (A') (A") (A') (A') (A') (A') (A") (A") (A')
                 (A') (A') (A') (A") (A") (A") (A")
       Virtual   (A") (A") (A") (A") (A') (A') (A') (A") (A') (A')
                 (A') (A") (A') (A') (A") (A') (A") (A') (A') (A')
                 (A") (A") (A') (A') (A') (A") (A') (A") (A') (A')
                 (A") (A') (A") (A') (A') (A') (A') (A') (A") (A')
                 (A") (A') (A') (A") (A") (A') (A") (A') (A") (A')
                 (A') (A') (A') (A') (A') (A") (A') (A') (A') (A')
                 (A') (A") (A') (A') (A') (A') (A") (A') (A') (A')
                 (A') (A') (A') (A') (A') (A') (A') (A') (A') (A')
                 (A') (A') (A') (A') (A') (A') (A') (A') (A') (A')
                 (A') (A') (A') (A') (A") (A') (A") (A") (A') (A")
                 (A') (A') (A') (A') (A") (A") (A') (A") (A") (A')
                 (A') (A') (A") (A') (A') (A") (A') (A") (A') (A")
                 (A") (A') (A") (A') (A') (A') (A") (A') (A') (A')
                 (A') (A') (A') (A') (A') (A') (A') (A') (A') (A')
                 (A') (A') (A') (A") (A') (A') (A') (A') (A') (A')
                 (A') (A') (A") (A') (A") (A') (A") (A") (A') (A")
                 (A") (A') (A') (A") (A") (A") (A') (A") (A') (A')
                 (A') (A') (A') (A") (A") (A') (A') (A') (A') (A")
                 (A') (A') (A') (A") (A') (A") (A') (A') (A") (A")
                 (A") (A') (A') (A") (A") (A') (A') (A') (A') (A')
                 (A") (A") (A") (A') (A') (A") (A') (A") (A') (A')
                 (A') (A") (A') (A") (A") (A') (A") (A') (A') (A")
                 (A') (A') (A') (A') (A") (A') (A') (A') (A") (A")
                 (A') (A') (A') (A") (A') (A') (A') (A") (A") (A')
                 (A") (A') (A') (A") (A') (A') (A') (A') (A') (A')
                 (A') (A") (A') (A') (A') (A") (A") (A") (A') (A')
                 (A') (A') (A') (A') (A') (A') (A") (A') (A') (A')
                 (A') (A") (A') (A") (A") (A") (A') (A") (A') (A")
                 (A') (A") (A") (A') (A") (A") (A') (A') (A') (A')
                 (A') (A') (A') (A') (A') (A') (A') (A') (A') (A')
                 (A') (A') (A') (A') (A") (A') (A') (A') (A') (A')
                 (A') (A') (A') (A') (A') (A') (A') (A') (A') (A')
                 (A') (A') (A') (A') (A') (A') (A') (A') (A') (A')
                 (A') (A')
 The electronic state is 1-A'.
 Alpha  occ. eigenvalues --  -10.77688 -10.73385 -10.73240 -10.72518 -10.72400
 Alpha  occ. eigenvalues --  -10.71444 -10.71307 -10.71122 -10.71019 -10.70865
 Alpha  occ. eigenvalues --  -10.70007 -10.69941 -10.69689 -10.69607  -1.16375
 Alpha  occ. eigenvalues --   -1.12419  -1.06946  -1.05617  -1.01312  -1.00107
 Alpha  occ. eigenvalues --   -0.95788  -0.91028  -0.86409  -0.85876  -0.83794
 Alpha  occ. eigenvalues --   -0.78387  -0.75965  -0.74410  -0.69597  -0.69231
 Alpha  occ. eigenvalues --   -0.68476  -0.68161  -0.68126  -0.64734  -0.64251
 Alpha  occ. eigenvalues --   -0.62954  -0.61854  -0.60096  -0.59635  -0.59109
 Alpha  occ. eigenvalues --   -0.56861  -0.55233  -0.54779  -0.52447  -0.46599
 Alpha  occ. eigenvalues --   -0.46058  -0.44524
 Alpha virt. eigenvalues --   -0.26115  -0.14662  -0.14100  -0.12778  -0.11175
 Alpha virt. eigenvalues --   -0.10078  -0.09231  -0.07984  -0.07982  -0.07474
 Alpha virt. eigenvalues --   -0.07194  -0.07140  -0.05647  -0.05577  -0.05327
 Alpha virt. eigenvalues --   -0.03826  -0.03644  -0.03277  -0.03138  -0.02169
 Alpha virt. eigenvalues --   -0.01363  -0.00928   0.00204   0.00592   0.00622
 Alpha virt. eigenvalues --    0.01053   0.01517   0.01951   0.02207   0.02309
 Alpha virt. eigenvalues --    0.02449   0.02665   0.02738   0.03359   0.03421
 Alpha virt. eigenvalues --    0.04245   0.04494   0.04702   0.05037   0.05367
 Alpha virt. eigenvalues --    0.06041   0.06284   0.06592   0.07019   0.07266
 Alpha virt. eigenvalues --    0.07887   0.08151   0.08346   0.08512   0.08928
 Alpha virt. eigenvalues --    0.09534   0.09557   0.10015   0.10833   0.10957
 Alpha virt. eigenvalues --    0.11128   0.12144   0.12232   0.12894   0.12937
 Alpha virt. eigenvalues --    0.13400   0.13528   0.13995   0.14398   0.16133
 Alpha virt. eigenvalues --    0.16267   0.16452   0.17342   0.17606   0.17791
 Alpha virt. eigenvalues --    0.18101   0.19110   0.19248   0.19603   0.19706
 Alpha virt. eigenvalues --    0.21484   0.21570   0.22705   0.23074   0.23526
 Alpha virt. eigenvalues --    0.23898   0.24630   0.25501   0.26920   0.27582
 Alpha virt. eigenvalues --    0.28804   0.29264   0.29805   0.31327   0.35729
 Alpha virt. eigenvalues --    0.36373   0.38195   0.39266   0.41138   0.41406
 Alpha virt. eigenvalues --    0.41900   0.42248   0.42986   0.43616   0.44288
 Alpha virt. eigenvalues --    0.44958   0.45008   0.46072   0.46159   0.48022
 Alpha virt. eigenvalues --    0.48519   0.48810   0.49053   0.50405   0.50970
 Alpha virt. eigenvalues --    0.51433   0.51633   0.52119   0.52834   0.53963
 Alpha virt. eigenvalues --    0.54095   0.54576   0.55687   0.55754   0.57683
 Alpha virt. eigenvalues --    0.58236   0.58806   0.61416   0.62257   0.62322
 Alpha virt. eigenvalues --    0.63186   0.63481   0.64842   0.65134   0.67091
 Alpha virt. eigenvalues --    0.70460   0.70673   0.70973   0.72376   0.72839
 Alpha virt. eigenvalues --    0.75794   0.75999   0.76240   0.76901   0.77086
 Alpha virt. eigenvalues --    0.77801   0.77826   0.78173   0.79919   0.80375
 Alpha virt. eigenvalues --    0.81187   0.81695   0.82148   0.82993   0.85120
 Alpha virt. eigenvalues --    0.87108   0.88079   0.88530   0.89144   0.90373
 Alpha virt. eigenvalues --    0.90961   0.91280   0.93186   0.94596   0.96395
 Alpha virt. eigenvalues --    0.96654   1.00437   1.01223   1.01709   1.02696
 Alpha virt. eigenvalues --    1.03182   1.03756   1.04726   1.05489   1.08709
 Alpha virt. eigenvalues --    1.19504   1.23299   1.23991   1.25172   1.27796
 Alpha virt. eigenvalues --    1.29794   1.31675   1.34413   1.35717   1.35984
 Alpha virt. eigenvalues --    1.39270   1.40120   1.40900   1.43130   1.43384
 Alpha virt. eigenvalues --    1.43496   1.44986   1.45415   1.46321   1.46657
 Alpha virt. eigenvalues --    1.47636   1.47948   1.51600   1.53580   1.55376
 Alpha virt. eigenvalues --    1.55845   1.56309   1.56620   1.57701   1.61333
 Alpha virt. eigenvalues --    1.63311   1.63536   1.63828   1.66042   1.68165
 Alpha virt. eigenvalues --    1.68359   1.68763   1.69785   1.74285   1.75938
 Alpha virt. eigenvalues --    1.77066   1.78042   1.79769   1.80049   1.80645
 Alpha virt. eigenvalues --    1.83083   1.83228   1.83511   1.83844   1.84220
 Alpha virt. eigenvalues --    1.84232   1.85872   1.86039   1.88187   1.91342
 Alpha virt. eigenvalues --    1.91997   1.94073   1.95122   1.97657   1.98093
 Alpha virt. eigenvalues --    1.99649   2.02022   2.04283   2.07259   2.11771
 Alpha virt. eigenvalues --    2.11959   2.14091   2.15229   2.18952   2.21036
 Alpha virt. eigenvalues --    2.22775   2.28773   2.29766   2.34497   2.34866
 Alpha virt. eigenvalues --    2.36214   2.38680   2.39591   2.42310   2.45220
 Alpha virt. eigenvalues --    2.46011   2.46109   2.49283   2.52825   2.53756
 Alpha virt. eigenvalues --    2.53946   2.56998   2.57817   2.58303   2.59595
 Alpha virt. eigenvalues --    2.59797   2.61549   2.62070   2.63480   2.63694
 Alpha virt. eigenvalues --    2.64759   2.65049   2.65207   2.65282   2.67677
 Alpha virt. eigenvalues --    2.68335   2.70911   2.71412   2.73322   2.74791
 Alpha virt. eigenvalues --    2.76306   2.78385   2.79654   2.82538   2.83013
 Alpha virt. eigenvalues --    2.84812   2.86144   2.92045   2.97054   2.99458
 Alpha virt. eigenvalues --    2.99983   3.04512   3.10706   3.11166   3.12952
 Alpha virt. eigenvalues --    3.20682   3.22659   3.26457   3.28055   3.30698
 Alpha virt. eigenvalues --    3.32788   3.33532   3.43420   3.45855   3.46214
 Alpha virt. eigenvalues --    3.48176   3.49878   3.56206   3.66409   3.67143
 Alpha virt. eigenvalues --    3.67326   3.94182   3.94565   3.95233   3.96136
 Alpha virt. eigenvalues --    4.03967   4.06779   4.07294   4.12573   4.35069
 Alpha virt. eigenvalues --    4.60520   4.69624   4.71508  23.45356  23.60346
 Alpha virt. eigenvalues --   23.82002  23.84814  23.87475  23.89067  23.90627
 Alpha virt. eigenvalues --   23.92330  23.97235  23.99165  23.99862  24.00388
 Alpha virt. eigenvalues --   24.10464  24.10605
          Condensed to atoms (all electrons):
               1          2          3          4          5          6
     1  C    8.777806   0.127832  -0.488377   2.200140  -0.077047  -0.098902
     2  C    0.127832   7.240357   0.313968  -1.183818   0.000395  -0.013566
     3  C   -0.488377   0.313968   6.596685   0.800837  -0.132126   0.016955
     4  C    2.200140  -1.183818   0.800837  11.242060  -0.454751  -0.127966
     5  C   -0.077047   0.000395  -0.132126  -0.454751  11.362692   0.784515
     6  C   -0.098902  -0.013566   0.016955  -0.127966   0.784515   6.596958
     7  C   -0.005231  -0.001634  -0.013833  -0.007408  -1.153695   0.339698
     8  C    0.396912  -0.009702  -0.096178  -0.063970   2.129732  -0.527597
     9  C   -1.036553  -0.835728   0.305421  -0.179442  -0.116183   0.305437
    10  C   -1.360777   0.284005  -0.356307  -2.574461  -2.633052  -0.332272
    11  C    0.343652  -0.871799   1.001348  -0.365152  -1.529014  -0.176257
    12  C   -2.483297   1.492216  -1.455368  -1.803555  -0.360344  -0.185090
    13  C    0.298168  -0.251843  -0.160257  -1.503801  -0.369134   0.971032
    14  C   -1.097108  -0.163358  -0.209460  -0.328793  -1.805477  -1.431447
    15  H    0.372067  -0.111024  -0.000069   0.029350   0.005119   0.001088
    16  H   -0.018892   0.380472  -0.017523   0.012830  -0.001485  -0.000325
    17  H   -0.029058  -0.014298   0.374768  -0.069551   0.000340   0.000407
    18  H    0.053417   0.002531  -0.084365   0.463996   0.004463  -0.005286
    19  H   -0.046882  -0.007981   0.052223  -0.067814  -0.070540   0.052150
    20  H    0.006774   0.002203  -0.005254   0.004448   0.465823  -0.084248
    21  H   -0.001317  -0.000399   0.000411   0.000300  -0.070128   0.376711
    22  H    0.000808   0.000381  -0.000334  -0.001541   0.013773  -0.018808
    23  H    0.005156  -0.002590   0.001123   0.005402   0.028709  -0.000727
    24  H    0.034171   0.014631  -0.001709  -0.012177  -0.011902  -0.001638
    25  H    0.034171   0.014631  -0.001709  -0.012177  -0.011902  -0.001638
               7          8          9         10         11         12
     1  C   -0.005231   0.396912  -1.036553  -1.360777   0.343652  -2.483297
     2  C   -0.001634  -0.009702  -0.835728   0.284005  -0.871799   1.492216
     3  C   -0.013833  -0.096178   0.305421  -0.356307   1.001348  -1.455368
     4  C   -0.007408  -0.063970  -0.179442  -2.574461  -0.365152  -1.803555
     5  C   -1.153695   2.129732  -0.116183  -2.633052  -1.529014  -0.360344
     6  C    0.339698  -0.527597   0.305437  -0.332272  -0.176257  -0.185090
     7  C    7.237830   0.205265  -0.847624   0.257981  -0.238182  -0.194583
     8  C    0.205265   8.682181  -1.037790  -1.336111   0.282397  -1.107298
     9  C   -0.847624  -1.037790   9.486034   0.274957   1.374811  -1.789345
    10  C    0.257981  -1.336111   0.274957   9.002364  -0.293514   2.412022
    11  C   -0.238182   0.282397   1.374811  -0.293514  14.208713  -3.601389
    12  C   -0.194583  -1.107298  -1.789345   2.412022  -3.601389  16.023195
    13  C   -0.844934   0.350641   1.393980  -0.272018   1.124716  -4.707889
    14  C    1.391645  -2.368926  -1.842472   2.401536  -4.691834   3.271886
    15  H   -0.002501   0.005410   0.090621  -0.009831  -0.031226  -0.026417
    16  H    0.000369   0.000721   0.002062  -0.008499   0.023000  -0.029580
    17  H   -0.000406  -0.001293  -0.005415   0.019941  -0.025564   0.094412
    18  H    0.002188   0.006781  -0.024103   0.008098  -0.002626  -0.061309
    19  H   -0.008103  -0.046326   0.074250   0.421336   0.077880  -0.063276
    20  H    0.002838   0.052444  -0.023614   0.007003  -0.012119  -0.017200
    21  H   -0.016473  -0.027234  -0.005197   0.019958  -0.006189   0.005335
    22  H    0.381870  -0.019453   0.001718  -0.008848   0.003016  -0.009188
    23  H   -0.110706   0.371503   0.089597  -0.009381   0.000621   0.006413
    24  H    0.015054   0.035499   0.353338   0.004896   0.012600  -0.061012
    25  H    0.015054   0.035499   0.353338   0.004896   0.012600  -0.061012
              13         14         15         16         17         18
     1  C    0.298168  -1.097108   0.372067  -0.018892  -0.029058   0.053417
     2  C   -0.251843  -0.163358  -0.111024   0.380472  -0.014298   0.002531
     3  C   -0.160257  -0.209460  -0.000069  -0.017523   0.374768  -0.084365
     4  C   -1.503801  -0.328793   0.029350   0.012830  -0.069551   0.463996
     5  C   -0.369134  -1.805477   0.005119  -0.001485   0.000340   0.004463
     6  C    0.971032  -1.431447   0.001088  -0.000325   0.000407  -0.005286
     7  C   -0.844934   1.391645  -0.002501   0.000369  -0.000406   0.002188
     8  C    0.350641  -2.368926   0.005410   0.000721  -0.001293   0.006781
     9  C    1.393980  -1.842472   0.090621   0.002062  -0.005415  -0.024103
    10  C   -0.272018   2.401536  -0.009831  -0.008499   0.019941   0.008098
    11  C    1.124716  -4.691834  -0.031226   0.023000  -0.025564  -0.002626
    12  C   -4.707889   3.271886  -0.026417  -0.029580   0.094412  -0.061309
    13  C   14.254058  -3.713463   0.002136   0.002866  -0.006169  -0.012061
    14  C   -3.713463  16.091143   0.005949  -0.008789   0.005330  -0.015371
    15  H    0.002136   0.005949   0.440682  -0.009152   0.001448   0.000114
    16  H    0.002866  -0.008789  -0.009152   0.420375  -0.006533   0.001941
    17  H   -0.006169   0.005330   0.001448  -0.006533   0.422832  -0.010469
    18  H   -0.012061  -0.015371   0.000114   0.001941  -0.010469   0.455512
    19  H    0.077362  -0.068793   0.000323  -0.000550   0.001408  -0.006492
    20  H   -0.003546  -0.058823  -0.000115   0.000016  -0.000143   0.001226
    21  H   -0.025425   0.092871   0.000014  -0.000007   0.000011  -0.000150
    22  H    0.022862  -0.029113  -0.000129   0.000008  -0.000007   0.000017
    23  H   -0.030613  -0.023112   0.000528  -0.000128   0.000015  -0.000118
    24  H    0.015696  -0.061008  -0.000939   0.000638  -0.000146   0.000201
    25  H    0.015696  -0.061008  -0.000939   0.000638  -0.000146   0.000201
              19         20         21         22         23         24
     1  C   -0.046882   0.006774  -0.001317   0.000808   0.005156   0.034171
     2  C   -0.007981   0.002203  -0.000399   0.000381  -0.002590   0.014631
     3  C    0.052223  -0.005254   0.000411  -0.000334   0.001123  -0.001709
     4  C   -0.067814   0.004448   0.000300  -0.001541   0.005402  -0.012177
     5  C   -0.070540   0.465823  -0.070128   0.013773   0.028709  -0.011902
     6  C    0.052150  -0.084248   0.376711  -0.018808  -0.000727  -0.001638
     7  C   -0.008103   0.002838  -0.016473   0.381870  -0.110706   0.015054
     8  C   -0.046326   0.052444  -0.027234  -0.019453   0.371503   0.035499
     9  C    0.074250  -0.023614  -0.005197   0.001718   0.089597   0.353338
    10  C    0.421336   0.007003   0.019958  -0.008848  -0.009381   0.004896
    11  C    0.077880  -0.012119  -0.006189   0.003016   0.000621   0.012600
    12  C   -0.063276  -0.017200   0.005335  -0.009188   0.006413  -0.061012
    13  C    0.077362  -0.003546  -0.025425   0.022862  -0.030613   0.015696
    14  C   -0.068793  -0.058823   0.092871  -0.029113  -0.023112  -0.061008
    15  H    0.000323  -0.000115   0.000014  -0.000129   0.000528  -0.000939
    16  H   -0.000550   0.000016  -0.000007   0.000008  -0.000128   0.000638
    17  H    0.001408  -0.000143   0.000011  -0.000007   0.000015  -0.000146
    18  H   -0.006492   0.001226  -0.000150   0.000017  -0.000118   0.000201
    19  H    0.443072  -0.006334   0.001492  -0.000568   0.000349   0.000546
    20  H   -0.006334   0.454031  -0.010432   0.001952   0.000141   0.000190
    21  H    0.001492  -0.010432   0.422147  -0.006697   0.001512  -0.000144
    22  H   -0.000568   0.001952  -0.006697   0.419492  -0.009154   0.000637
    23  H    0.000349   0.000141   0.001512  -0.009154   0.439218  -0.000949
    24  H    0.000546   0.000190  -0.000144   0.000637  -0.000949   0.492135
    25  H    0.000546   0.000190  -0.000144   0.000637  -0.000949  -0.077408
              25
     1  C    0.034171
     2  C    0.014631
     3  C   -0.001709
     4  C   -0.012177
     5  C   -0.011902
     6  C   -0.001638
     7  C    0.015054
     8  C    0.035499
     9  C    0.353338
    10  C    0.004896
    11  C    0.012600
    12  C   -0.061012
    13  C    0.015696
    14  C   -0.061008
    15  H   -0.000939
    16  H    0.000638
    17  H   -0.000146
    18  H    0.000201
    19  H    0.000546
    20  H    0.000190
    21  H   -0.000144
    22  H    0.000637
    23  H   -0.000949
    24  H   -0.077408
    25  H    0.492135
 Mulliken charges:
               1
     1  C    0.092365
     2  C   -0.405883
     3  C   -0.440873
     4  C   -0.002987
     5  C    0.001218
     6  C   -0.439182
     7  C   -0.404479
     8  C    0.086895
     9  C   -0.362099
    10  C    0.076078
    11  C   -0.620490
    12  C    0.711674
    13  C   -0.628057
    14  C    0.717997
    15  H    0.237493
    16  H    0.255528
    17  H    0.248285
    18  H    0.221662
    19  H    0.190724
    20  H    0.222549
    21  H    0.249175
    22  H    0.256668
    23  H    0.238140
    24  H    0.248800
    25  H    0.248800
 Sum of Mulliken charges =   1.00000
 Mulliken charges with hydrogens summed into heavy atoms:
               1
     1  C    0.329858
     2  C   -0.150355
     3  C   -0.192588
     4  C    0.218675
     5  C    0.223767
     6  C   -0.190007
     7  C   -0.147811
     8  C    0.325035
     9  C    0.135501
    10  C    0.266802
    11  C   -0.620490
    12  C    0.711674
    13  C   -0.628057
    14  C    0.717997
 Electronic spatial extent (au):  <R**2>=           2859.6329
 Charge=              1.0000 electrons
 Dipole moment (field-independent basis, Debye):
    X=             -0.1393    Y=              0.1975    Z=             -0.0000  Tot=              0.2417
 Quadrupole moment (field-independent basis, Debye-Ang):
   XX=            -31.0535   YY=            -56.2795   ZZ=            -84.1441
   XY=             -0.1768   XZ=             -0.0000   YZ=             -0.0000
 Traceless Quadrupole moment (field-independent basis, Debye-Ang):
   XX=             26.1056   YY=              0.8795   ZZ=            -26.9851
   XY=             -0.1768   XZ=             -0.0000   YZ=             -0.0000
 Octapole moment (field-independent basis, Debye-Ang**2):
  XXX=             -1.5173  YYY=              5.3278  ZZZ=             -0.0000  XYY=             -0.2839
  XXY=             -5.1797  XXZ=             -0.0000  XZZ=             -0.2173  YZZ=             -3.1358
  YYZ=             -0.0000  XYZ=              0.0000
 Hexadecapole moment (field-independent basis, Debye-Ang**3):
 XXXX=          -2123.5789 YYYY=           -610.5686 ZZZZ=            -99.3589 XXXY=              3.1090
 XXXZ=              0.0000 YYYX=              4.8789 YYYZ=             -0.0000 ZZZX=              0.0000
 ZZZY=             -0.0000 XXYY=           -508.4760 XXZZ=           -591.5531 YYZZ=           -145.8452
 XXYZ=             -0.0000 YYXZ=              0.0000 ZZXY=              2.3812
 N-N= 7.806503461194D+02 E-N=-2.797624018557D+03  KE= 5.374772682133D+02
 Symmetry A'   KE= 5.228299221246D+02
 Symmetry A"   KE= 1.464734608873D+01
 Unable to Open any file for archive entry.
 1\1\GINC-GADI-CPU-CLX-1762\SP\RM062X TD-FC\6-311++G(d,p)\C14H11(1+)\TS
 1578\02-Aug-2022\0\\#n M062X/6-311++G(d,p) TD(NStates=1) EmpiricalDisp
 ersion=GD3 SP\\SP_125\\1,1\C,0,2.501305,1.358631,0.\C,0,3.708233,0.672
 789,0.\C,0,3.686661,-0.71348,0.\C,0,2.459531,-1.405813,0.\C,0,-2.46733
 1,-1.410363,0.\C,0,-3.684361,-0.71968,0.\C,0,-3.700008,0.669264,0.\C,0
 ,-2.494455,1.358931,0.\C,0,0.00205,1.465469,0.\C,0,-0.0061,-1.429739,0
 .\C,0,1.261555,0.67529,0.\C,0,1.233871,-0.729679,0.\C,0,-1.26338,0.679
 115,0.\C,0,-1.238871,-0.730279,0.\H,0,2.495171,2.441747,0.\H,0,4.64407
 8,1.211064,0.\H,0,4.609362,-1.275899,0.\H,0,2.4649,-2.488259,0.\H,0,-0
 .005625,-2.510541,0.\H,0,-2.46855,-2.492684,0.\H,0,-4.610812,-1.275674
 ,0.\H,0,-4.635753,1.208189,0.\H,0,-2.493071,2.441972,0.\H,0,0.008,2.14
 8537,-0.86261\H,0,0.008,2.148537,0.86261\\Version=ES64L-G16RevC.01\Sta
 te=1-A'\HF=-539.7601418\RMSD=4.467e-09\PG=CS [SG(C14H9),X(H2)]\\@
 The archive entry for this job was punched.


 EDUCATION IS NOT TRAINING BUT RATHER THE PROCESS THAT EQUIPS YOU TO
 ENTERTAIN YOURSELF, A FRIEND, OR AN IDEA.  -- WALLACE STERLING
 Job cpu time:       0 days  0 hours 51 minutes 16.8 seconds.
 Elapsed time:       0 days  0 hours  1 minutes  4.3 seconds.
 File lengths (MBytes):  RWF=    460 Int=      0 D2E=      0 Chk=     15 Scr=      1
 Normal termination of Gaussian 16 at Tue Aug  2 13:24:29 2022.
