 Entering Gaussian System, Link 0=g16
 Initial command:
 /apps/gaussian/g16c01/g16/l1.exe "/jobfs/53796104.gadi-pbs/Gau-3658068.inp" -scrdir="/jobfs/53796104.gadi-pbs/"
 Entering Link 1 = /apps/gaussian/g16c01/g16/l1.exe PID=   3658069.
  
 Copyright (c) 1988-2019, Gaussian, Inc.  All Rights Reserved.
  
 This is part of the Gaussian(R) 16 program.  It is based on
 the Gaussian(R) 09 system (copyright 2009, Gaussian, Inc.),
 the Gaussian(R) 03 system (copyright 2003, Gaussian, Inc.),
 the Gaussian(R) 98 system (copyright 1998, Gaussian, Inc.),
 the Gaussian(R) 94 system (copyright 1995, Gaussian, Inc.),
 the Gaussian 92(TM) system (copyright 1992, Gaussian, Inc.),
 the Gaussian 90(TM) system (copyright 1990, Gaussian, Inc.),
 the Gaussian 88(TM) system (copyright 1988, Gaussian, Inc.),
 the Gaussian 86(TM) system (copyright 1986, Carnegie Mellon
 University), and the Gaussian 82(TM) system (copyright 1983,
 Carnegie Mellon University). Gaussian is a federally registered
 trademark of Gaussian, Inc.
  
 This software contains proprietary and confidential information,
 including trade secrets, belonging to Gaussian, Inc.
  
 This software is provided under written license and may be
 used, copied, transmitted, or stored only in accord with that
 written license.
  
 The following legend is applicable only to US Government
 contracts under FAR:
  
                    RESTRICTED RIGHTS LEGEND
  
 Use, reproduction and disclosure by the US Government is
 subject to restrictions as set forth in subparagraphs (a)
 and (c) of the Commercial Computer Software - Restricted
 Rights clause in FAR 52.227-19.
  
 Gaussian, Inc.
 340 Quinnipiac St., Bldg. 40, Wallingford CT 06492
  
  
 ---------------------------------------------------------------
 Warning -- This program may not be used in any manner that
 competes with the business of Gaussian, Inc. or will provide
 assistance to any competitor of Gaussian, Inc.  The licensee
 of this program is prohibited from giving any competitor of
 Gaussian, Inc. access to this program.  By using this program,
 the user acknowledges that Gaussian, Inc. is engaged in the
 business of creating and licensing software in the field of
 computational chemistry and represents and warrants to the
 licensee that it is not a competitor of Gaussian, Inc. and that
 it will not use this program in any manner prohibited above.
 ---------------------------------------------------------------
  

 Cite this work as:
 Gaussian 16, Revision C.01,
 M. J. Frisch, G. W. Trucks, H. B. Schlegel, G. E. Scuseria, 
 M. A. Robb, J. R. Cheeseman, G. Scalmani, V. Barone, 
 G. A. Petersson, H. Nakatsuji, X. Li, M. Caricato, A. V. Marenich, 
 J. Bloino, B. G. Janesko, R. Gomperts, B. Mennucci, H. P. Hratchian, 
 J. V. Ortiz, A. F. Izmaylov, J. L. Sonnenberg, D. Williams-Young, 
 F. Ding, F. Lipparini, F. Egidi, J. Goings, B. Peng, A. Petrone, 
 T. Henderson, D. Ranasinghe, V. G. Zakrzewski, J. Gao, N. Rega, 
 G. Zheng, W. Liang, M. Hada, M. Ehara, K. Toyota, R. Fukuda, 
 J. Hasegawa, M. Ishida, T. Nakajima, Y. Honda, O. Kitao, H. Nakai, 
 T. Vreven, K. Throssell, J. A. Montgomery, Jr., J. E. Peralta, 
 F. Ogliaro, M. J. Bearpark, J. J. Heyd, E. N. Brothers, K. N. Kudin, 
 V. N. Staroverov, T. A. Keith, R. Kobayashi, J. Normand, 
 K. Raghavachari, A. P. Rendell, J. C. Burant, S. S. Iyengar, 
 J. Tomasi, M. Cossi, J. M. Millam, M. Klene, C. Adamo, R. Cammi, 
 J. W. Ochterski, R. L. Martin, K. Morokuma, O. Farkas, 
 J. B. Foresman, and D. J. Fox, Gaussian, Inc., Wallingford CT, 2019.
 
 ******************************************
 Gaussian 16:  ES64L-G16RevC.01  3-Jul-2019
                 2-Aug-2022 
 ******************************************
 %NProcShared=48
 Will use up to   48 processors via shared memory.
 %mem = 190GB
 ---------------------------------------------------------------
 #n M062X/6-311++G(d,p) TD(NStates=1) EmpiricalDispersion=GD3 SP
 ---------------------------------------------------------------
 1/38=1,172=1/1;
 2/12=2,17=6,18=5,40=1/2;
 3/5=4,6=6,7=1111,11=9,25=1,30=1,74=-55,124=31/1,2,3,8;
 4//1;
 5/5=2,38=5/2;
 8/6=1,10=2,108=1/1;
 9/41=1,42=1,70=2/14;
 6/7=2,8=2,9=2,10=2/1;
 99/5=1,9=1/99;
 -----
 SP_75
 -----
 Symbolic Z-matrix:
 Charge =  1 Multiplicity = 1
 C                     2.48771   1.36013   0. 
 C                     3.69423   0.66811   0. 
 C                     3.68216  -0.72103   0. 
 C                     2.47106  -1.41229   0. 
 C                    -2.45546  -1.40319   0. 
 C                    -3.68676  -0.70863   0. 
 C                    -3.71068   0.67516   0. 
 C                    -2.50141   1.35953   0. 
 C                    -0.00443   1.45777   0. 
 C                     0.0122   -1.42939   0. 
 C                     1.26403   0.68094   0. 
 C                     1.24207  -0.7311    0. 
 C                    -1.26038   0.67329   0. 
 C                    -1.23207  -0.7299    0. 
 H                     2.48817   2.44322   0. 
 H                     4.62958   1.20806   0. 
 H                     4.61101  -1.27337   0. 
 H                     2.4709   -2.49463   0. 
 H                     0.01125  -2.51037   0. 
 H                    -2.4636   -2.48578   0. 
 H                    -4.60811  -1.27382   0. 
 H                    -4.64623   1.21381   0. 
 H                    -2.49237   2.44277   0. 
 H                    -0.016     2.14679  -0.86069 
 H                    -0.016     2.14679   0.86069 
 
                          Input orientation:                          
 ---------------------------------------------------------------------
 Center     Atomic      Atomic             Coordinates (Angstroms)
 Number     Number       Type             X           Y           Z
 ---------------------------------------------------------------------
      1          6           0        2.487705    1.360131    0.000000
      2          6           0        3.694233    0.668114    0.000000
      3          6           0        3.682161   -0.721030    0.000000
      4          6           0        2.471056   -1.412288    0.000000
      5          6           0       -2.455456   -1.403188    0.000000
      6          6           0       -3.686761   -0.708630    0.000000
      7          6           0       -3.710683    0.675164    0.000000
      8          6           0       -2.501405    1.359531    0.000000
      9          6           0       -0.004425    1.457769    0.000000
     10          6           0        0.012200   -1.429389    0.000000
     11          6           0        1.264030    0.680940    0.000000
     12          6           0        1.242071   -0.731104    0.000000
     13          6           0       -1.260380    0.673290    0.000000
     14          6           0       -1.232071   -0.729904    0.000000
     15          1           0        2.488171    2.443222    0.000000
     16          1           0        4.629578    1.208064    0.000000
     17          1           0        4.611012   -1.273374    0.000000
     18          1           0        2.470900   -2.494634    0.000000
     19          1           0        0.011250   -2.510366    0.000000
     20          1           0       -2.463600   -2.485784    0.000000
     21          1           0       -4.608112   -1.273824    0.000000
     22          1           0       -4.646228    1.213814    0.000000
     23          1           0       -2.492371    2.442772    0.000000
     24          1           0       -0.016000    2.146787   -0.860685
     25          1           0       -0.016000    2.146787    0.860685
 ---------------------------------------------------------------------
                    Distance matrix (angstroms):
                    1          2          3          4          5
     1  C    0.000000
     2  C    1.390898   0.000000
     3  C    2.399574   1.389196   0.000000
     4  C    2.772469   2.413345   1.394494   0.000000
     5  C    5.663106   6.489142   6.175409   4.926520   0.000000
     6  C    6.511820   7.508295   7.368932   6.197890   1.413691
     7  C    6.236120   7.404919   7.523530   6.524673   2.427991
     8  C    4.989110   6.234099   6.524203   5.692833   2.763101
     9  C    2.494042   3.782013   4.282299   3.790150   3.767310
    10  C    3.729550   4.237557   3.737698   2.458915   2.467795
    11  C    1.399529   2.430237   2.795152   2.416302   4.263586
    12  C    2.434105   2.823280   2.440111   1.405139   3.758112
    13  C    3.810498   4.954616   5.135449   4.274722   2.395823
    14  C    4.266729   5.120832   4.914240   3.765474   1.396418
    15  H    1.083091   2.146065   3.382026   3.855548   6.263730
    16  H    2.147264   1.080008   2.149187   3.394917   7.550917
    17  H    3.382866   2.147058   1.080670   2.144460   7.067660
    18  H    3.854802   3.391094   2.147749   1.082346   5.045814
    19  H    4.594951   4.864884   4.083786   2.693774   2.703790
    20  H    6.269488   6.918524   6.394117   5.050072   1.082627
    21  H    7.568906   8.526433   8.308683   7.080522   2.156540
    22  H    7.135433   8.358294   8.550186   7.586313   3.412943
    23  H    5.096398   6.436108   6.937902   6.284671   3.846137
    24  H    2.761910   4.085717   4.758314   4.426425   4.392499
    25  H    2.761910   4.085717   4.758314   4.426425   4.392499
                    6          7          8          9         10
     6  C    0.000000
     7  C    1.384001   0.000000
     8  C    2.383770   1.389500   0.000000
     9  C    4.272339   3.787983   2.498912   0.000000
    10  C    3.768528   4.276564   3.754502   2.887206   0.000000
    11  C    5.142104   4.974716   3.826093   1.487428   2.453684
    12  C    4.928883   5.148530   4.287700   2.518912   1.414279
    13  C    2.792316   2.450304   1.418122   1.480821   2.457787
    14  C    2.454782   2.849164   2.444780   2.508591   1.427407
    15  H    6.932817   6.446070   5.105904   2.680327   4.596471
    16  H    8.534355   8.357268   7.132591   4.640726   5.317550
    17  H    8.316969   8.546778   7.584106   5.362966   4.601458
    18  H    6.411443   6.946912   6.291137   4.663553   2.679543
    19  H    4.113580   4.899019   4.614059   3.968166   1.080977
    20  H    2.157406   3.398059   3.845501   4.647489   2.691757
    21  H    1.080894   2.145678   3.372354   5.353086   4.622930
    22  H    2.148573   1.079532   2.149767   4.648209   5.356069
    23  H    3.370149   2.146793   1.083279   2.675837   4.611562
    24  H    4.729553   4.069046   2.745503   1.102569   3.678398
    25  H    4.729553   4.069046   2.745503   1.102569   3.678398
                   11         12         13         14         15
    11  C    0.000000
    12  C    1.412215   0.000000
    13  C    2.524422   2.869596   0.000000
    14  C    2.867229   2.474142   1.403480   0.000000
    15  H    2.145730   3.410148   4.145394   4.889676   0.000000
    16  H    3.406578   3.903278   5.914185   6.173706   2.472092
    17  H    3.875775   3.412304   6.185689   5.868303   4.280133
    18  H    3.397176   2.149432   4.894711   4.101983   4.937886
    19  H    3.428395   2.163491   3.428222   2.171610   5.538337
    20  H    4.891152   4.100110   3.380457   2.144709   6.986783
    21  H    6.188954   5.875303   3.872798   3.419576   8.010847
    22  H    5.934232   6.201191   3.428722   3.928678   7.239551
    23  H    4.149048   4.900974   2.156123   3.413829   4.980542
    24  H    2.127901   3.256651   2.111979   3.239592   2.664493
    25  H    2.127901   3.256651   2.111979   3.239592   2.664493
                   16         17         18         19         20
    16  H    0.000000
    17  H    2.481507   0.000000
    18  H    4.286008   2.464053   0.000000
    19  H    5.929222   4.763188   2.459700   0.000000
    20  H    7.997355   7.177748   4.934508   2.474972   0.000000
    21  H    9.565285   9.219124   7.183508   4.782002   2.463286
    22  H    9.275808   9.585541   8.025341   5.963356   4.295450
    23  H    7.228185   8.016719   7.000860   5.549927   4.928640
    24  H    4.816988   5.817862   5.335564   4.736095   5.309636
    25  H    4.816988   5.817862   5.335564   4.736095   5.309636
                   21         22         23         24         25
    21  H    0.000000
    22  H    2.487930   0.000000
    23  H    4.276616   2.479806   0.000000
    24  H    5.790410   4.801065   2.638333   0.000000
    25  H    5.790410   4.801065   2.638333   1.721370   0.000000
 Stoichiometry    C14H11(1+)
 Framework group  CS[SG(C14H9),X(H2)]
 Deg. of freedom    46
 Full point group                 CS      NOp   2
 Largest Abelian subgroup         CS      NOp   2
 Largest concise Abelian subgroup CS      NOp   2
                         Standard orientation:                         
 ---------------------------------------------------------------------
 Center     Atomic      Atomic             Coordinates (Angstroms)
 Number     Number       Type             X           Y           Z
 ---------------------------------------------------------------------
      1          6           0       -2.372029   -1.553397    0.000000
      2          6           0       -2.330224   -2.943666    0.000000
      3          6           0       -1.099300   -3.587633    0.000000
      4          6           0        0.081110   -2.845174    0.000000
      5          6           0        2.394631    1.504334    0.000000
      6          6           0        2.362261    2.917655    0.000000
      7          6           0        1.153017    3.590847    0.000000
      8          6           0       -0.020455    2.846753    0.000000
      9          6           0       -1.283767    0.690691    0.000000
     10          6           0        1.254894   -0.684504    0.000000
     11          6           0       -1.196339   -0.794165    0.000000
     12          6           0        0.059442   -1.440202    0.000000
     13          6           0        0.000000    1.428778    0.000000
     14          6           0        1.224287    0.742575    0.000000
     15          1           0       -3.327543   -1.043417    0.000000
     16          1           0       -3.247232   -3.514204    0.000000
     17          1           0       -1.049836   -4.667170    0.000000
     18          1           0        1.035821   -3.355077    0.000000
     19          1           0        2.208771   -1.193060    0.000000
     20          1           0        3.353327    1.001360    0.000000
     21          1           0        3.294939    3.463954    0.000000
     22          1           0        1.118785    4.669836    0.000000
     23          1           0       -0.980138    3.349246    0.000000
     24          1           0       -1.886031    1.025590    0.860685
     25          1           0       -1.886031    1.025590   -0.860685
 ---------------------------------------------------------------------
 Rotational constants (GHZ):           2.1348104           0.4444069           0.3686355
 Standard basis: 6-311++G(d,p) (5D, 7F)
 There are   299 symmetry adapted cartesian basis functions of A'  symmetry.
 There are   100 symmetry adapted cartesian basis functions of A"  symmetry.
 There are   285 symmetry adapted basis functions of A'  symmetry.
 There are   100 symmetry adapted basis functions of A"  symmetry.
   385 basis functions,   603 primitive gaussians,   399 cartesian basis functions
    47 alpha electrons       47 beta electrons
       nuclear repulsion energy       781.0019656925 Hartrees.
 NAtoms=   25 NActive=   25 NUniq=   24 SFac= 1.09D+00 NAtFMM=   60 NAOKFM=F Big=F
 Integral buffers will be    131072 words long.
 Regular integral format.
 Two-electron integral symmetry is turned on.
 Nuclear repulsion after empirical dispersion term =      781.0009861635 Hartrees.
 One-electron integrals computed using PRISM.
 NBasis=   385 RedAO= T EigKep=  1.13D-06  NBF=   285   100
 NBsUse=   379 1.00D-06 EigRej=  8.41D-07 NBFU=   279   100
 ExpMin= 3.60D-02 ExpMax= 4.56D+03 ExpMxC= 6.82D+02 IAcc=3 IRadAn=         5 AccDes= 0.00D+00
 Harris functional with IExCor= 1009 and IRadAn=       5 diagonalized for initial guess.
 HarFok:  IExCor= 1009 AccDes= 0.00D+00 IRadAn=         5 IDoV= 1 UseB2=F ITyADJ=14
 ICtDFT=  3500011 ScaDFX=  1.000000  1.000000  1.000000  1.000000
 FoFCou: FMM=F IPFlag=           0 FMFlag=      100000 FMFlg1=           0
         NFxFlg=           0 DoJE=T BraDBF=F KetDBF=T FulRan=T
         wScrn=  0.000000 ICntrl=       500 IOpCl=  0 I1Cent=   200000004 NGrid=           0
         NMat0=    1 NMatS0=      1 NMatT0=    0 NMatD0=    1 NMtDS0=    0 NMtDT0=    0
 Petite list used in FoFCou.
 Initial guess orbital symmetries:
       Occupied  (A') (A') (A') (A') (A') (A') (A') (A') (A') (A')
                 (A') (A') (A') (A') (A') (A') (A') (A') (A') (A')
                 (A') (A') (A') (A') (A') (A') (A') (A') (A') (A')
                 (A') (A') (A") (A') (A') (A') (A') (A') (A') (A")
                 (A") (A') (A') (A") (A") (A") (A")
       Virtual   (A") (A") (A") (A") (A") (A') (A') (A') (A') (A")
                 (A") (A') (A') (A') (A") (A') (A') (A') (A') (A")
                 (A') (A") (A') (A') (A') (A") (A') (A") (A') (A')
                 (A') (A') (A') (A") (A') (A') (A") (A') (A') (A")
                 (A') (A') (A') (A") (A') (A') (A') (A') (A') (A")
                 (A') (A') (A") (A") (A') (A') (A') (A") (A") (A')
                 (A') (A') (A') (A') (A') (A') (A") (A') (A') (A")
                 (A') (A') (A') (A') (A') (A') (A') (A') (A') (A')
                 (A') (A') (A') (A') (A') (A') (A') (A') (A') (A')
                 (A') (A') (A') (A') (A') (A') (A') (A") (A') (A")
                 (A') (A') (A") (A") (A') (A") (A') (A") (A') (A")
                 (A") (A') (A') (A') (A") (A') (A') (A") (A") (A')
                 (A") (A") (A') (A') (A') (A") (A') (A') (A') (A")
                 (A') (A') (A') (A') (A') (A') (A") (A') (A') (A')
                 (A') (A') (A') (A') (A') (A') (A') (A') (A') (A")
                 (A") (A') (A") (A") (A') (A') (A') (A") (A") (A')
                 (A") (A') (A") (A") (A") (A') (A') (A') (A') (A')
                 (A') (A") (A") (A') (A') (A') (A') (A') (A') (A")
                 (A') (A') (A') (A') (A') (A") (A") (A') (A") (A")
                 (A') (A") (A') (A") (A') (A') (A') (A") (A') (A')
                 (A") (A") (A") (A') (A') (A") (A') (A") (A') (A')
                 (A") (A") (A') (A") (A') (A") (A') (A') (A') (A")
                 (A') (A') (A') (A') (A") (A') (A') (A') (A") (A")
                 (A') (A') (A') (A") (A') (A') (A") (A') (A") (A')
                 (A") (A') (A') (A') (A') (A") (A') (A') (A') (A")
                 (A') (A') (A") (A') (A") (A') (A') (A") (A') (A')
                 (A') (A") (A') (A") (A') (A') (A') (A") (A') (A")
                 (A') (A') (A') (A') (A") (A') (A") (A') (A") (A')
                 (A") (A') (A") (A") (A") (A') (A') (A') (A') (A')
                 (A') (A') (A') (A') (A') (A') (A') (A') (A') (A')
                 (A') (A') (A') (A') (A') (A") (A') (A') (A') (A')
                 (A') (A') (A') (A') (A') (A') (A') (A') (A') (A')
                 (A') (A') (A') (A') (A') (A') (A') (A') (A') (A')
                 (A') (A')
 The electronic state of the initial guess is 1-A'.
 Requested convergence on RMS density matrix=1.00D-08 within 128 cycles.
 Requested convergence on MAX density matrix=1.00D-06.
 Requested convergence on             energy=1.00D-06.
 No special actions if energy rises.
 SCF Done:  E(RM062X) =  -539.759814634     A.U. after   15 cycles
            NFock= 15  Conv=0.57D-08     -V/T= 2.0042
 DoSCS=F DFT=T ScalE2(SS,OS)=  1.000000  1.000000
 ExpMin= 3.60D-02 ExpMax= 4.56D+03 ExpMxC= 6.82D+02 IAcc=3 IRadAn=         5 AccDes= 0.00D+00
 HarFok:  IExCor=  205 AccDes= 0.00D+00 IRadAn=         5 IDoV=-2 UseB2=F ITyADJ=14
 ICtDFT= 12500011 ScaDFX=  1.000000  1.000000  1.000000  1.000000
 Range of M.O.s used for correlation:    15   379
 NBasis=   385 NAE=    47 NBE=    47 NFC=    14 NFV=     0
 NROrb=    365 NOA=    33 NOB=    33 NVA=   332 NVB=   332

 **** Warning!!: The largest alpha MO coefficient is  0.14348892D+03

 Orbital symmetries:
       Occupied  (A') (A') (A') (A') (A') (A') (A') (A') (A') (A')
                 (A') (A') (A') (A') (A') (A') (A') (A') (A') (A')
                 (A') (A') (A') (A') (A') (A') (A') (A') (A') (A')
                 (A') (A') (A") (A') (A') (A') (A') (A") (A") (A')
                 (A') (A') (A') (A") (A") (A") (A")
       Virtual   (A") (A") (A") (A") (A') (A') (A') (A') (A") (A')
                 (A') (A") (A') (A') (A") (A') (A") (A') (A') (A')
                 (A") (A") (A') (A') (A') (A") (A') (A") (A') (A')
                 (A") (A') (A") (A') (A') (A') (A') (A') (A") (A')
                 (A") (A') (A') (A") (A") (A') (A") (A') (A") (A')
                 (A') (A') (A') (A') (A') (A") (A') (A') (A') (A')
                 (A') (A") (A') (A') (A') (A') (A") (A') (A') (A')
                 (A') (A') (A') (A') (A') (A') (A') (A') (A') (A')
                 (A') (A') (A') (A') (A') (A') (A') (A') (A') (A')
                 (A') (A') (A') (A') (A") (A') (A") (A") (A') (A")
                 (A') (A') (A') (A') (A") (A") (A') (A") (A") (A')
                 (A') (A') (A") (A') (A') (A") (A') (A") (A') (A")
                 (A") (A') (A") (A') (A') (A') (A") (A') (A') (A')
                 (A') (A') (A') (A') (A') (A') (A') (A') (A') (A')
                 (A') (A') (A') (A") (A') (A') (A') (A') (A') (A')
                 (A') (A') (A") (A') (A") (A') (A") (A") (A') (A")
                 (A") (A') (A') (A") (A") (A") (A') (A") (A') (A')
                 (A') (A') (A') (A") (A") (A') (A') (A') (A') (A")
                 (A') (A') (A') (A") (A') (A") (A') (A') (A") (A")
                 (A") (A') (A') (A") (A") (A') (A') (A') (A') (A')
                 (A") (A") (A") (A') (A') (A") (A') (A") (A') (A')
                 (A') (A") (A') (A") (A") (A') (A") (A') (A') (A")
                 (A') (A') (A') (A') (A") (A') (A') (A') (A") (A")
                 (A') (A') (A') (A") (A') (A') (A') (A") (A") (A')
                 (A") (A') (A') (A") (A') (A') (A') (A') (A') (A')
                 (A") (A') (A') (A') (A') (A") (A") (A") (A') (A')
                 (A') (A') (A') (A') (A') (A') (A") (A') (A') (A')
                 (A') (A") (A') (A") (A") (A") (A') (A") (A') (A")
                 (A') (A") (A") (A') (A") (A") (A') (A') (A') (A')
                 (A') (A') (A') (A') (A') (A') (A') (A') (A') (A')
                 (A') (A') (A') (A") (A') (A') (A') (A') (A') (A')
                 (A') (A') (A') (A') (A') (A') (A') (A') (A') (A')
                 (A') (A') (A') (A') (A') (A') (A') (A') (A') (A')
                 (A') (A')
     4 initial guesses have been made.
 Convergence on wavefunction:    0.001000000000000
 Iteration     1 Dimension     4 NMult     0 NNew      4
 CISAX will form     4 AO SS matrices at one time.
 Iteration     2 Dimension     6 NMult     4 NNew      2
 Iteration     3 Dimension     8 NMult     6 NNew      2
 Iteration     4 Dimension    10 NMult     8 NNew      2
 Iteration     5 Dimension    12 NMult    10 NNew      2
 Iteration     6 Dimension    14 NMult    12 NNew      2
 ***********************************************************************
 Excited states from <AA,BB:AA,BB> singles matrix:
 ***********************************************************************
 
 Ground to excited state transition densities written to RWF  633
 Ground to excited state transition electric dipole moments (Au):
       state          X           Y           Z        Dip. S.      Osc.
         1        -0.5492      0.3070     -0.0000      0.3959      0.0272
 Ground to excited state transition velocity dipole moments (Au):
       state          X           Y           Z        Dip. S.      Osc.
         1         0.0641     -0.0340     -0.0000      0.0053      0.0340
 Ground to excited state transition magnetic dipole moments (Au):
       state          X           Y           Z
         1         0.0000      0.0000     -0.0883
 Ground to excited state transition velocity quadrupole moments (Au):
       state          XX          YY          ZZ          XY          XZ          YZ
         1         0.1217      0.2037     -0.0097      0.1273      0.0000      0.0000
 <0|del|b> * <b|rxdel|0> + <0|del|b> * <b|delr+rdel|0>
 Rotatory Strengths (R) in cgs (10**-40 erg-esu-cm/Gauss)
       state          XX          YY          ZZ    R(velocity)    E-M Angle
         1        -0.0000      0.0000     -0.0000      0.0000       90.00
 1/2[<0|r|b>*<b|rxdel|0> + (<0|rxdel|b>*<b|r|0>)*]
 Rotatory Strengths (R) in cgs (10**-40 erg-esu-cm/Gauss)
       state          XX          YY          ZZ     R(length)
         1         0.0000     -0.0000     -0.0000     -0.0000
  1/2[<0|del|b>*<b|r|0> + (<0|r|b>*<b|del|0>)*] (Au)
       state          X           Y           Z        Dip. S.   Osc.(frdel)
         1        -0.0352     -0.0104      0.0000      0.0456      0.0304

 Excitation energies and oscillator strengths:
 
 Excited State   1:      Singlet-A'     2.8088 eV  441.41 nm  f=0.0272  <S**2>=0.000
      47 -> 48         0.70410
 This state for optimization and/or second-order correction.
 Total Energy, E(TD-HF/TD-DFT) =  -539.656592493    
 Copying the excited state density for this state as the 1-particle RhoCI density.
 SavETr:  write IOETrn=   770 NScale= 10 NData=  16 NLR=1 NState=    1 LETran=      28.

 **********************************************************************

            Population analysis using the SCF Density.

 **********************************************************************

 Orbital symmetries:
       Occupied  (A') (A') (A') (A') (A') (A') (A') (A') (A') (A')
                 (A') (A') (A') (A') (A') (A') (A') (A') (A') (A')
                 (A') (A') (A') (A') (A') (A') (A') (A') (A') (A')
                 (A') (A') (A") (A') (A') (A') (A') (A") (A") (A')
                 (A') (A') (A') (A") (A") (A") (A")
       Virtual   (A") (A") (A") (A") (A') (A') (A') (A') (A") (A')
                 (A') (A") (A') (A') (A") (A') (A") (A') (A') (A')
                 (A") (A") (A') (A') (A') (A") (A') (A") (A') (A')
                 (A") (A') (A") (A') (A') (A') (A') (A') (A") (A')
                 (A") (A') (A') (A") (A") (A') (A") (A') (A") (A')
                 (A') (A') (A') (A') (A') (A") (A') (A') (A') (A')
                 (A') (A") (A') (A') (A') (A') (A") (A') (A') (A')
                 (A') (A') (A') (A') (A') (A') (A') (A') (A') (A')
                 (A') (A') (A') (A') (A') (A') (A') (A') (A') (A')
                 (A') (A') (A') (A') (A") (A') (A") (A") (A') (A")
                 (A') (A') (A') (A') (A") (A") (A') (A") (A") (A')
                 (A') (A') (A") (A') (A') (A") (A') (A") (A') (A")
                 (A") (A') (A") (A') (A') (A') (A") (A') (A') (A')
                 (A') (A') (A') (A') (A') (A') (A') (A') (A') (A')
                 (A') (A') (A') (A") (A') (A') (A') (A') (A') (A')
                 (A') (A') (A") (A') (A") (A') (A") (A") (A') (A")
                 (A") (A') (A') (A") (A") (A") (A') (A") (A') (A')
                 (A') (A') (A') (A") (A") (A') (A') (A') (A') (A")
                 (A') (A') (A') (A") (A') (A") (A') (A') (A") (A")
                 (A") (A') (A') (A") (A") (A') (A') (A') (A') (A')
                 (A") (A") (A") (A') (A') (A") (A') (A") (A') (A')
                 (A') (A") (A') (A") (A") (A') (A") (A') (A') (A")
                 (A') (A') (A') (A') (A") (A') (A') (A') (A") (A")
                 (A') (A') (A') (A") (A') (A') (A') (A") (A") (A')
                 (A") (A') (A') (A") (A') (A') (A') (A') (A') (A')
                 (A") (A') (A') (A') (A') (A") (A") (A") (A') (A')
                 (A') (A') (A') (A') (A') (A') (A") (A') (A') (A')
                 (A') (A") (A') (A") (A") (A") (A') (A") (A') (A")
                 (A') (A") (A") (A') (A") (A") (A') (A') (A') (A')
                 (A') (A') (A') (A') (A') (A') (A') (A') (A') (A')
                 (A') (A') (A') (A") (A') (A') (A') (A') (A') (A')
                 (A') (A') (A') (A') (A') (A') (A') (A') (A') (A')
                 (A') (A') (A') (A') (A') (A') (A') (A') (A') (A')
                 (A') (A')
 The electronic state is 1-A'.
 Alpha  occ. eigenvalues --  -10.77669 -10.73411 -10.73121 -10.72558 -10.72325
 Alpha  occ. eigenvalues --  -10.71507 -10.71261 -10.71232 -10.70993 -10.70746
 Alpha  occ. eigenvalues --  -10.70039 -10.69908 -10.69718 -10.69554  -1.16424
 Alpha  occ. eigenvalues --   -1.12449  -1.06945  -1.05697  -1.01311  -1.00172
 Alpha  occ. eigenvalues --   -0.95769  -0.91044  -0.86417  -0.85892  -0.83805
 Alpha  occ. eigenvalues --   -0.78391  -0.76012  -0.74412  -0.69590  -0.69245
 Alpha  occ. eigenvalues --   -0.68481  -0.68173  -0.68109  -0.64781  -0.64265
 Alpha  occ. eigenvalues --   -0.62999  -0.61844  -0.60087  -0.59614  -0.59104
 Alpha  occ. eigenvalues --   -0.56887  -0.55228  -0.54796  -0.52441  -0.46666
 Alpha  occ. eigenvalues --   -0.46067  -0.44452
 Alpha virt. eigenvalues --   -0.26099  -0.14666  -0.14097  -0.12774  -0.11178
 Alpha virt. eigenvalues --   -0.10083  -0.09232  -0.07981  -0.07972  -0.07476
 Alpha virt. eigenvalues --   -0.07200  -0.07142  -0.05645  -0.05579  -0.05332
 Alpha virt. eigenvalues --   -0.03828  -0.03647  -0.03278  -0.03135  -0.02166
 Alpha virt. eigenvalues --   -0.01364  -0.00931   0.00196   0.00593   0.00647
 Alpha virt. eigenvalues --    0.01058   0.01514   0.01944   0.02210   0.02296
 Alpha virt. eigenvalues --    0.02450   0.02668   0.02746   0.03332   0.03390
 Alpha virt. eigenvalues --    0.04241   0.04501   0.04700   0.05034   0.05367
 Alpha virt. eigenvalues --    0.06035   0.06291   0.06594   0.07036   0.07259
 Alpha virt. eigenvalues --    0.07891   0.08152   0.08356   0.08536   0.08927
 Alpha virt. eigenvalues --    0.09535   0.09565   0.10026   0.10854   0.11000
 Alpha virt. eigenvalues --    0.11121   0.12157   0.12241   0.12883   0.12974
 Alpha virt. eigenvalues --    0.13410   0.13526   0.14007   0.14384   0.16144
 Alpha virt. eigenvalues --    0.16322   0.16391   0.17344   0.17609   0.17797
 Alpha virt. eigenvalues --    0.18115   0.19083   0.19256   0.19620   0.19738
 Alpha virt. eigenvalues --    0.21526   0.21590   0.22714   0.23102   0.23549
 Alpha virt. eigenvalues --    0.23851   0.24592   0.25395   0.26921   0.27598
 Alpha virt. eigenvalues --    0.28832   0.29281   0.29845   0.31346   0.35785
 Alpha virt. eigenvalues --    0.36410   0.38188   0.39272   0.41143   0.41397
 Alpha virt. eigenvalues --    0.41943   0.42215   0.42985   0.43660   0.44298
 Alpha virt. eigenvalues --    0.44931   0.45035   0.46060   0.46192   0.47971
 Alpha virt. eigenvalues --    0.48516   0.48841   0.49036   0.50424   0.51087
 Alpha virt. eigenvalues --    0.51473   0.51724   0.52118   0.52870   0.53980
 Alpha virt. eigenvalues --    0.54094   0.54617   0.55682   0.55768   0.57551
 Alpha virt. eigenvalues --    0.58237   0.58821   0.61436   0.62220   0.62342
 Alpha virt. eigenvalues --    0.63199   0.63487   0.64919   0.65147   0.67208
 Alpha virt. eigenvalues --    0.70429   0.70616   0.71020   0.72406   0.72860
 Alpha virt. eigenvalues --    0.75764   0.76017   0.76283   0.76887   0.77094
 Alpha virt. eigenvalues --    0.77835   0.77861   0.78217   0.79897   0.80388
 Alpha virt. eigenvalues --    0.81224   0.81655   0.82163   0.83005   0.85165
 Alpha virt. eigenvalues --    0.87135   0.88141   0.88542   0.89143   0.90416
 Alpha virt. eigenvalues --    0.91038   0.91275   0.93196   0.94616   0.96411
 Alpha virt. eigenvalues --    0.96674   1.00399   1.01263   1.01684   1.02714
 Alpha virt. eigenvalues --    1.03196   1.03719   1.04742   1.05541   1.08754
 Alpha virt. eigenvalues --    1.19539   1.23257   1.24043   1.25151   1.28010
 Alpha virt. eigenvalues --    1.29700   1.31769   1.34344   1.35748   1.35994
 Alpha virt. eigenvalues --    1.39321   1.40107   1.40928   1.43054   1.43446
 Alpha virt. eigenvalues --    1.43510   1.44836   1.45674   1.46349   1.46665
 Alpha virt. eigenvalues --    1.47642   1.48000   1.51686   1.53618   1.55625
 Alpha virt. eigenvalues --    1.55827   1.56334   1.56589   1.57753   1.61406
 Alpha virt. eigenvalues --    1.63256   1.63480   1.63842   1.66084   1.68260
 Alpha virt. eigenvalues --    1.68354   1.68716   1.69759   1.74354   1.75974
 Alpha virt. eigenvalues --    1.77131   1.78050   1.79915   1.80093   1.80698
 Alpha virt. eigenvalues --    1.83110   1.83215   1.83576   1.83829   1.84186
 Alpha virt. eigenvalues --    1.84283   1.85807   1.86114   1.88219   1.91371
 Alpha virt. eigenvalues --    1.92048   1.94103   1.95178   1.97684   1.98132
 Alpha virt. eigenvalues --    1.99714   2.02278   2.04371   2.07263   2.11793
 Alpha virt. eigenvalues --    2.12031   2.14112   2.15227   2.19046   2.21171
 Alpha virt. eigenvalues --    2.22785   2.28667   2.30031   2.34582   2.34908
 Alpha virt. eigenvalues --    2.36228   2.38679   2.39599   2.42348   2.44859
 Alpha virt. eigenvalues --    2.46142   2.46328   2.49323   2.52880   2.53786
 Alpha virt. eigenvalues --    2.54134   2.56867   2.57837   2.58310   2.59604
 Alpha virt. eigenvalues --    2.59823   2.61580   2.62111   2.63520   2.63755
 Alpha virt. eigenvalues --    2.64775   2.65088   2.65187   2.65346   2.67854
 Alpha virt. eigenvalues --    2.68456   2.70938   2.71417   2.73338   2.74809
 Alpha virt. eigenvalues --    2.76302   2.78614   2.79692   2.82762   2.83052
 Alpha virt. eigenvalues --    2.84856   2.86237   2.92088   2.97029   2.99484
 Alpha virt. eigenvalues --    3.00038   3.04891   3.10798   3.11325   3.13141
 Alpha virt. eigenvalues --    3.20859   3.23213   3.26606   3.28203   3.30698
 Alpha virt. eigenvalues --    3.32791   3.33687   3.43445   3.45918   3.46457
 Alpha virt. eigenvalues --    3.48382   3.50038   3.56384   3.66336   3.66686
 Alpha virt. eigenvalues --    3.67423   3.94173   3.94490   3.95242   3.96206
 Alpha virt. eigenvalues --    4.03991   4.06823   4.07439   4.12556   4.35356
 Alpha virt. eigenvalues --    4.61038   4.69709   4.71558  23.45340  23.60434
 Alpha virt. eigenvalues --   23.82006  23.85029  23.87524  23.89094  23.90687
 Alpha virt. eigenvalues --   23.92745  23.97231  23.98777  24.00227  24.01183
 Alpha virt. eigenvalues --   24.10544  24.10798
          Condensed to atoms (all electrons):
               1          2          3          4          5          6
     1  C    8.556021   0.334486  -0.566662   1.976988  -0.032986  -0.093319
     2  C    0.334486   7.174363   0.368605  -1.081391  -0.020369  -0.014487
     3  C   -0.566662   0.368605   6.593040   0.760025  -0.122408   0.016918
     4  C    1.976988  -1.081391   0.760025  11.242686  -0.397463  -0.130276
     5  C   -0.032986  -0.020369  -0.122408  -0.397463  11.009760   0.791119
     6  C   -0.093319  -0.014487   0.016918  -0.130276   0.791119   6.590103
     7  C   -0.019107   0.000380  -0.013911  -0.005366  -1.140696   0.319244
     8  C    0.402313  -0.010361  -0.099077  -0.056658   2.120465  -0.492191
     9  C   -1.120504  -0.829413   0.298412  -0.128926  -0.255779   0.298001
    10  C   -1.282213   0.230832  -0.326527  -2.648248  -2.534076  -0.374931
    11  C    0.324430  -0.863974   0.969441  -0.306989  -1.485466  -0.155846
    12  C   -2.103015   1.288306  -1.393050  -1.677971  -0.304563  -0.222674
    13  C    0.227631  -0.231980  -0.188023  -1.535784  -0.305330   1.032610
    14  C   -1.101274  -0.220160  -0.175220  -0.372170  -1.676304  -1.439639
    15  H    0.368541  -0.107489  -0.001673   0.027339   0.005835   0.001141
    16  H   -0.019585   0.380933  -0.018523   0.014481  -0.001584  -0.000337
    17  H   -0.024313  -0.018034   0.377029  -0.069115   0.000273   0.000406
    18  H    0.050227   0.003094  -0.084366   0.462278   0.005652  -0.005113
    19  H   -0.045984  -0.007911   0.051402  -0.072675  -0.067208   0.051555
    20  H    0.007030   0.002081  -0.005181   0.005649   0.458826  -0.084539
    21  H   -0.001286  -0.000407   0.000398   0.000368  -0.068103   0.373282
    22  H    0.000636   0.000356  -0.000320  -0.001483   0.012516  -0.015856
    23  H    0.005864  -0.002536   0.001068   0.005311   0.028674  -0.000411
    24  H    0.034921   0.015030  -0.001525  -0.011925  -0.012453  -0.001662
    25  H    0.034921   0.015030  -0.001525  -0.011925  -0.012453  -0.001662
               7          8          9         10         11         12
     1  C   -0.019107   0.402313  -1.120504  -1.282213   0.324430  -2.103015
     2  C    0.000380  -0.010361  -0.829413   0.230832  -0.863974   1.288306
     3  C   -0.013911  -0.099077   0.298412  -0.326527   0.969441  -1.393050
     4  C   -0.005366  -0.056658  -0.128926  -2.648248  -0.306989  -1.677971
     5  C   -1.140696   2.120465  -0.255779  -2.534076  -1.485466  -0.304563
     6  C    0.319244  -0.492191   0.298001  -0.374931  -0.155846  -0.222674
     7  C    7.176445   0.186609  -0.805842   0.283934  -0.258060  -0.159354
     8  C    0.186609   8.727746  -1.115085  -1.334679   0.251926  -1.074545
     9  C   -0.805842  -1.115085   9.559749   0.264682   1.551401  -1.951620
    10  C    0.283934  -1.334679   0.264682   9.106821  -0.364328   2.411938
    11  C   -0.258060   0.251926   1.551401  -0.364328  14.432235  -3.834054
    12  C   -0.159354  -1.074545  -1.951620   2.411938  -3.834054  16.130148
    13  C   -0.919673   0.316466   1.510681  -0.411568   1.100513  -4.752547
    14  C    1.484491  -2.324620  -1.844464   2.435008  -4.782737   3.156118
    15  H   -0.002706   0.005357   0.089921  -0.009149  -0.030124  -0.021342
    16  H    0.000380   0.000817   0.002592  -0.009476   0.025195  -0.031354
    17  H   -0.000394  -0.001334  -0.005367   0.020249  -0.026501   0.091018
    18  H    0.002102   0.007054  -0.023977   0.009661  -0.006301  -0.054048
    19  H   -0.007662  -0.047295   0.075141   0.421774   0.077263  -0.071398
    20  H    0.002595   0.052126  -0.024953   0.011712  -0.012002  -0.013096
    21  H   -0.013845  -0.027933  -0.005828   0.020354  -0.006251   0.005340
    22  H    0.378314  -0.018634   0.003212  -0.008800   0.002869  -0.008669
    23  H   -0.108143   0.369503   0.092056  -0.010102   0.002975   0.006012
    24  H    0.014188   0.032173   0.355340   0.005217   0.016937  -0.060412
    25  H    0.014188   0.032173   0.355340   0.005217   0.016937  -0.060412
              13         14         15         16         17         18
     1  C    0.227631  -1.101274   0.368541  -0.019585  -0.024313   0.050227
     2  C   -0.231980  -0.220160  -0.107489   0.380933  -0.018034   0.003094
     3  C   -0.188023  -0.175220  -0.001673  -0.018523   0.377029  -0.084366
     4  C   -1.535784  -0.372170   0.027339   0.014481  -0.069115   0.462278
     5  C   -0.305330  -1.676304   0.005835  -0.001584   0.000273   0.005652
     6  C    1.032610  -1.439639   0.001141  -0.000337   0.000406  -0.005113
     7  C   -0.919673   1.484491  -0.002706   0.000380  -0.000394   0.002102
     8  C    0.316466  -2.324620   0.005357   0.000817  -0.001334   0.007054
     9  C    1.510681  -1.844464   0.089921   0.002592  -0.005367  -0.023977
    10  C   -0.411568   2.435008  -0.009149  -0.009476   0.020249   0.009661
    11  C    1.100513  -4.782737  -0.030124   0.025195  -0.026501  -0.006301
    12  C   -4.752547   3.156118  -0.021342  -0.031354   0.091018  -0.054048
    13  C   14.359234  -3.623245   0.000001   0.003137  -0.006267  -0.012102
    14  C   -3.623245  16.012935   0.006817  -0.009444   0.005307  -0.016744
    15  H    0.000001   0.006817   0.437904  -0.009052   0.001532   0.000183
    16  H    0.003137  -0.009444  -0.009052   0.418707  -0.006778   0.001942
    17  H   -0.006267   0.005307   0.001532  -0.006778   0.421749  -0.010283
    18  H   -0.012102  -0.016744   0.000183   0.001942  -0.010283   0.452532
    19  H    0.078743  -0.060102   0.000343  -0.000564   0.001509  -0.006118
    20  H   -0.004499  -0.059041  -0.000117   0.000017  -0.000151   0.001248
    21  H   -0.027022   0.094333   0.000015  -0.000007   0.000010  -0.000138
    22  H    0.025496  -0.032250  -0.000127   0.000008  -0.000007   0.000014
    23  H   -0.031332  -0.027915   0.000560  -0.000129   0.000013  -0.000110
    24  H    0.010632  -0.060569  -0.000931   0.000633  -0.000141   0.000175
    25  H    0.010632  -0.060569  -0.000931   0.000633  -0.000141   0.000175
              19         20         21         22         23         24
     1  C   -0.045984   0.007030  -0.001286   0.000636   0.005864   0.034921
     2  C   -0.007911   0.002081  -0.000407   0.000356  -0.002536   0.015030
     3  C    0.051402  -0.005181   0.000398  -0.000320   0.001068  -0.001525
     4  C   -0.072675   0.005649   0.000368  -0.001483   0.005311  -0.011925
     5  C   -0.067208   0.458826  -0.068103   0.012516   0.028674  -0.012453
     6  C    0.051555  -0.084539   0.373282  -0.015856  -0.000411  -0.001662
     7  C   -0.007662   0.002595  -0.013845   0.378314  -0.108143   0.014188
     8  C   -0.047295   0.052126  -0.027933  -0.018634   0.369503   0.032173
     9  C    0.075141  -0.024953  -0.005828   0.003212   0.092056   0.355340
    10  C    0.421774   0.011712   0.020354  -0.008800  -0.010102   0.005217
    11  C    0.077263  -0.012002  -0.006251   0.002869   0.002975   0.016937
    12  C   -0.071398  -0.013096   0.005340  -0.008669   0.006012  -0.060412
    13  C    0.078743  -0.004499  -0.027022   0.025496  -0.031332   0.010632
    14  C   -0.060102  -0.059041   0.094333  -0.032250  -0.027915  -0.060569
    15  H    0.000343  -0.000117   0.000015  -0.000127   0.000560  -0.000931
    16  H   -0.000564   0.000017  -0.000007   0.000008  -0.000129   0.000633
    17  H    0.001509  -0.000151   0.000010  -0.000007   0.000013  -0.000141
    18  H   -0.006118   0.001248  -0.000138   0.000014  -0.000110   0.000175
    19  H    0.442891  -0.006425   0.001342  -0.000528   0.000290   0.000579
    20  H   -0.006425   0.455514  -0.010376   0.001919   0.000132   0.000198
    21  H    0.001342  -0.010376   0.423160  -0.006461   0.001408  -0.000146
    22  H   -0.000528   0.001919  -0.006461   0.420487  -0.009054   0.000635
    23  H    0.000290   0.000132   0.001408  -0.009054   0.440829  -0.000913
    24  H    0.000579   0.000198  -0.000146   0.000635  -0.000913   0.493241
    25  H    0.000579   0.000198  -0.000146   0.000635  -0.000913  -0.078804
              25
     1  C    0.034921
     2  C    0.015030
     3  C   -0.001525
     4  C   -0.011925
     5  C   -0.012453
     6  C   -0.001662
     7  C    0.014188
     8  C    0.032173
     9  C    0.355340
    10  C    0.005217
    11  C    0.016937
    12  C   -0.060412
    13  C    0.010632
    14  C   -0.060569
    15  H   -0.000931
    16  H    0.000633
    17  H   -0.000141
    18  H    0.000175
    19  H    0.000579
    20  H    0.000198
    21  H   -0.000146
    22  H    0.000635
    23  H   -0.000913
    24  H   -0.078804
    25  H    0.493241
 Mulliken charges:
               1
     1  C    0.086238
     2  C   -0.404981
     3  C   -0.438350
     4  C    0.013239
     5  C    0.004122
     6  C   -0.441436
     7  C   -0.408109
     8  C    0.097684
     9  C   -0.344770
    10  C    0.086700
    11  C   -0.639488
    12  C    0.705247
    13  C   -0.626403
    14  C    0.691459
    15  H    0.238153
    16  H    0.257358
    17  H    0.249731
    18  H    0.222962
    19  H    0.190457
    20  H    0.221133
    21  H    0.247936
    22  H    0.255092
    23  H    0.236863
    24  H    0.249581
    25  H    0.249581
 Sum of Mulliken charges =   1.00000
 Mulliken charges with hydrogens summed into heavy atoms:
               1
     1  C    0.324391
     2  C   -0.147623
     3  C   -0.188618
     4  C    0.236201
     5  C    0.225255
     6  C   -0.193500
     7  C   -0.153017
     8  C    0.334547
     9  C    0.154392
    10  C    0.277158
    11  C   -0.639488
    12  C    0.705247
    13  C   -0.626403
    14  C    0.691459
 Electronic spatial extent (au):  <R**2>=           2857.2796
 Charge=              1.0000 electrons
 Dipole moment (field-independent basis, Debye):
    X=              0.0356    Y=             -0.3368    Z=             -0.0000  Tot=              0.3387
 Quadrupole moment (field-independent basis, Debye-Ang):
   XX=            -50.7904   YY=            -36.5658   ZZ=            -84.1419
   XY=             10.3925   XZ=              0.0000   YZ=             -0.0000
 Traceless Quadrupole moment (field-independent basis, Debye-Ang):
   XX=              6.3757   YY=             20.6002   ZZ=            -26.9759
   XY=             10.3925   XZ=              0.0000   YZ=             -0.0000
 Octapole moment (field-independent basis, Debye-Ang**2):
  XXX=             -0.5202  YYY=              2.7456  ZZZ=             -0.0000  XYY=             -1.1187
  XXY=             -5.9602  XXZ=             -0.0000  XZZ=             -2.9311  YZZ=              1.1050
  YYZ=             -0.0000  XYZ=              0.0000
 Hexadecapole moment (field-independent basis, Debye-Ang**3):
 XXXX=           -997.4169 YYYY=          -1843.3230 ZZZZ=            -99.3387 XXXY=           -350.2189
 XXXZ=              0.0000 YYYX=           -277.0412 YYYZ=             -0.0000 ZZZX=              0.0000
 ZZZY=             -0.0000 XXYY=           -453.8683 XXZZ=           -243.8772 YYZZ=           -492.9165
 XXYZ=             -0.0000 YYXZ=              0.0000 ZZXY=           -184.5707
 N-N= 7.810009861635D+02 E-N=-2.798337899309D+03  KE= 5.374968242248D+02
 Symmetry A'   KE= 5.228491886221D+02
 Symmetry A"   KE= 1.464763560268D+01
 Unable to Open any file for archive entry.
 1\1\GINC-GADI-CPU-CLX-1762\SP\RM062X TD-FC\6-311++G(d,p)\C14H11(1+)\TS
 1578\02-Aug-2022\0\\#n M062X/6-311++G(d,p) TD(NStates=1) EmpiricalDisp
 ersion=GD3 SP\\SP_75\\1,1\C,0,2.487705,1.360131,0.\C,0,3.694233,0.6681
 14,0.\C,0,3.682161,-0.72103,0.\C,0,2.471056,-1.412288,0.\C,0,-2.455456
 ,-1.403188,0.\C,0,-3.686761,-0.70863,0.\C,0,-3.710683,0.675164,0.\C,0,
 -2.501405,1.359531,0.\C,0,-0.004425,1.457769,0.\C,0,0.0122,-1.429389,0
 .\C,0,1.26403,0.68094,0.\C,0,1.242071,-0.731104,0.\C,0,-1.26038,0.6732
 9,0.\C,0,-1.232071,-0.729904,0.\H,0,2.488171,2.443222,0.\H,0,4.629578,
 1.208064,0.\H,0,4.611012,-1.273374,0.\H,0,2.4709,-2.494634,0.\H,0,0.01
 125,-2.510366,0.\H,0,-2.4636,-2.485784,0.\H,0,-4.608112,-1.273824,0.\H
 ,0,-4.646228,1.213814,0.\H,0,-2.492371,2.442772,0.\H,0,-0.016,2.146787
 ,-0.860685\H,0,-0.016,2.146787,0.860685\\Version=ES64L-G16RevC.01\Stat
 e=1-A'\HF=-539.7598146\RMSD=5.670e-09\PG=CS [SG(C14H9),X(H2)]\\@
 The archive entry for this job was punched.


 ARTHROPOD AXIOM: A COMPUTER SYSTEM IS LIKE A SPIDER'S WEB.
 YOU CANNOT PULL ON ONE END WITHOUT MAKING THE OTHER END MOVE.
     -- GREG WETTSTEIN
 Job cpu time:       0 days  0 hours 51 minutes 35.7 seconds.
 Elapsed time:       0 days  0 hours  1 minutes  4.6 seconds.
 File lengths (MBytes):  RWF=    460 Int=      0 D2E=      0 Chk=     15 Scr=      1
 Normal termination of Gaussian 16 at Tue Aug  2 12:50:10 2022.
