 Entering Gaussian System, Link 0=g16
 Initial command:
 /apps/gaussian/g16c01/g16/l1.exe "/jobfs/53796104.gadi-pbs/Gau-3661777.inp" -scrdir="/jobfs/53796104.gadi-pbs/"
 Entering Link 1 = /apps/gaussian/g16c01/g16/l1.exe PID=   3661778.
  
 Copyright (c) 1988-2019, Gaussian, Inc.  All Rights Reserved.
  
 This is part of the Gaussian(R) 16 program.  It is based on
 the Gaussian(R) 09 system (copyright 2009, Gaussian, Inc.),
 the Gaussian(R) 03 system (copyright 2003, Gaussian, Inc.),
 the Gaussian(R) 98 system (copyright 1998, Gaussian, Inc.),
 the Gaussian(R) 94 system (copyright 1995, Gaussian, Inc.),
 the Gaussian 92(TM) system (copyright 1992, Gaussian, Inc.),
 the Gaussian 90(TM) system (copyright 1990, Gaussian, Inc.),
 the Gaussian 88(TM) system (copyright 1988, Gaussian, Inc.),
 the Gaussian 86(TM) system (copyright 1986, Carnegie Mellon
 University), and the Gaussian 82(TM) system (copyright 1983,
 Carnegie Mellon University). Gaussian is a federally registered
 trademark of Gaussian, Inc.
  
 This software contains proprietary and confidential information,
 including trade secrets, belonging to Gaussian, Inc.
  
 This software is provided under written license and may be
 used, copied, transmitted, or stored only in accord with that
 written license.
  
 The following legend is applicable only to US Government
 contracts under FAR:
  
                    RESTRICTED RIGHTS LEGEND
  
 Use, reproduction and disclosure by the US Government is
 subject to restrictions as set forth in subparagraphs (a)
 and (c) of the Commercial Computer Software - Restricted
 Rights clause in FAR 52.227-19.
  
 Gaussian, Inc.
 340 Quinnipiac St., Bldg. 40, Wallingford CT 06492
  
  
 ---------------------------------------------------------------
 Warning -- This program may not be used in any manner that
 competes with the business of Gaussian, Inc. or will provide
 assistance to any competitor of Gaussian, Inc.  The licensee
 of this program is prohibited from giving any competitor of
 Gaussian, Inc. access to this program.  By using this program,
 the user acknowledges that Gaussian, Inc. is engaged in the
 business of creating and licensing software in the field of
 computational chemistry and represents and warrants to the
 licensee that it is not a competitor of Gaussian, Inc. and that
 it will not use this program in any manner prohibited above.
 ---------------------------------------------------------------
  

 Cite this work as:
 Gaussian 16, Revision C.01,
 M. J. Frisch, G. W. Trucks, H. B. Schlegel, G. E. Scuseria, 
 M. A. Robb, J. R. Cheeseman, G. Scalmani, V. Barone, 
 G. A. Petersson, H. Nakatsuji, X. Li, M. Caricato, A. V. Marenich, 
 J. Bloino, B. G. Janesko, R. Gomperts, B. Mennucci, H. P. Hratchian, 
 J. V. Ortiz, A. F. Izmaylov, J. L. Sonnenberg, D. Williams-Young, 
 F. Ding, F. Lipparini, F. Egidi, J. Goings, B. Peng, A. Petrone, 
 T. Henderson, D. Ranasinghe, V. G. Zakrzewski, J. Gao, N. Rega, 
 G. Zheng, W. Liang, M. Hada, M. Ehara, K. Toyota, R. Fukuda, 
 J. Hasegawa, M. Ishida, T. Nakajima, Y. Honda, O. Kitao, H. Nakai, 
 T. Vreven, K. Throssell, J. A. Montgomery, Jr., J. E. Peralta, 
 F. Ogliaro, M. J. Bearpark, J. J. Heyd, E. N. Brothers, K. N. Kudin, 
 V. N. Staroverov, T. A. Keith, R. Kobayashi, J. Normand, 
 K. Raghavachari, A. P. Rendell, J. C. Burant, S. S. Iyengar, 
 J. Tomasi, M. Cossi, J. M. Millam, M. Klene, C. Adamo, R. Cammi, 
 J. W. Ochterski, R. L. Martin, K. Morokuma, O. Farkas, 
 J. B. Foresman, and D. J. Fox, Gaussian, Inc., Wallingford CT, 2019.
 
 ******************************************
 Gaussian 16:  ES64L-G16RevC.01  3-Jul-2019
                 2-Aug-2022 
 ******************************************
 %NProcShared=48
 Will use up to   48 processors via shared memory.
 %mem = 190GB
 ---------------------------------------------------------------
 #n M062X/6-311++G(d,p) TD(NStates=1) EmpiricalDispersion=GD3 SP
 ---------------------------------------------------------------
 1/38=1,172=1/1;
 2/12=2,17=6,18=5,40=1/2;
 3/5=4,6=6,7=1111,11=9,25=1,30=1,74=-55,124=31/1,2,3,8;
 4//1;
 5/5=2,38=5/2;
 8/6=1,10=2,108=1/1;
 9/41=1,42=1,70=2/14;
 6/7=2,8=2,9=2,10=2/1;
 99/5=1,9=1/99;
 ------
 SP_100
 ------
 Symbolic Z-matrix:
 Charge =  1 Multiplicity = 1
 C                     2.45746   1.36223   0. 
 C                     3.65991   0.65454   0. 
 C                     3.67206  -0.74433   0. 
 C                     2.50211  -1.43019   0. 
 C                    -2.42411  -1.38469   0. 
 C                    -3.69506  -0.68233   0. 
 C                    -3.74216   0.68979   0. 
 C                    -2.52596   1.35923   0. 
 C                    -0.02185   1.45117   0. 
 C                     0.061    -1.42909   0. 
 C                     1.27111   0.69617   0. 
 C                     1.26267  -0.73395   0. 
 C                    -1.25286   0.65792   0. 
 C                    -1.21267  -0.72795   0. 
 H                     2.47647   2.4451    0. 
 H                     4.59455   1.19769   0. 
 H                     4.61636  -1.2706    0. 
 H                     2.48595  -2.51211   0. 
 H                     0.05625  -2.51022   0. 
 H                    -2.44945  -2.46786   0. 
 H                    -4.60186  -1.27285   0. 
 H                    -4.6778    1.22644   0. 
 H                    -2.49747   2.44285   0. 
 H                    -0.08      2.14529  -0.85904 
 H                    -0.08      2.14529   0.85904 
 
                          Input orientation:                          
 ---------------------------------------------------------------------
 Center     Atomic      Atomic             Coordinates (Angstroms)
 Number     Number       Type             X           Y           Z
 ---------------------------------------------------------------------
      1          6           0        2.457455    1.362231    0.000000
      2          6           0        3.659908    0.654539    0.000000
      3          6           0        3.672061   -0.744330    0.000000
      4          6           0        2.502106   -1.430188    0.000000
      5          6           0       -2.424106   -1.384688    0.000000
      6          6           0       -3.695061   -0.682330    0.000000
      7          6           0       -3.742158    0.689789    0.000000
      8          6           0       -2.525955    1.359231    0.000000
      9          6           0       -0.021850    1.451169    0.000000
     10          6           0        0.061000   -1.429089    0.000000
     11          6           0        1.271105    0.696165    0.000000
     12          6           0        1.262671   -0.733954    0.000000
     13          6           0       -1.252855    0.657915    0.000000
     14          6           0       -1.212671   -0.727954    0.000000
     15          1           0        2.476471    2.445097    0.000000
     16          1           0        4.594553    1.197689    0.000000
     17          1           0        4.616362   -1.270599    0.000000
     18          1           0        2.485950   -2.512109    0.000000
     19          1           0        0.056250   -2.510216    0.000000
     20          1           0       -2.449450   -2.467859    0.000000
     21          1           0       -4.601862   -1.272849    0.000000
     22          1           0       -4.677803    1.226439    0.000000
     23          1           0       -2.497471    2.442847    0.000000
     24          1           0       -0.080000    2.145287   -0.859035
     25          1           0       -0.080000    2.145287    0.859035
 ---------------------------------------------------------------------
                    Distance matrix (angstroms):
                    1          2          3          4          5
     1  C    0.000000
     2  C    1.395250   0.000000
     3  C    2.431639   1.398922   0.000000
     4  C    2.792776   2.384658   1.356170   0.000000
     5  C    5.601357   6.416671   6.129707   4.926422   0.000000
     6  C    6.483339   7.475479   7.367383   6.242129   1.452113
     7  C    6.235975   7.402150   7.551645   6.594326   2.457787
     8  C    4.983411   6.225873   6.545256   5.749979   2.745809
     9  C    2.480900   3.766957   4.297115   3.830479   3.716574
    10  C    3.678922   4.158563   3.675412   2.441106   2.485503
    11  C    1.360540   2.389166   2.799931   2.456978   4.240818
    12  C    2.412779   2.770317   2.409412   1.421598   3.743765
    13  C    3.776567   4.912764   5.120653   4.296499   2.354582
    14  C    4.223588   5.064910   4.884759   3.780569   1.377996
    15  H    1.083033   2.146304   3.406153   3.875370   6.219559
    16  H    2.143423   1.081006   2.149984   3.359177   7.478653
    17  H    3.404801   2.149642   1.081047   2.120271   7.041392
    18  H    3.874445   3.377253   2.128826   1.082042   5.037830
    19  H    4.556493   4.796043   4.023983   2.673700   2.723780
    20  H    6.224733   6.861022   6.359516   5.059117   1.083467
    21  H    7.535091   8.483612   8.290786   7.105710   2.180626
    22  H    7.136550   8.357302   8.579287   7.655636   3.449222
    23  H    5.071393   6.411814   6.944150   6.324253   3.828238
    24  H    2.791021   4.116696   4.813085   4.493243   4.323598
    25  H    2.791021   4.116696   4.813085   4.493243   4.323598
                    6          7          8          9         10
     6  C    0.000000
     7  C    1.372927   0.000000
     8  C    2.352611   1.388273   0.000000
     9  C    4.247858   3.797419   2.505792   0.000000
    10  C    3.829575   4.353580   3.803559   2.881449   0.000000
    11  C    5.153936   5.013267   3.854520   1.497252   2.445620
    12  C    4.958001   5.203399   4.328407   2.534710   1.388246
    13  C    2.785790   2.489507   1.453488   1.464454   2.466131
    14  C    2.482809   2.899707   2.465980   2.483270   1.453901
    15  H    6.918714   6.461614   5.118923   2.688773   4.565503
    16  H    8.500128   8.352168   7.122340   4.623357   5.239567
    17  H    8.332215   8.585335   7.611090   5.377828   4.558118
    18  H    6.446161   7.002962   6.332967   4.690057   2.655808
    19  H    4.172949   4.966683   4.651925   3.962155   1.081137
    20  H    2.177076   3.412013   3.827855   4.609992   2.716874
    21  H    1.082128   2.142671   3.352199   5.328863   4.665479
    22  H    2.146900   1.078622   2.155941   4.661373   5.432134
    23  H    3.346782   2.149990   1.083990   2.666857   4.640869
    24  H    4.669264   4.033338   2.708970   1.105949   3.678857
    25  H    4.669264   4.033338   2.708970   1.105949   3.678857
                   11         12         13         14         15
    11  C    0.000000
    12  C    1.430144   0.000000
    13  C    2.524250   2.874921   0.000000
    14  C    2.863085   2.475349   1.386451   0.000000
    15  H    2.124069   3.402892   4.135443   4.866007   0.000000
    16  H    3.361076   3.851322   5.872268   6.118166   2.458109
    17  H    3.880581   3.396356   6.177934   5.854237   4.287835
    18  H    3.430579   2.158297   4.901807   4.106459   4.957215
    19  H    3.428812   2.147221   3.427945   2.187834   5.514762
    20  H    4.884012   4.097105   3.346984   2.134688   6.957143
    21  H    6.194252   5.889241   3.865708   3.432714   7.995369
    22  H    5.972495   6.255587   3.471813   3.978290   7.257325
    23  H    4.153681   4.922472   2.176017   3.421212   4.973943
    24  H    2.159486   3.291008   2.079857   3.205682   2.713553
    25  H    2.159486   3.291008   2.079857   3.205682   2.713553
                   16         17         18         19         20
    16  H    0.000000
    17  H    2.468384   0.000000
    18  H    4.267178   2.465766   0.000000
    19  H    5.860440   4.725598   2.429701   0.000000
    20  H    7.940669   7.166528   4.935598   2.506058   0.000000
    21  H    9.522479   9.218224   7.195335   4.819656   2.461895
    22  H    9.272401   9.623757   8.080600   6.031074   4.314324
    23  H    7.200502   8.024731   7.027523   5.572641   4.910941
    24  H    4.846373   5.870437   5.386407   4.736055   5.256743
    25  H    4.846373   5.870437   5.386407   4.736055   5.256743
                   21         22         23         24         25
    21  H    0.000000
    22  H    2.500441   0.000000
    23  H    4.270229   2.496697   0.000000
    24  H    5.733134   4.766762   2.582760   0.000000
    25  H    5.733134   4.766762   2.582760   1.718070   0.000000
 Stoichiometry    C14H11(1+)
 Framework group  CS[SG(C14H9),X(H2)]
 Deg. of freedom    46
 Full point group                 CS      NOp   2
 Largest Abelian subgroup         CS      NOp   2
 Largest concise Abelian subgroup CS      NOp   2
                         Standard orientation:                         
 ---------------------------------------------------------------------
 Center     Atomic      Atomic             Coordinates (Angstroms)
 Number     Number       Type             X           Y           Z
 ---------------------------------------------------------------------
      1          6           0        0.098256   -2.808845    0.000000
      2          6           0        1.324118   -3.475165    0.000000
      3          6           0        2.529503   -2.765214    0.000000
      4          6           0        2.514943   -1.409123    0.000000
      5          6           0       -0.060887    2.790251    0.000000
      6          6           0       -1.317453    3.518038    0.000000
      7          6           0       -2.517902    2.851817    0.000000
      8          6           0       -2.465454    1.464535    0.000000
      9          6           0       -1.254738   -0.729357    0.000000
     10          6           0        1.256917    0.682855    0.000000
     11          6           0        0.058287   -1.448892    0.000000
     12          6           0        1.279857   -0.705201    0.000000
     13          6           0       -1.208676    0.734373    0.000000
     14          6           0        0.000000    1.413600    0.000000
     15          1           0       -0.820197   -3.382784    0.000000
     16          1           0        1.339833   -4.556056    0.000000
     17          1           0        3.466909   -3.303669    0.000000
     18          1           0        3.434058   -0.838122    0.000000
     19          1           0        2.181225    1.243669    0.000000
     20          1           0        0.854568    3.369771    0.000000
     21          1           0       -1.278224    4.599455    0.000000
     22          1           0       -3.459749    3.377507    0.000000
     23          1           0       -3.379673    0.882094    0.000000
     24          1           0       -1.879689   -1.036956    0.859035
     25          1           0       -1.879689   -1.036956   -0.859035
 ---------------------------------------------------------------------
 Rotational constants (GHZ):           2.1376080           0.4446079           0.3688541
 Standard basis: 6-311++G(d,p) (5D, 7F)
 There are   299 symmetry adapted cartesian basis functions of A'  symmetry.
 There are   100 symmetry adapted cartesian basis functions of A"  symmetry.
 There are   285 symmetry adapted basis functions of A'  symmetry.
 There are   100 symmetry adapted basis functions of A"  symmetry.
   385 basis functions,   603 primitive gaussians,   399 cartesian basis functions
    47 alpha electrons       47 beta electrons
       nuclear repulsion energy       781.3820421380 Hartrees.
 NAtoms=   25 NActive=   25 NUniq=   24 SFac= 1.09D+00 NAtFMM=   60 NAOKFM=F Big=F
 Integral buffers will be    131072 words long.
 Regular integral format.
 Two-electron integral symmetry is turned on.
 Nuclear repulsion after empirical dispersion term =      781.3810633627 Hartrees.
 One-electron integrals computed using PRISM.
 NBasis=   385 RedAO= T EigKep=  1.11D-06  NBF=   285   100
 NBsUse=   379 1.00D-06 EigRej=  8.33D-07 NBFU=   279   100
 ExpMin= 3.60D-02 ExpMax= 4.56D+03 ExpMxC= 6.82D+02 IAcc=3 IRadAn=         5 AccDes= 0.00D+00
 Harris functional with IExCor= 1009 and IRadAn=       5 diagonalized for initial guess.
 HarFok:  IExCor= 1009 AccDes= 0.00D+00 IRadAn=         5 IDoV= 1 UseB2=F ITyADJ=14
 ICtDFT=  3500011 ScaDFX=  1.000000  1.000000  1.000000  1.000000
 FoFCou: FMM=F IPFlag=           0 FMFlag=      100000 FMFlg1=           0
         NFxFlg=           0 DoJE=T BraDBF=F KetDBF=T FulRan=T
         wScrn=  0.000000 ICntrl=       500 IOpCl=  0 I1Cent=   200000004 NGrid=           0
         NMat0=    1 NMatS0=      1 NMatT0=    0 NMatD0=    1 NMtDS0=    0 NMtDT0=    0
 Petite list used in FoFCou.
 Initial guess orbital symmetries:
       Occupied  (A') (A') (A') (A') (A') (A') (A') (A') (A') (A')
                 (A') (A') (A') (A') (A') (A') (A') (A') (A') (A')
                 (A') (A') (A') (A') (A') (A') (A') (A') (A') (A')
                 (A') (A') (A") (A') (A') (A') (A') (A') (A") (A')
                 (A") (A') (A') (A") (A") (A") (A")
       Virtual   (A") (A") (A") (A") (A") (A') (A') (A') (A') (A")
                 (A") (A') (A') (A') (A") (A') (A') (A') (A') (A")
                 (A') (A") (A') (A') (A') (A") (A') (A') (A") (A')
                 (A') (A') (A') (A') (A") (A') (A") (A') (A') (A')
                 (A") (A') (A") (A') (A') (A') (A') (A') (A") (A')
                 (A') (A') (A") (A") (A') (A') (A') (A") (A") (A')
                 (A') (A') (A') (A') (A') (A') (A") (A') (A') (A")
                 (A') (A') (A') (A') (A') (A') (A') (A') (A') (A')
                 (A') (A') (A') (A') (A') (A') (A') (A') (A') (A')
                 (A') (A') (A') (A') (A') (A') (A') (A") (A') (A")
                 (A') (A") (A') (A") (A') (A") (A') (A") (A") (A')
                 (A") (A') (A') (A') (A") (A') (A') (A") (A") (A')
                 (A") (A") (A') (A') (A') (A") (A') (A') (A') (A")
                 (A') (A') (A') (A') (A') (A') (A") (A') (A') (A')
                 (A') (A') (A') (A') (A') (A') (A') (A') (A') (A")
                 (A") (A') (A") (A") (A') (A') (A') (A") (A') (A")
                 (A") (A') (A") (A") (A") (A') (A') (A') (A') (A')
                 (A') (A") (A') (A') (A") (A') (A') (A') (A') (A")
                 (A') (A') (A') (A') (A") (A") (A') (A') (A") (A")
                 (A") (A') (A') (A") (A') (A') (A') (A") (A') (A')
                 (A") (A") (A") (A') (A') (A") (A') (A") (A') (A')
                 (A") (A") (A') (A") (A') (A") (A') (A') (A') (A')
                 (A") (A') (A') (A') (A") (A') (A') (A') (A") (A")
                 (A') (A') (A') (A") (A') (A') (A") (A') (A") (A')
                 (A") (A') (A') (A') (A') (A") (A') (A') (A') (A")
                 (A') (A') (A') (A") (A") (A') (A') (A") (A') (A')
                 (A') (A") (A') (A") (A') (A') (A') (A") (A') (A")
                 (A') (A') (A') (A') (A") (A') (A") (A') (A") (A")
                 (A') (A') (A") (A") (A") (A') (A') (A') (A') (A')
                 (A') (A') (A') (A') (A') (A') (A') (A') (A') (A')
                 (A') (A') (A') (A") (A') (A') (A') (A') (A') (A')
                 (A') (A') (A') (A') (A') (A') (A') (A') (A') (A')
                 (A') (A') (A') (A') (A') (A') (A') (A') (A') (A')
                 (A') (A')
 The electronic state of the initial guess is 1-A'.
 Requested convergence on RMS density matrix=1.00D-08 within 128 cycles.
 Requested convergence on MAX density matrix=1.00D-06.
 Requested convergence on             energy=1.00D-06.
 No special actions if energy rises.
 SCF Done:  E(RM062X) =  -539.749285397     A.U. after   16 cycles
            NFock= 16  Conv=0.34D-08     -V/T= 2.0041
 DoSCS=F DFT=T ScalE2(SS,OS)=  1.000000  1.000000
 ExpMin= 3.60D-02 ExpMax= 4.56D+03 ExpMxC= 6.82D+02 IAcc=3 IRadAn=         5 AccDes= 0.00D+00
 HarFok:  IExCor=  205 AccDes= 0.00D+00 IRadAn=         5 IDoV=-2 UseB2=F ITyADJ=14
 ICtDFT= 12500011 ScaDFX=  1.000000  1.000000  1.000000  1.000000
 Range of M.O.s used for correlation:    15   379
 NBasis=   385 NAE=    47 NBE=    47 NFC=    14 NFV=     0
 NROrb=    365 NOA=    33 NOB=    33 NVA=   332 NVB=   332

 **** Warning!!: The largest alpha MO coefficient is  0.14010488D+03

 Orbital symmetries:
       Occupied  (A') (A') (A') (A') (A') (A') (A') (A') (A') (A')
                 (A') (A') (A') (A') (A') (A') (A') (A') (A') (A')
                 (A') (A') (A') (A') (A') (A') (A') (A') (A') (A')
                 (A') (A") (A') (A') (A') (A') (A') (A") (A') (A")
                 (A') (A') (A') (A") (A") (A") (A")
       Virtual   (A") (A") (A") (A") (A') (A') (A') (A') (A") (A')
                 (A') (A") (A') (A') (A") (A') (A") (A') (A') (A')
                 (A") (A") (A') (A') (A') (A") (A') (A") (A') (A')
                 (A") (A') (A") (A') (A') (A') (A') (A') (A") (A')
                 (A") (A') (A') (A") (A") (A') (A") (A') (A") (A')
                 (A') (A') (A') (A') (A') (A") (A') (A') (A') (A')
                 (A') (A") (A') (A') (A') (A") (A') (A') (A') (A')
                 (A') (A') (A') (A') (A') (A') (A') (A') (A') (A')
                 (A') (A') (A') (A') (A') (A') (A') (A') (A') (A')
                 (A') (A') (A') (A') (A") (A') (A") (A") (A') (A")
                 (A') (A') (A') (A') (A") (A") (A') (A") (A") (A')
                 (A') (A") (A') (A') (A") (A') (A') (A") (A') (A")
                 (A") (A') (A") (A') (A') (A') (A") (A') (A') (A')
                 (A') (A') (A') (A') (A') (A') (A') (A') (A') (A')
                 (A') (A') (A') (A") (A') (A') (A') (A') (A') (A')
                 (A') (A") (A') (A') (A") (A') (A") (A") (A') (A")
                 (A") (A') (A') (A") (A') (A") (A") (A") (A') (A')
                 (A') (A') (A") (A') (A') (A") (A') (A') (A') (A")
                 (A') (A') (A') (A") (A") (A') (A') (A") (A") (A')
                 (A") (A') (A') (A") (A') (A") (A') (A') (A') (A')
                 (A") (A") (A") (A') (A") (A') (A') (A") (A') (A')
                 (A') (A") (A') (A") (A") (A') (A") (A') (A') (A")
                 (A') (A') (A') (A') (A") (A') (A') (A') (A") (A")
                 (A') (A') (A') (A") (A') (A') (A') (A") (A") (A')
                 (A") (A') (A') (A") (A') (A') (A') (A') (A') (A')
                 (A") (A') (A') (A') (A') (A") (A") (A") (A') (A')
                 (A') (A') (A') (A') (A') (A') (A') (A") (A') (A')
                 (A') (A") (A') (A") (A") (A") (A') (A") (A") (A')
                 (A') (A") (A") (A') (A") (A") (A') (A') (A') (A')
                 (A') (A') (A') (A') (A') (A') (A') (A') (A') (A')
                 (A') (A') (A') (A") (A') (A') (A') (A') (A') (A')
                 (A') (A') (A') (A') (A') (A') (A') (A') (A') (A')
                 (A') (A') (A') (A') (A') (A') (A') (A') (A') (A')
                 (A') (A')
     4 initial guesses have been made.
 Convergence on wavefunction:    0.001000000000000
 Iteration     1 Dimension     4 NMult     0 NNew      4
 CISAX will form     4 AO SS matrices at one time.
 Iteration     2 Dimension     6 NMult     4 NNew      2
 Iteration     3 Dimension     8 NMult     6 NNew      2
 Iteration     4 Dimension    10 NMult     8 NNew      2
 Iteration     5 Dimension    12 NMult    10 NNew      2
 Iteration     6 Dimension    14 NMult    12 NNew      2
 ***********************************************************************
 Excited states from <AA,BB:AA,BB> singles matrix:
 ***********************************************************************
 
 Ground to excited state transition densities written to RWF  633
 Ground to excited state transition electric dipole moments (Au):
       state          X           Y           Z        Dip. S.      Osc.
         1        -0.4858     -0.2004     -0.0000      0.2762      0.0175
 Ground to excited state transition velocity dipole moments (Au):
       state          X           Y           Z        Dip. S.      Osc.
         1         0.0497      0.0261     -0.0000      0.0032      0.0221
 Ground to excited state transition magnetic dipole moments (Au):
       state          X           Y           Z
         1         0.0000     -0.0000     -0.1614
 Ground to excited state transition velocity quadrupole moments (Au):
       state          XX          YY          ZZ          XY          XZ          YZ
         1        -0.0033      0.2440     -0.0077     -0.0472      0.0000      0.0000
 <0|del|b> * <b|rxdel|0> + <0|del|b> * <b|delr+rdel|0>
 Rotatory Strengths (R) in cgs (10**-40 erg-esu-cm/Gauss)
       state          XX          YY          ZZ    R(velocity)    E-M Angle
         1        -0.0000      0.0000     -0.0000      0.0000       90.00
 1/2[<0|r|b>*<b|rxdel|0> + (<0|rxdel|b>*<b|r|0>)*]
 Rotatory Strengths (R) in cgs (10**-40 erg-esu-cm/Gauss)
       state          XX          YY          ZZ     R(length)
         1         0.0000     -0.0000     -0.0000     -0.0000
  1/2[<0|del|b>*<b|r|0> + (<0|r|b>*<b|del|0>)*] (Au)
       state          X           Y           Z        Dip. S.   Osc.(frdel)
         1        -0.0242     -0.0052      0.0000      0.0294      0.0196

 Excitation energies and oscillator strengths:
 
 Excited State   1:      Singlet-A'     2.5885 eV  478.98 nm  f=0.0175  <S**2>=0.000
      47 -> 48         0.70341
 This state for optimization and/or second-order correction.
 Total Energy, E(TD-HF/TD-DFT) =  -539.654159682    
 Copying the excited state density for this state as the 1-particle RhoCI density.
 SavETr:  write IOETrn=   770 NScale= 10 NData=  16 NLR=1 NState=    1 LETran=      28.

 **********************************************************************

            Population analysis using the SCF Density.

 **********************************************************************

 Orbital symmetries:
       Occupied  (A') (A') (A') (A') (A') (A') (A') (A') (A') (A')
                 (A') (A') (A') (A') (A') (A') (A') (A') (A') (A')
                 (A') (A') (A') (A') (A') (A') (A') (A') (A') (A')
                 (A') (A") (A') (A') (A') (A') (A') (A") (A') (A")
                 (A') (A') (A') (A") (A") (A") (A")
       Virtual   (A") (A") (A") (A") (A') (A') (A') (A') (A") (A')
                 (A') (A") (A') (A') (A") (A') (A") (A') (A') (A')
                 (A") (A") (A') (A') (A') (A") (A') (A") (A') (A')
                 (A") (A') (A") (A') (A') (A') (A') (A') (A") (A')
                 (A") (A') (A') (A") (A") (A') (A") (A') (A") (A')
                 (A') (A') (A') (A') (A') (A") (A') (A') (A') (A')
                 (A') (A") (A') (A') (A') (A") (A') (A') (A') (A')
                 (A') (A') (A') (A') (A') (A') (A') (A') (A') (A')
                 (A') (A') (A') (A') (A') (A') (A') (A') (A') (A')
                 (A') (A') (A') (A') (A") (A') (A") (A") (A') (A")
                 (A') (A') (A') (A') (A") (A") (A') (A") (A") (A')
                 (A') (A") (A') (A') (A") (A') (A') (A") (A') (A")
                 (A") (A') (A") (A') (A') (A') (A") (A') (A') (A')
                 (A') (A') (A') (A') (A') (A') (A') (A') (A') (A')
                 (A') (A') (A') (A") (A') (A') (A') (A') (A') (A')
                 (A') (A") (A') (A') (A") (A') (A") (A") (A') (A")
                 (A") (A') (A') (A") (A') (A") (A") (A") (A') (A')
                 (A') (A') (A") (A') (A') (A") (A') (A') (A') (A")
                 (A') (A') (A') (A") (A") (A') (A') (A") (A") (A')
                 (A") (A') (A') (A") (A') (A") (A') (A') (A') (A')
                 (A") (A") (A") (A') (A") (A') (A') (A") (A') (A')
                 (A') (A") (A') (A") (A") (A') (A") (A') (A') (A")
                 (A') (A') (A') (A') (A") (A') (A') (A') (A") (A")
                 (A') (A') (A') (A") (A') (A') (A') (A") (A") (A')
                 (A") (A') (A') (A") (A') (A') (A') (A') (A') (A')
                 (A") (A') (A') (A') (A') (A") (A") (A") (A') (A')
                 (A') (A') (A') (A') (A') (A') (A') (A") (A') (A')
                 (A') (A") (A') (A") (A") (A") (A') (A") (A") (A')
                 (A') (A") (A") (A') (A") (A") (A') (A') (A') (A')
                 (A') (A') (A') (A') (A') (A') (A') (A') (A') (A')
                 (A') (A') (A') (A") (A') (A') (A') (A') (A') (A')
                 (A') (A') (A') (A') (A') (A') (A') (A') (A') (A')
                 (A') (A') (A') (A') (A') (A') (A') (A') (A') (A')
                 (A') (A')
 The electronic state is 1-A'.
 Alpha  occ. eigenvalues --  -10.77516 -10.73918 -10.72938 -10.72494 -10.72350
 Alpha  occ. eigenvalues --  -10.71997 -10.71784 -10.70980 -10.70643 -10.70296
 Alpha  occ. eigenvalues --  -10.70027 -10.69801 -10.69647 -10.69216  -1.16628
 Alpha  occ. eigenvalues --   -1.12489  -1.06933  -1.05969  -1.01269  -1.00573
 Alpha  occ. eigenvalues --   -0.95440  -0.91014  -0.86459  -0.85891  -0.83757
 Alpha  occ. eigenvalues --   -0.78292  -0.76226  -0.74343  -0.69900  -0.69364
 Alpha  occ. eigenvalues --   -0.68209  -0.68079  -0.68005  -0.65509  -0.64230
 Alpha  occ. eigenvalues --   -0.62635  -0.61423  -0.60621  -0.59194  -0.59098
 Alpha  occ. eigenvalues --   -0.56974  -0.55267  -0.54400  -0.52439  -0.47656
 Alpha  occ. eigenvalues --   -0.46139  -0.43452
 Alpha virt. eigenvalues --   -0.26110  -0.14667  -0.14062  -0.12749  -0.11200
 Alpha virt. eigenvalues --   -0.10102  -0.09277  -0.07946  -0.07895  -0.07490
 Alpha virt. eigenvalues --   -0.07221  -0.07130  -0.05647  -0.05570  -0.05367
 Alpha virt. eigenvalues --   -0.03866  -0.03678  -0.03269  -0.03130  -0.02149
 Alpha virt. eigenvalues --   -0.01337  -0.00975   0.00180   0.00593   0.00641
 Alpha virt. eigenvalues --    0.01070   0.01496   0.01924   0.02102   0.02302
 Alpha virt. eigenvalues --    0.02447   0.02677   0.02830   0.03200   0.03468
 Alpha virt. eigenvalues --    0.04205   0.04497   0.04738   0.05044   0.05407
 Alpha virt. eigenvalues --    0.06015   0.06288   0.06566   0.07068   0.07280
 Alpha virt. eigenvalues --    0.07914   0.08039   0.08348   0.08707   0.08895
 Alpha virt. eigenvalues --    0.09450   0.09591   0.09928   0.10791   0.10940
 Alpha virt. eigenvalues --    0.11133   0.12056   0.12248   0.12598   0.13054
 Alpha virt. eigenvalues --    0.13495   0.13523   0.13961   0.14278   0.15747
 Alpha virt. eigenvalues --    0.16348   0.16556   0.17320   0.17352   0.17746
 Alpha virt. eigenvalues --    0.18137   0.19061   0.19374   0.19744   0.20051
 Alpha virt. eigenvalues --    0.21458   0.21696   0.22637   0.23226   0.23593
 Alpha virt. eigenvalues --    0.24007   0.24488   0.25444   0.26966   0.27631
 Alpha virt. eigenvalues --    0.28889   0.29239   0.29992   0.31361   0.35763
 Alpha virt. eigenvalues --    0.36520   0.38235   0.39288   0.40978   0.41195
 Alpha virt. eigenvalues --    0.42009   0.42029   0.42983   0.43730   0.44462
 Alpha virt. eigenvalues --    0.44723   0.45164   0.45804   0.46502   0.47823
 Alpha virt. eigenvalues --    0.48314   0.48739   0.49039   0.50602   0.51100
 Alpha virt. eigenvalues --    0.51174   0.52163   0.52240   0.52719   0.54143
 Alpha virt. eigenvalues --    0.54260   0.54600   0.55588   0.56101   0.57581
 Alpha virt. eigenvalues --    0.58211   0.59087   0.61561   0.62288   0.62494
 Alpha virt. eigenvalues --    0.63140   0.63466   0.64951   0.65185   0.67670
 Alpha virt. eigenvalues --    0.70214   0.70410   0.71358   0.72607   0.72955
 Alpha virt. eigenvalues --    0.75454   0.76078   0.76492   0.76696   0.77131
 Alpha virt. eigenvalues --    0.77899   0.78120   0.78359   0.79935   0.80390
 Alpha virt. eigenvalues --    0.81224   0.81531   0.82581   0.82988   0.85314
 Alpha virt. eigenvalues --    0.86977   0.87878   0.88207   0.89452   0.90722
 Alpha virt. eigenvalues --    0.91065   0.91584   0.93400   0.94588   0.96217
 Alpha virt. eigenvalues --    0.97071   0.99909   1.01314   1.01404   1.02668
 Alpha virt. eigenvalues --    1.02930   1.03346   1.04997   1.06851   1.09037
 Alpha virt. eigenvalues --    1.19621   1.22743   1.23745   1.24200   1.29049
 Alpha virt. eigenvalues --    1.29535   1.32590   1.34215   1.35750   1.35937
 Alpha virt. eigenvalues --    1.39252   1.39410   1.40666   1.42834   1.43333
 Alpha virt. eigenvalues --    1.43384   1.44404   1.46385   1.46538   1.47444
 Alpha virt. eigenvalues --    1.47753   1.48433   1.51878   1.53731   1.55710
 Alpha virt. eigenvalues --    1.55890   1.56237   1.56604   1.57883   1.61544
 Alpha virt. eigenvalues --    1.62758   1.63391   1.64376   1.66093   1.68248
 Alpha virt. eigenvalues --    1.68469   1.68725   1.69910   1.74485   1.76082
 Alpha virt. eigenvalues --    1.77217   1.78120   1.79773   1.79943   1.81021
 Alpha virt. eigenvalues --    1.82640   1.83171   1.83655   1.83813   1.84176
 Alpha virt. eigenvalues --    1.84760   1.85321   1.86583   1.88485   1.91479
 Alpha virt. eigenvalues --    1.92250   1.94045   1.95498   1.97895   1.98185
 Alpha virt. eigenvalues --    1.99898   2.02540   2.04710   2.07371   2.11683
 Alpha virt. eigenvalues --    2.12297   2.14404   2.15311   2.19098   2.21258
 Alpha virt. eigenvalues --    2.22695   2.28316   2.30509   2.34384   2.34700
 Alpha virt. eigenvalues --    2.36466   2.38535   2.39752   2.42330   2.44284
 Alpha virt. eigenvalues --    2.46094   2.46665   2.49088   2.53015   2.53790
 Alpha virt. eigenvalues --    2.54414   2.56842   2.57999   2.58522   2.59319
 Alpha virt. eigenvalues --    2.59978   2.61499   2.62172   2.63618   2.63704
 Alpha virt. eigenvalues --    2.64895   2.65034   2.65066   2.65754   2.68034
 Alpha virt. eigenvalues --    2.68355   2.70924   2.71524   2.73411   2.74815
 Alpha virt. eigenvalues --    2.76262   2.78268   2.79613   2.83365   2.83392
 Alpha virt. eigenvalues --    2.84883   2.86312   2.92154   2.97184   2.99373
 Alpha virt. eigenvalues --    3.00242   3.05074   3.08742   3.11120   3.14671
 Alpha virt. eigenvalues --    3.20352   3.21555   3.25803   3.29204   3.31064
 Alpha virt. eigenvalues --    3.32884   3.35181   3.44372   3.46541   3.46969
 Alpha virt. eigenvalues --    3.48447   3.50087   3.56504   3.65300   3.67262
 Alpha virt. eigenvalues --    3.68289   3.93198   3.93869   3.95275   3.96733
 Alpha virt. eigenvalues --    4.03857   4.06268   4.07816   4.12519   4.35234
 Alpha virt. eigenvalues --    4.60822   4.68697   4.70816  23.45123  23.59780
 Alpha virt. eigenvalues --   23.78671  23.80749  23.83882  23.89419  23.92277
 Alpha virt. eigenvalues --   23.95157  23.96090  23.98657  24.05390  24.08877
 Alpha virt. eigenvalues --   24.12041  24.15226
          Condensed to atoms (all electrons):
               1          2          3          4          5          6
     1  C    8.280218   0.621601  -0.689970   1.620960   0.011889  -0.080395
     2  C    0.621601   7.194467   0.447806  -0.939228  -0.050183  -0.015689
     3  C   -0.689970   0.447806   6.622738   0.692284  -0.107503   0.016856
     4  C    1.620960  -0.939228   0.692284  11.654191  -0.367865  -0.146092
     5  C    0.011889  -0.050183  -0.107503  -0.367865  10.515185   0.848923
     6  C   -0.080395  -0.015689   0.016856  -0.146092   0.848923   6.609024
     7  C   -0.041750   0.000023  -0.012709   0.024419  -1.232606   0.196382
     8  C    0.414956   0.002897  -0.109914  -0.103372   2.347581  -0.317288
     9  C   -1.176762  -0.881706   0.290833   0.125090  -0.500012   0.291497
    10  C   -1.151344   0.117535  -0.227681  -2.855914  -2.297679  -0.472617
    11  C    0.338445  -0.756343   0.843582  -0.337552  -1.386166  -0.085654
    12  C   -1.641754   0.918363  -1.321437  -1.612740  -0.173336  -0.321332
    13  C    0.181743  -0.205879  -0.246338  -1.619022  -0.342948   1.153385
    14  C   -1.178168  -0.335829  -0.085779  -0.515631  -1.607582  -1.550264
    15  H    0.365979  -0.104712  -0.003993   0.023572   0.006706   0.001295
    16  H   -0.019956   0.383445  -0.023153   0.018595  -0.001736  -0.000369
    17  H   -0.017443  -0.024405   0.383232  -0.070221   0.000045   0.000415
    18  H    0.045452   0.003855  -0.083076   0.469327   0.006397  -0.004973
    19  H   -0.042173  -0.008525   0.051061  -0.086735  -0.059292   0.051759
    20  H    0.006872   0.002001  -0.005314   0.006414   0.451803  -0.084060
    21  H   -0.001212  -0.000423   0.000374   0.000518  -0.065072   0.364942
    22  H    0.000265   0.000293  -0.000283  -0.001234   0.008680  -0.009739
    23  H    0.007278  -0.002159   0.000926   0.004108   0.030439   0.002331
    24  H    0.039103   0.016286  -0.001155  -0.010863  -0.013682  -0.001865
    25  H    0.039103   0.016286  -0.001155  -0.010863  -0.013682  -0.001865
               7          8          9         10         11         12
     1  C   -0.041750   0.414956  -1.176762  -1.151344   0.338445  -1.641754
     2  C    0.000023   0.002897  -0.881706   0.117535  -0.756343   0.918363
     3  C   -0.012709  -0.109914   0.290833  -0.227681   0.843582  -1.321437
     4  C    0.024419  -0.103372   0.125090  -2.855914  -0.337552  -1.612740
     5  C   -1.232606   2.347581  -0.500012  -2.297679  -1.386166  -0.173336
     6  C    0.196382  -0.317288   0.291497  -0.472617  -0.085654  -0.321332
     7  C    7.214953  -0.124795  -0.771063   0.385676  -0.333877  -0.031402
     8  C   -0.124795   9.132753  -1.135240  -1.420693   0.304406  -1.039691
     9  C   -0.771063  -1.135240   9.692076   0.237290   1.668345  -2.201511
    10  C    0.385676  -1.420693   0.237290   9.133502  -0.303036   2.368303
    11  C   -0.333877   0.304406   1.668345  -0.303036  14.652499  -4.223362
    12  C   -0.031402  -1.039691  -2.201511   2.368303  -4.223362  16.398747
    13  C   -1.026200   0.283767   1.460283  -0.541716   1.031389  -4.682177
    14  C    1.893484  -2.748971  -1.678095   2.487100  -4.841092   3.064268
    15  H   -0.003013   0.004674   0.086037  -0.006953  -0.029394  -0.007898
    16  H    0.000411   0.001172   0.001456  -0.010930   0.024743  -0.029268
    17  H   -0.000358  -0.001452  -0.004435   0.019835  -0.024591   0.082511
    18  H    0.002118   0.007055  -0.021737   0.006027  -0.010580  -0.044466
    19  H   -0.007329  -0.049007   0.074650   0.423079   0.077115  -0.095439
    20  H    0.001501   0.055053  -0.026566   0.016279  -0.012261  -0.005488
    21  H   -0.004089  -0.035074  -0.006778   0.020352  -0.006260   0.005293
    22  H    0.370627  -0.015338   0.004415  -0.007514   0.002183  -0.007030
    23  H   -0.108585   0.370843   0.098050  -0.011881   0.009997   0.003880
    24  H    0.012215   0.025115   0.357471   0.005669   0.028908  -0.059105
    25  H    0.012215   0.025115   0.357471   0.005669   0.028908  -0.059105
              13         14         15         16         17         18
     1  C    0.181743  -1.178168   0.365979  -0.019956  -0.017443   0.045452
     2  C   -0.205879  -0.335829  -0.104712   0.383445  -0.024405   0.003855
     3  C   -0.246338  -0.085779  -0.003993  -0.023153   0.383232  -0.083076
     4  C   -1.619022  -0.515631   0.023572   0.018595  -0.070221   0.469327
     5  C   -0.342948  -1.607582   0.006706  -0.001736   0.000045   0.006397
     6  C    1.153385  -1.550264   0.001295  -0.000369   0.000415  -0.004973
     7  C   -1.026200   1.893484  -0.003013   0.000411  -0.000358   0.002118
     8  C    0.283767  -2.748971   0.004674   0.001172  -0.001452   0.007055
     9  C    1.460283  -1.678095   0.086037   0.001456  -0.004435  -0.021737
    10  C   -0.541716   2.487100  -0.006953  -0.010930   0.019835   0.006027
    11  C    1.031389  -4.841092  -0.029394   0.024743  -0.024591  -0.010580
    12  C   -4.682177   3.064268  -0.007898  -0.029268   0.082511  -0.044466
    13  C   14.287264  -3.159963  -0.005162   0.003547  -0.006341  -0.012548
    14  C   -3.159963  15.835335   0.007889  -0.010931   0.005187  -0.023860
    15  H   -0.005162   0.007889   0.432183  -0.008739   0.001724   0.000257
    16  H    0.003547  -0.010931  -0.008739   0.414499  -0.007181   0.001989
    17  H   -0.006341   0.005187   0.001724  -0.007181   0.418610  -0.009943
    18  H   -0.012548  -0.023860   0.000257   0.001989  -0.009943   0.446248
    19  H    0.084538  -0.038135   0.000453  -0.000627   0.001847  -0.005618
    20  H   -0.001731  -0.069044  -0.000131   0.000021  -0.000175   0.001267
    21  H   -0.027181   0.098730   0.000018  -0.000007   0.000010  -0.000110
    22  H    0.026123  -0.033475  -0.000123   0.000007  -0.000007   0.000010
    23  H   -0.035881  -0.041608   0.000569  -0.000132   0.000009  -0.000097
    24  H   -0.002941  -0.059905  -0.000930   0.000621  -0.000129   0.000124
    25  H   -0.002941  -0.059905  -0.000930   0.000621  -0.000129   0.000124
              19         20         21         22         23         24
     1  C   -0.042173   0.006872  -0.001212   0.000265   0.007278   0.039103
     2  C   -0.008525   0.002001  -0.000423   0.000293  -0.002159   0.016286
     3  C    0.051061  -0.005314   0.000374  -0.000283   0.000926  -0.001155
     4  C   -0.086735   0.006414   0.000518  -0.001234   0.004108  -0.010863
     5  C   -0.059292   0.451803  -0.065072   0.008680   0.030439  -0.013682
     6  C    0.051759  -0.084060   0.364942  -0.009739   0.002331  -0.001865
     7  C   -0.007329   0.001501  -0.004089   0.370627  -0.108585   0.012215
     8  C   -0.049007   0.055053  -0.035074  -0.015338   0.370843   0.025115
     9  C    0.074650  -0.026566  -0.006778   0.004415   0.098050   0.357471
    10  C    0.423079   0.016279   0.020352  -0.007514  -0.011881   0.005669
    11  C    0.077115  -0.012261  -0.006260   0.002183   0.009997   0.028908
    12  C   -0.095439  -0.005488   0.005293  -0.007030   0.003880  -0.059105
    13  C    0.084538  -0.001731  -0.027181   0.026123  -0.035881  -0.002941
    14  C   -0.038135  -0.069044   0.098730  -0.033475  -0.041608  -0.059905
    15  H    0.000453  -0.000131   0.000018  -0.000123   0.000569  -0.000930
    16  H   -0.000627   0.000021  -0.000007   0.000007  -0.000132   0.000621
    17  H    0.001847  -0.000175   0.000010  -0.000007   0.000009  -0.000129
    18  H   -0.005618   0.001267  -0.000110   0.000010  -0.000097   0.000124
    19  H    0.444686  -0.007104   0.001017  -0.000451   0.000189   0.000609
    20  H   -0.007104   0.461032  -0.010386   0.001863   0.000008   0.000237
    21  H    0.001017  -0.010386   0.425686  -0.005647   0.001120  -0.000151
    22  H   -0.000451   0.001863  -0.005647   0.423143  -0.008777   0.000631
    23  H    0.000189   0.000008   0.001120  -0.008777   0.446699  -0.000849
    24  H    0.000609   0.000237  -0.000151   0.000631  -0.000849   0.493481
    25  H    0.000609   0.000237  -0.000151   0.000631  -0.000849  -0.079625
              25
     1  C    0.039103
     2  C    0.016286
     3  C   -0.001155
     4  C   -0.010863
     5  C   -0.013682
     6  C   -0.001865
     7  C    0.012215
     8  C    0.025115
     9  C    0.357471
    10  C    0.005669
    11  C    0.028908
    12  C   -0.059105
    13  C   -0.002941
    14  C   -0.059905
    15  H   -0.000930
    16  H    0.000621
    17  H   -0.000129
    18  H    0.000124
    19  H    0.000609
    20  H    0.000237
    21  H   -0.000151
    22  H    0.000631
    23  H   -0.000849
    24  H   -0.079625
    25  H    0.493481
 Mulliken charges:
               1
     1  C    0.067063
     2  C   -0.399776
     3  C   -0.430231
     4  C    0.037856
     5  C   -0.008304
     6  C   -0.444606
     7  C   -0.416249
     8  C    0.125448
     9  C   -0.341060
    10  C    0.081643
    11  C   -0.660350
    12  C    0.715175
    13  C   -0.593071
    14  C    0.646241
    15  H    0.240619
    16  H    0.261905
    17  H    0.253383
    18  H    0.226759
    19  H    0.188824
    20  H    0.217674
    21  H    0.244481
    22  H    0.250745
    23  H    0.234372
    24  H    0.250731
    25  H    0.250731
 Sum of Mulliken charges =   1.00000
 Mulliken charges with hydrogens summed into heavy atoms:
               1
     1  C    0.307682
     2  C   -0.137871
     3  C   -0.176848
     4  C    0.264615
     5  C    0.209369
     6  C   -0.200126
     7  C   -0.165504
     8  C    0.359820
     9  C    0.160402
    10  C    0.270467
    11  C   -0.660350
    12  C    0.715175
    13  C   -0.593071
    14  C    0.646241
 Electronic spatial extent (au):  <R**2>=           2855.5991
 Charge=              1.0000 electrons
 Dipole moment (field-independent basis, Debye):
    X=              0.8502    Y=             -1.1095    Z=              0.0000  Tot=              1.3978
 Quadrupole moment (field-independent basis, Debye-Ang):
   XX=            -48.9703   YY=            -38.2614   ZZ=            -84.1236
   XY=            -11.5071   XZ=              0.0000   YZ=             -0.0000
 Traceless Quadrupole moment (field-independent basis, Debye-Ang):
   XX=              8.1481   YY=             18.8570   ZZ=            -27.0052
   XY=            -11.5071   XZ=              0.0000   YZ=             -0.0000
 Octapole moment (field-independent basis, Debye-Ang**2):
  XXX=              5.5715  YYY=            -16.7807  ZZZ=             -0.0000  XYY=              3.5128
  XXY=              1.4106  XXZ=             -0.0000  XZZ=             -1.5997  YZZ=             -3.3193
  YYZ=              0.0000  XYZ=             -0.0000
 Hexadecapole moment (field-independent basis, Debye-Ang**3):
 XXXX=          -1085.8627 YYYY=          -1769.8100 ZZZZ=            -99.2961 XXXY=            368.3342
 XXXZ=             -0.0000 YYYX=            305.3742 YYYZ=             -0.0000 ZZZX=             -0.0000
 ZZZY=             -0.0000 XXYY=           -444.3667 XXZZ=           -267.6863 YYZZ=           -468.4898
 XXYZ=             -0.0000 YYXZ=             -0.0000 ZZXY=            198.4543
 N-N= 7.813810633627D+02 E-N=-2.799134598386D+03  KE= 5.375559683967D+02
 Symmetry A'   KE= 5.228975334112D+02
 Symmetry A"   KE= 1.465843498551D+01
 Unable to Open any file for archive entry.
 1\1\GINC-GADI-CPU-CLX-1762\SP\RM062X TD-FC\6-311++G(d,p)\C14H11(1+)\TS
 1578\02-Aug-2022\0\\#n M062X/6-311++G(d,p) TD(NStates=1) EmpiricalDisp
 ersion=GD3 SP\\SP_100\\1,1\C,0,2.457455,1.362231,0.\C,0,3.659908,0.654
 539,0.\C,0,3.672061,-0.74433,0.\C,0,2.502106,-1.430188,0.\C,0,-2.42410
 6,-1.384688,0.\C,0,-3.695061,-0.68233,0.\C,0,-3.742158,0.689789,0.\C,0
 ,-2.525955,1.359231,0.\C,0,-0.02185,1.451169,0.\C,0,0.061,-1.429089,0.
 \C,0,1.271105,0.696165,0.\C,0,1.262671,-0.733954,0.\C,0,-1.252855,0.65
 7915,0.\C,0,-1.212671,-0.727954,0.\H,0,2.476471,2.445097,0.\H,0,4.5945
 53,1.197689,0.\H,0,4.616362,-1.270599,0.\H,0,2.48595,-2.512109,0.\H,0,
 0.05625,-2.510216,0.\H,0,-2.44945,-2.467859,0.\H,0,-4.601862,-1.272849
 ,0.\H,0,-4.677803,1.226439,0.\H,0,-2.497471,2.442847,0.\H,0,-0.08,2.14
 5287,-0.859035\H,0,-0.08,2.145287,0.859035\\Version=ES64L-G16RevC.01\S
 tate=1-A'\HF=-539.7492854\RMSD=3.424e-09\PG=CS [SG(C14H9),X(H2)]\\@
 The archive entry for this job was punched.


 YE HAVE SOWN MUCH, AND BRING IN LITTLE.
 YE EAT, BUT YE HAVE NOT ENOUGH.
 YE DRINK, BUT YE ARE NOT FILLED WITH DRINK.
 YE CLOTHE YOU, BUT THERE IS NONE WARM.
 AND HE THAT EARNETH WAGES EARNETH WAGES TO PUT
 IT INTO A BAG WITH HOLES.
                                     HAGGAI I,6
 Job cpu time:       0 days  0 hours 53 minutes  4.3 seconds.
 Elapsed time:       0 days  0 hours  1 minutes  6.5 seconds.
 File lengths (MBytes):  RWF=    460 Int=      0 D2E=      0 Chk=     15 Scr=      1
 Normal termination of Gaussian 16 at Tue Aug  2 12:56:43 2022.
