 Entering Gaussian System, Link 0=g16
 Initial command:
 /apps/gaussian/g16c01/g16/l1.exe "/jobfs/53796104.gadi-pbs/Gau-3614578.inp" -scrdir="/jobfs/53796104.gadi-pbs/"
 Entering Link 1 = /apps/gaussian/g16c01/g16/l1.exe PID=   3614579.
  
 Copyright (c) 1988-2019, Gaussian, Inc.  All Rights Reserved.
  
 This is part of the Gaussian(R) 16 program.  It is based on
 the Gaussian(R) 09 system (copyright 2009, Gaussian, Inc.),
 the Gaussian(R) 03 system (copyright 2003, Gaussian, Inc.),
 the Gaussian(R) 98 system (copyright 1998, Gaussian, Inc.),
 the Gaussian(R) 94 system (copyright 1995, Gaussian, Inc.),
 the Gaussian 92(TM) system (copyright 1992, Gaussian, Inc.),
 the Gaussian 90(TM) system (copyright 1990, Gaussian, Inc.),
 the Gaussian 88(TM) system (copyright 1988, Gaussian, Inc.),
 the Gaussian 86(TM) system (copyright 1986, Carnegie Mellon
 University), and the Gaussian 82(TM) system (copyright 1983,
 Carnegie Mellon University). Gaussian is a federally registered
 trademark of Gaussian, Inc.
  
 This software contains proprietary and confidential information,
 including trade secrets, belonging to Gaussian, Inc.
  
 This software is provided under written license and may be
 used, copied, transmitted, or stored only in accord with that
 written license.
  
 The following legend is applicable only to US Government
 contracts under FAR:
  
                    RESTRICTED RIGHTS LEGEND
  
 Use, reproduction and disclosure by the US Government is
 subject to restrictions as set forth in subparagraphs (a)
 and (c) of the Commercial Computer Software - Restricted
 Rights clause in FAR 52.227-19.
  
 Gaussian, Inc.
 340 Quinnipiac St., Bldg. 40, Wallingford CT 06492
  
  
 ---------------------------------------------------------------
 Warning -- This program may not be used in any manner that
 competes with the business of Gaussian, Inc. or will provide
 assistance to any competitor of Gaussian, Inc.  The licensee
 of this program is prohibited from giving any competitor of
 Gaussian, Inc. access to this program.  By using this program,
 the user acknowledges that Gaussian, Inc. is engaged in the
 business of creating and licensing software in the field of
 computational chemistry and represents and warrants to the
 licensee that it is not a competitor of Gaussian, Inc. and that
 it will not use this program in any manner prohibited above.
 ---------------------------------------------------------------
  

 Cite this work as:
 Gaussian 16, Revision C.01,
 M. J. Frisch, G. W. Trucks, H. B. Schlegel, G. E. Scuseria, 
 M. A. Robb, J. R. Cheeseman, G. Scalmani, V. Barone, 
 G. A. Petersson, H. Nakatsuji, X. Li, M. Caricato, A. V. Marenich, 
 J. Bloino, B. G. Janesko, R. Gomperts, B. Mennucci, H. P. Hratchian, 
 J. V. Ortiz, A. F. Izmaylov, J. L. Sonnenberg, D. Williams-Young, 
 F. Ding, F. Lipparini, F. Egidi, J. Goings, B. Peng, A. Petrone, 
 T. Henderson, D. Ranasinghe, V. G. Zakrzewski, J. Gao, N. Rega, 
 G. Zheng, W. Liang, M. Hada, M. Ehara, K. Toyota, R. Fukuda, 
 J. Hasegawa, M. Ishida, T. Nakajima, Y. Honda, O. Kitao, H. Nakai, 
 T. Vreven, K. Throssell, J. A. Montgomery, Jr., J. E. Peralta, 
 F. Ogliaro, M. J. Bearpark, J. J. Heyd, E. N. Brothers, K. N. Kudin, 
 V. N. Staroverov, T. A. Keith, R. Kobayashi, J. Normand, 
 K. Raghavachari, A. P. Rendell, J. C. Burant, S. S. Iyengar, 
 J. Tomasi, M. Cossi, J. M. Millam, M. Klene, C. Adamo, R. Cammi, 
 J. W. Ochterski, R. L. Martin, K. Morokuma, O. Farkas, 
 J. B. Foresman, and D. J. Fox, Gaussian, Inc., Wallingford CT, 2019.
 
 ******************************************
 Gaussian 16:  ES64L-G16RevC.01  3-Jul-2019
                 2-Aug-2022 
 ******************************************
 %NProcShared=48
 Will use up to   48 processors via shared memory.
 %mem = 190GB
 ---------------------------------------------------------------
 #n M062X/6-311++G(d,p) TD(NStates=1) EmpiricalDispersion=GD3 SP
 ---------------------------------------------------------------
 1/38=1,172=1/1;
 2/12=2,17=6,18=5,40=1/2;
 3/5=4,6=6,7=1111,11=9,25=1,30=1,74=-55,124=31/1,2,3,8;
 4//1;
 5/5=2,38=5/2;
 8/6=1,10=2,108=1/1;
 9/41=1,42=1,70=2/14;
 6/7=2,8=2,9=2,10=2/1;
 99/5=1,9=1/99;
 ------
 SP_-50
 ------
 Symbolic Z-matrix:
 Charge =  1 Multiplicity = 1
 C                     2.48296   1.36163   0. 
 C                     3.69186   0.66899   0. 
 C                     3.68066  -0.71853   0. 
 C                     2.47081  -1.41179   0. 
 C                    -2.45521  -1.40269   0. 
 C                    -3.68526  -0.70613   0. 
 C                    -3.70831   0.67604   0. 
 C                    -2.49666   1.36103   0. 
 C                    -0.0043    1.44677   0. 
 C                     0.0122   -1.42889   0. 
 C                     1.26365   0.68082   0. 
 C                     1.24307  -0.73185   0. 
 C                    -1.26001   0.67317   0. 
 C                    -1.23307  -0.73065   0. 
 H                     2.48267   2.44485   0. 
 H                     4.6267    1.20994   0. 
 H                     4.61026  -1.27025   0. 
 H                     2.47165  -2.49426   0. 
 H                     0.01125  -2.51012   0. 
 H                    -2.46435  -2.48541   0. 
 H                    -4.60736  -1.2707    0. 
 H                    -4.64335   1.21569   0. 
 H                    -2.48687   2.4444    0. 
 H                    -0.016     2.14429  -0.85794 
 H                    -0.016     2.14429   0.85794 
 
                          Input orientation:                          
 ---------------------------------------------------------------------
 Center     Atomic      Atomic             Coordinates (Angstroms)
 Number     Number       Type             X           Y           Z
 ---------------------------------------------------------------------
      1          6           0        2.482955    1.361631    0.000000
      2          6           0        3.691858    0.668989    0.000000
      3          6           0        3.680661   -0.718530    0.000000
      4          6           0        2.470806   -1.411788    0.000000
      5          6           0       -2.455206   -1.402688    0.000000
      6          6           0       -3.685261   -0.706130    0.000000
      7          6           0       -3.708308    0.676039    0.000000
      8          6           0       -2.496655    1.361031    0.000000
      9          6           0       -0.004300    1.446769    0.000000
     10          6           0        0.012200   -1.428889    0.000000
     11          6           0        1.263655    0.680815    0.000000
     12          6           0        1.243071   -0.731854    0.000000
     13          6           0       -1.260005    0.673165    0.000000
     14          6           0       -1.233071   -0.730654    0.000000
     15          1           0        2.482671    2.444847    0.000000
     16          1           0        4.626703    1.209939    0.000000
     17          1           0        4.610262   -1.270249    0.000000
     18          1           0        2.471650   -2.494259    0.000000
     19          1           0        0.011250   -2.510116    0.000000
     20          1           0       -2.464350   -2.485409    0.000000
     21          1           0       -4.607362   -1.270699    0.000000
     22          1           0       -4.643353    1.215689    0.000000
     23          1           0       -2.486871    2.444397    0.000000
     24          1           0       -0.016000    2.144287   -0.857935
     25          1           0       -0.016000    2.144287    0.857935
 ---------------------------------------------------------------------
                    Distance matrix (angstroms):
                    1          2          3          4          5
     1  C    0.000000
     2  C    1.393269   0.000000
     3  C    2.400327   1.387564   0.000000
     4  C    2.773446   2.412592   1.394402   0.000000
     5  C    5.659231   6.486774   6.173891   4.926020   0.000000
     6  C    6.505576   7.504188   7.365932   6.196379   1.413587
     7  C    6.229107   7.400169   7.519421   6.522306   2.427215
     8  C    4.979610   6.227087   6.517960   5.688954   2.764030
     9  C    2.488712   3.777105   4.274045   3.781203   3.758503
    10  C    3.727148   4.235679   3.736605   2.458665   2.467545
    11  C    1.396497   2.428232   2.792863   2.415823   4.262735
    12  C    2.433103   2.821156   2.437626   1.403440   3.758626
    13  C    3.805750   4.951865   5.132932   4.273872   2.395344
    14  C    4.264564   5.119954   4.913747   3.765986   1.394720
    15  H    1.083216   2.148442   3.382622   3.856653   6.259885
    16  H    2.149108   1.080075   2.148020   3.394311   7.548460
    17  H    3.384114   2.145719   1.080996   2.144133   7.066709
    18  H    3.855907   3.390434   2.148237   1.082471   5.046329
    19  H    4.593446   4.863495   4.083425   2.693648   2.703665
    20  H    6.267020   6.917306   6.393983   5.050587   1.082760
    21  H    7.563184   8.522878   8.306396   7.079574   2.156200
    22  H    7.127802   8.353121   8.545783   7.583857   3.412314
    23  H    5.086409   6.428745   6.931274   6.280822   3.847215
    24  H    2.755609   4.081760   4.753638   4.423339   4.389397
    25  H    2.755609   4.081760   4.753638   4.423339   4.389397
                    6          7          8          9         10
     6  C    0.000000
     7  C    1.382361   0.000000
     8  C    2.384521   1.391875   0.000000
     9  C    4.264323   3.783345   2.493829   0.000000
    10  C    3.767439   4.274681   3.752067   2.875705   0.000000
    11  C    5.139590   4.971965   3.821338   1.481349   2.452955
    12  C    4.928399   5.147652   4.285524   2.510445   1.414532
    13  C    2.790040   2.448305   1.415084   1.474876   2.457059
    14  C    2.452313   2.847031   2.443725   2.500210   1.427667
    15  H    6.926185   6.438703   5.095914   2.679773   4.594459
    16  H    8.529951   8.352093   7.124960   4.637055   5.315736
    17  H    8.314682   8.543222   7.578384   5.355032   4.600798
    18  H    6.411315   6.945694   6.288666   4.654249   2.680281
    19  H    4.113218   4.897621   4.612523   3.956916   1.081227
    20  H    2.157883   3.397379   3.846576   4.638305   2.692496
    21  H    1.081207   2.144315   3.373587   5.345354   4.622270
    22  H    2.147400   1.079598   2.151613   4.644805   5.354248
    23  H    3.370751   2.149186   1.083410   2.675522   4.609523
    24  H    4.724871   4.065088   2.739195   1.105767   3.674838
    25  H    4.724871   4.065088   2.739195   1.105767   3.674838
                   11         12         13         14         15
    11  C    0.000000
    12  C    1.412819   0.000000
    13  C    2.523672   2.870447   0.000000
    14  C    2.868080   2.476142   1.404077   0.000000
    15  H    2.144250   3.409991   4.140831   4.887796   0.000000
    16  H    3.404418   3.901221   5.911130   6.172751   2.474241
    17  H    3.873813   3.409963   6.183599   5.868194   4.281189
    18  H    3.397109   2.148366   4.894673   4.103079   4.939118
    19  H    3.427909   2.163238   3.427735   2.171364   5.537109
    20  H    4.891114   4.101210   3.380390   2.143645   6.984300
    21  H    6.186861   5.875195   3.870840   3.417234   8.004614
    22  H    5.931175   6.200235   3.426569   3.926611   7.231255
    23  H    4.144474   4.899085   2.154638   3.413644   4.969542
    24  H    2.124928   3.254766   2.108981   3.237684   2.658899
    25  H    2.124928   3.254766   2.108981   3.237684   2.658899
                   16         17         18         19         20
    16  H    0.000000
    17  H    2.480242   0.000000
    18  H    4.285480   2.464115   0.000000
    19  H    5.928003   4.763211   2.460451   0.000000
    20  H    7.996163   7.178213   4.936008   2.475723   0.000000
    21  H    9.561460   9.217624   7.183976   4.782022   2.463335
    22  H    9.270058   9.581716   8.024150   5.962126   4.294902
    23  H    7.219891   8.010486   6.998375   5.548676   4.929857
    24  H    4.812873   5.813554   5.332970   4.732892   5.307029
    25  H    4.812873   5.813554   5.332970   4.732892   5.307029
                   21         22         23         24         25
    21  H    0.000000
    22  H    2.486648   0.000000
    23  H    4.277665   2.481963   0.000000
    24  H    5.786086   4.796951   2.632740   0.000000
    25  H    5.786086   4.796951   2.632740   1.715870   0.000000
 Stoichiometry    C14H11(1+)
 Framework group  CS[SG(C14H9),X(H2)]
 Deg. of freedom    46
 Full point group                 CS      NOp   2
 Largest Abelian subgroup         CS      NOp   2
 Largest concise Abelian subgroup CS      NOp   2
                         Standard orientation:                         
 ---------------------------------------------------------------------
 Center     Atomic      Atomic             Coordinates (Angstroms)
 Number     Number       Type             X           Y           Z
 ---------------------------------------------------------------------
      1          6           0       -2.371174   -1.548394    0.000000
      2          6           0       -2.329995   -2.941055    0.000000
      3          6           0       -1.100944   -3.585079    0.000000
      4          6           0        0.080673   -2.844716    0.000000
      5          6           0        2.394142    1.504254    0.000000
      6          6           0        2.359478    2.917416    0.000000
      7          6           0        1.151284    3.589122    0.000000
      8          6           0       -0.023890    2.843277    0.000000
      9          6           0       -1.274089    0.685457    0.000000
     10          6           0        1.254430   -0.684315    0.000000
     11          6           0       -1.196079   -0.793837    0.000000
     12          6           0        0.059578   -1.441435    0.000000
     13          6           0        0.000000    1.428394    0.000000
     14          6           0        1.225458    0.743057    0.000000
     15          1           0       -3.326423   -1.037654    0.000000
     16          1           0       -3.247673   -3.510642    0.000000
     17          1           0       -1.052430   -4.664986    0.000000
     18          1           0        1.035001   -3.355599    0.000000
     19          1           0        2.208506   -1.193030    0.000000
     20          1           0        3.353398    1.002062    0.000000
     21          1           0        3.291982    3.464631    0.000000
     22          1           0        1.115980    4.668142    0.000000
     23          1           0       -0.984016    3.345208    0.000000
     24          1           0       -1.883777    1.024497    0.857935
     25          1           0       -1.883777    1.024497   -0.857935
 ---------------------------------------------------------------------
 Rotational constants (GHZ):           2.1384119           0.4449442           0.3691074
 Standard basis: 6-311++G(d,p) (5D, 7F)
 There are   299 symmetry adapted cartesian basis functions of A'  symmetry.
 There are   100 symmetry adapted cartesian basis functions of A"  symmetry.
 There are   285 symmetry adapted basis functions of A'  symmetry.
 There are   100 symmetry adapted basis functions of A"  symmetry.
   385 basis functions,   603 primitive gaussians,   399 cartesian basis functions
    47 alpha electrons       47 beta electrons
       nuclear repulsion energy       781.4993610494 Hartrees.
 NAtoms=   25 NActive=   25 NUniq=   24 SFac= 1.09D+00 NAtFMM=   60 NAOKFM=F Big=F
 Integral buffers will be    131072 words long.
 Regular integral format.
 Two-electron integral symmetry is turned on.
 Nuclear repulsion after empirical dispersion term =      781.4983816821 Hartrees.
 One-electron integrals computed using PRISM.
 NBasis=   385 RedAO= T EigKep=  1.11D-06  NBF=   285   100
 NBsUse=   379 1.00D-06 EigRej=  8.34D-07 NBFU=   279   100
 ExpMin= 3.60D-02 ExpMax= 4.56D+03 ExpMxC= 6.82D+02 IAcc=3 IRadAn=         5 AccDes= 0.00D+00
 Harris functional with IExCor= 1009 and IRadAn=       5 diagonalized for initial guess.
 HarFok:  IExCor= 1009 AccDes= 0.00D+00 IRadAn=         5 IDoV= 1 UseB2=F ITyADJ=14
 ICtDFT=  3500011 ScaDFX=  1.000000  1.000000  1.000000  1.000000
 FoFCou: FMM=F IPFlag=           0 FMFlag=      100000 FMFlg1=           0
         NFxFlg=           0 DoJE=T BraDBF=F KetDBF=T FulRan=T
         wScrn=  0.000000 ICntrl=       500 IOpCl=  0 I1Cent=   200000004 NGrid=           0
         NMat0=    1 NMatS0=      1 NMatT0=    0 NMatD0=    1 NMtDS0=    0 NMtDT0=    0
 Petite list used in FoFCou.
 Initial guess orbital symmetries:
       Occupied  (A') (A') (A') (A') (A') (A') (A') (A') (A') (A')
                 (A') (A') (A') (A') (A') (A') (A') (A') (A') (A')
                 (A') (A') (A') (A') (A') (A') (A') (A') (A') (A')
                 (A') (A') (A") (A') (A') (A') (A') (A') (A') (A")
                 (A") (A') (A') (A") (A") (A") (A")
       Virtual   (A") (A") (A") (A") (A") (A') (A') (A') (A') (A")
                 (A") (A') (A') (A') (A") (A') (A') (A') (A') (A")
                 (A') (A") (A') (A') (A') (A") (A') (A") (A') (A')
                 (A') (A') (A') (A") (A') (A') (A") (A') (A') (A")
                 (A') (A') (A') (A") (A') (A') (A') (A') (A') (A")
                 (A') (A') (A") (A") (A') (A') (A') (A") (A") (A')
                 (A') (A') (A') (A') (A') (A") (A') (A') (A') (A")
                 (A') (A') (A') (A') (A') (A') (A') (A') (A') (A')
                 (A') (A') (A') (A') (A') (A') (A') (A') (A') (A')
                 (A') (A') (A') (A') (A') (A') (A') (A") (A') (A")
                 (A') (A') (A") (A") (A') (A") (A') (A") (A') (A")
                 (A") (A') (A') (A') (A") (A') (A') (A") (A") (A')
                 (A") (A") (A') (A') (A') (A") (A') (A') (A') (A")
                 (A') (A') (A') (A') (A') (A') (A") (A') (A') (A')
                 (A') (A') (A') (A') (A') (A') (A') (A') (A') (A")
                 (A") (A') (A") (A") (A') (A') (A') (A") (A") (A')
                 (A") (A') (A") (A") (A") (A') (A') (A') (A') (A')
                 (A') (A") (A') (A") (A') (A') (A') (A') (A') (A")
                 (A') (A') (A') (A') (A') (A") (A") (A') (A") (A")
                 (A') (A") (A') (A") (A') (A') (A') (A") (A') (A')
                 (A") (A") (A") (A') (A') (A") (A') (A") (A') (A')
                 (A") (A") (A') (A") (A') (A") (A') (A') (A") (A')
                 (A') (A') (A') (A') (A") (A') (A') (A') (A") (A")
                 (A') (A') (A') (A") (A') (A') (A") (A') (A") (A')
                 (A") (A') (A') (A') (A') (A') (A") (A') (A') (A")
                 (A') (A') (A") (A') (A") (A') (A') (A") (A') (A')
                 (A') (A') (A") (A") (A') (A') (A') (A") (A") (A')
                 (A') (A') (A') (A') (A") (A') (A") (A') (A") (A')
                 (A") (A') (A") (A") (A") (A') (A') (A') (A') (A')
                 (A') (A') (A') (A') (A') (A') (A') (A') (A') (A')
                 (A') (A') (A') (A') (A") (A') (A') (A') (A') (A')
                 (A') (A') (A') (A') (A') (A') (A') (A') (A') (A')
                 (A') (A') (A') (A') (A') (A') (A') (A') (A') (A')
                 (A') (A')
 The electronic state of the initial guess is 1-A'.
 Requested convergence on RMS density matrix=1.00D-08 within 128 cycles.
 Requested convergence on MAX density matrix=1.00D-06.
 Requested convergence on             energy=1.00D-06.
 No special actions if energy rises.
 SCF Done:  E(RM062X) =  -539.759658060     A.U. after   15 cycles
            NFock= 15  Conv=0.57D-08     -V/T= 2.0042
 DoSCS=F DFT=T ScalE2(SS,OS)=  1.000000  1.000000
 ExpMin= 3.60D-02 ExpMax= 4.56D+03 ExpMxC= 6.82D+02 IAcc=3 IRadAn=         5 AccDes= 0.00D+00
 HarFok:  IExCor=  205 AccDes= 0.00D+00 IRadAn=         5 IDoV=-2 UseB2=F ITyADJ=14
 ICtDFT= 12500011 ScaDFX=  1.000000  1.000000  1.000000  1.000000
 Range of M.O.s used for correlation:    15   379
 NBasis=   385 NAE=    47 NBE=    47 NFC=    14 NFV=     0
 NROrb=    365 NOA=    33 NOB=    33 NVA=   332 NVB=   332

 **** Warning!!: The largest alpha MO coefficient is  0.15075735D+03

 Orbital symmetries:
       Occupied  (A') (A') (A') (A') (A') (A') (A') (A') (A') (A')
                 (A') (A') (A') (A') (A') (A') (A') (A') (A') (A')
                 (A') (A') (A') (A') (A') (A') (A') (A') (A') (A')
                 (A') (A') (A") (A') (A') (A') (A') (A") (A") (A')
                 (A') (A') (A') (A") (A") (A") (A")
       Virtual   (A") (A") (A") (A") (A') (A') (A') (A') (A") (A')
                 (A') (A") (A') (A') (A") (A') (A") (A') (A') (A')
                 (A") (A") (A') (A') (A') (A") (A') (A") (A') (A')
                 (A") (A') (A") (A') (A') (A') (A') (A') (A") (A')
                 (A") (A') (A') (A") (A") (A') (A") (A') (A") (A')
                 (A') (A') (A') (A') (A') (A") (A') (A') (A') (A')
                 (A') (A") (A') (A') (A') (A") (A') (A') (A') (A')
                 (A') (A') (A') (A') (A') (A') (A') (A') (A') (A')
                 (A') (A') (A') (A') (A') (A') (A') (A') (A') (A')
                 (A') (A') (A') (A') (A") (A') (A") (A") (A') (A")
                 (A') (A') (A') (A') (A") (A") (A') (A") (A") (A')
                 (A') (A') (A") (A') (A') (A") (A') (A") (A') (A")
                 (A") (A') (A") (A') (A') (A') (A") (A') (A') (A')
                 (A') (A') (A') (A') (A') (A') (A') (A') (A') (A')
                 (A') (A') (A') (A") (A') (A') (A') (A') (A') (A')
                 (A') (A') (A") (A') (A") (A') (A") (A") (A') (A")
                 (A") (A') (A') (A") (A") (A") (A') (A") (A') (A')
                 (A') (A') (A') (A") (A") (A') (A') (A') (A') (A")
                 (A') (A') (A') (A") (A') (A") (A') (A') (A") (A")
                 (A") (A') (A') (A") (A') (A") (A') (A') (A') (A')
                 (A") (A") (A") (A') (A") (A') (A') (A") (A') (A')
                 (A') (A") (A') (A") (A") (A') (A") (A') (A') (A")
                 (A') (A') (A') (A') (A") (A') (A') (A') (A") (A")
                 (A') (A') (A') (A") (A') (A') (A') (A") (A") (A')
                 (A") (A') (A') (A") (A') (A') (A') (A') (A') (A')
                 (A") (A') (A') (A') (A') (A") (A") (A") (A') (A')
                 (A') (A') (A') (A') (A') (A') (A") (A') (A') (A')
                 (A') (A") (A') (A") (A") (A") (A') (A") (A') (A")
                 (A') (A") (A") (A') (A") (A") (A') (A') (A') (A')
                 (A') (A') (A') (A') (A') (A') (A') (A') (A') (A')
                 (A') (A') (A') (A") (A') (A') (A') (A') (A') (A')
                 (A') (A') (A') (A') (A') (A') (A') (A') (A') (A')
                 (A') (A') (A') (A') (A') (A') (A') (A') (A') (A')
                 (A') (A')
     4 initial guesses have been made.
 Convergence on wavefunction:    0.001000000000000
 Iteration     1 Dimension     4 NMult     0 NNew      4
 CISAX will form     4 AO SS matrices at one time.
 Iteration     2 Dimension     6 NMult     4 NNew      2
 Iteration     3 Dimension     8 NMult     6 NNew      2
 Iteration     4 Dimension    10 NMult     8 NNew      2
 Iteration     5 Dimension    12 NMult    10 NNew      2
 Iteration     6 Dimension    14 NMult    12 NNew      2
 ***********************************************************************
 Excited states from <AA,BB:AA,BB> singles matrix:
 ***********************************************************************
 
 Ground to excited state transition densities written to RWF  633
 Ground to excited state transition electric dipole moments (Au):
       state          X           Y           Z        Dip. S.      Osc.
         1        -0.5548      0.3108     -0.0000      0.4045      0.0278
 Ground to excited state transition velocity dipole moments (Au):
       state          X           Y           Z        Dip. S.      Osc.
         1         0.0647     -0.0344     -0.0000      0.0054      0.0347
 Ground to excited state transition magnetic dipole moments (Au):
       state          X           Y           Z
         1        -0.0000     -0.0000     -0.0800
 Ground to excited state transition velocity quadrupole moments (Au):
       state          XX          YY          ZZ          XY          XZ          YZ
         1         0.1192      0.2032     -0.0096      0.1256     -0.0000      0.0000
 <0|del|b> * <b|rxdel|0> + <0|del|b> * <b|delr+rdel|0>
 Rotatory Strengths (R) in cgs (10**-40 erg-esu-cm/Gauss)
       state          XX          YY          ZZ    R(velocity)    E-M Angle
         1        -0.0000     -0.0000      0.0000     -0.0000       90.00
 1/2[<0|r|b>*<b|rxdel|0> + (<0|rxdel|b>*<b|r|0>)*]
 Rotatory Strengths (R) in cgs (10**-40 erg-esu-cm/Gauss)
       state          XX          YY          ZZ     R(length)
         1        -0.0000      0.0000     -0.0000     -0.0000
  1/2[<0|del|b>*<b|r|0> + (<0|r|b>*<b|del|0>)*] (Au)
       state          X           Y           Z        Dip. S.   Osc.(frdel)
         1        -0.0359     -0.0107      0.0000      0.0466      0.0311

 Excitation energies and oscillator strengths:
 
 Excited State   1:      Singlet-A'     2.8083 eV  441.49 nm  f=0.0278  <S**2>=0.000
      47 -> 48         0.70410
 This state for optimization and/or second-order correction.
 Total Energy, E(TD-HF/TD-DFT) =  -539.656454840    
 Copying the excited state density for this state as the 1-particle RhoCI density.
 SavETr:  write IOETrn=   770 NScale= 10 NData=  16 NLR=1 NState=    1 LETran=      28.

 **********************************************************************

            Population analysis using the SCF Density.

 **********************************************************************

 Orbital symmetries:
       Occupied  (A') (A') (A') (A') (A') (A') (A') (A') (A') (A')
                 (A') (A') (A') (A') (A') (A') (A') (A') (A') (A')
                 (A') (A') (A') (A') (A') (A') (A') (A') (A') (A')
                 (A') (A') (A") (A') (A') (A') (A') (A") (A") (A')
                 (A') (A') (A') (A") (A") (A") (A")
       Virtual   (A") (A") (A") (A") (A') (A') (A') (A') (A") (A')
                 (A') (A") (A') (A') (A") (A') (A") (A') (A') (A')
                 (A") (A") (A') (A') (A') (A") (A') (A") (A') (A')
                 (A") (A') (A") (A') (A') (A') (A') (A') (A") (A')
                 (A") (A') (A') (A") (A") (A') (A") (A') (A") (A')
                 (A') (A') (A') (A') (A') (A") (A') (A') (A') (A')
                 (A') (A") (A') (A') (A') (A") (A') (A') (A') (A')
                 (A') (A') (A') (A') (A') (A') (A') (A') (A') (A')
                 (A') (A') (A') (A') (A') (A') (A') (A') (A') (A')
                 (A') (A') (A') (A') (A") (A') (A") (A") (A') (A")
                 (A') (A') (A') (A') (A") (A") (A') (A") (A") (A')
                 (A') (A') (A") (A') (A') (A") (A') (A") (A') (A")
                 (A") (A') (A") (A') (A') (A') (A") (A') (A') (A')
                 (A') (A') (A') (A') (A') (A') (A') (A') (A') (A')
                 (A') (A') (A') (A") (A') (A') (A') (A') (A') (A')
                 (A') (A') (A") (A') (A") (A') (A") (A") (A') (A")
                 (A") (A') (A') (A") (A") (A") (A') (A") (A') (A')
                 (A') (A') (A') (A") (A") (A') (A') (A') (A') (A")
                 (A') (A') (A') (A") (A') (A") (A') (A') (A") (A")
                 (A") (A') (A') (A") (A') (A") (A') (A') (A') (A')
                 (A") (A") (A") (A') (A") (A') (A') (A") (A') (A')
                 (A') (A") (A') (A") (A") (A') (A") (A') (A') (A")
                 (A') (A') (A') (A') (A") (A') (A') (A') (A") (A")
                 (A') (A') (A') (A") (A') (A') (A') (A") (A") (A')
                 (A") (A') (A') (A") (A') (A') (A') (A') (A') (A')
                 (A") (A') (A') (A') (A') (A") (A") (A") (A') (A')
                 (A') (A') (A') (A') (A') (A') (A") (A') (A') (A')
                 (A') (A") (A') (A") (A") (A") (A') (A") (A') (A")
                 (A') (A") (A") (A') (A") (A") (A') (A') (A') (A')
                 (A') (A') (A') (A') (A') (A') (A') (A') (A') (A')
                 (A') (A') (A') (A") (A') (A') (A') (A') (A') (A')
                 (A') (A') (A') (A') (A') (A') (A') (A') (A') (A')
                 (A') (A') (A') (A') (A') (A') (A') (A') (A') (A')
                 (A') (A')
 The electronic state is 1-A'.
 Alpha  occ. eigenvalues --  -10.77646 -10.73344 -10.73057 -10.72536 -10.72303
 Alpha  occ. eigenvalues --  -10.71501 -10.71271 -10.71225 -10.70959 -10.70756
 Alpha  occ. eigenvalues --  -10.70036 -10.69906 -10.69701 -10.69537  -1.16488
 Alpha  occ. eigenvalues --   -1.12492  -1.06944  -1.05802  -1.01312  -1.00247
 Alpha  occ. eigenvalues --   -0.95761  -0.91070  -0.86425  -0.85915  -0.83826
 Alpha  occ. eigenvalues --   -0.78402  -0.76072  -0.74419  -0.69562  -0.69261
 Alpha  occ. eigenvalues --   -0.68502  -0.68198  -0.68090  -0.64798  -0.64292
 Alpha  occ. eigenvalues --   -0.63090  -0.61852  -0.60029  -0.59629  -0.59089
 Alpha  occ. eigenvalues --   -0.56920  -0.55213  -0.54842  -0.52433  -0.46703
 Alpha  occ. eigenvalues --   -0.46066  -0.44418
 Alpha virt. eigenvalues --   -0.26074  -0.14673  -0.14095  -0.12769  -0.11181
 Alpha virt. eigenvalues --   -0.10091  -0.09232  -0.07981  -0.07959  -0.07477
 Alpha virt. eigenvalues --   -0.07209  -0.07147  -0.05641  -0.05583  -0.05337
 Alpha virt. eigenvalues --   -0.03829  -0.03649  -0.03280  -0.03130  -0.02163
 Alpha virt. eigenvalues --   -0.01369  -0.00933   0.00185   0.00593   0.00684
 Alpha virt. eigenvalues --    0.01060   0.01510   0.01934   0.02215   0.02278
 Alpha virt. eigenvalues --    0.02451   0.02673   0.02754   0.03258   0.03378
 Alpha virt. eigenvalues --    0.04237   0.04510   0.04694   0.05028   0.05366
 Alpha virt. eigenvalues --    0.06029   0.06302   0.06598   0.07057   0.07249
 Alpha virt. eigenvalues --    0.07895   0.08163   0.08371   0.08561   0.08927
 Alpha virt. eigenvalues --    0.09542   0.09569   0.10046   0.10887   0.11059
 Alpha virt. eigenvalues --    0.11111   0.12184   0.12250   0.12899   0.13011
 Alpha virt. eigenvalues --    0.13418   0.13522   0.14027   0.14371   0.16206
 Alpha virt. eigenvalues --    0.16305   0.16374   0.17347   0.17619   0.17795
 Alpha virt. eigenvalues --    0.18135   0.19050   0.19248   0.19650   0.19767
 Alpha virt. eigenvalues --    0.21577   0.21623   0.22729   0.23129   0.23576
 Alpha virt. eigenvalues --    0.23751   0.24541   0.25255   0.26925   0.27618
 Alpha virt. eigenvalues --    0.28869   0.29308   0.29898   0.31378   0.35863
 Alpha virt. eigenvalues --    0.36464   0.38181   0.39283   0.41159   0.41394
 Alpha virt. eigenvalues --    0.42005   0.42167   0.42982   0.43716   0.44305
 Alpha virt. eigenvalues --    0.44917   0.45056   0.46063   0.46221   0.47900
 Alpha virt. eigenvalues --    0.48524   0.48892   0.49011   0.50443   0.51254
 Alpha virt. eigenvalues --    0.51576   0.51801   0.52115   0.52931   0.53989
 Alpha virt. eigenvalues --    0.54089   0.54686   0.55678   0.55777   0.57364
 Alpha virt. eigenvalues --    0.58242   0.58829   0.61461   0.62164   0.62360
 Alpha virt. eigenvalues --    0.63226   0.63495   0.65035   0.65165   0.67378
 Alpha virt. eigenvalues --    0.70383   0.70552   0.71063   0.72439   0.72889
 Alpha virt. eigenvalues --    0.75745   0.76031   0.76322   0.76890   0.77106
 Alpha virt. eigenvalues --    0.77856   0.77927   0.78275   0.79865   0.80406
 Alpha virt. eigenvalues --    0.81277   0.81619   0.82155   0.83024   0.85224
 Alpha virt. eigenvalues --    0.87181   0.88228   0.88602   0.89125   0.90450
 Alpha virt. eigenvalues --    0.91148   0.91258   0.93202   0.94648   0.96453
 Alpha virt. eigenvalues --    0.96673   1.00360   1.01316   1.01667   1.02728
 Alpha virt. eigenvalues --    1.03210   1.03776   1.04751   1.05492   1.08808
 Alpha virt. eigenvalues --    1.19580   1.23229   1.24103   1.25227   1.28213
 Alpha virt. eigenvalues --    1.29619   1.31851   1.34240   1.35796   1.36009
 Alpha virt. eigenvalues --    1.39392   1.40145   1.40972   1.42949   1.43516
 Alpha virt. eigenvalues --    1.43538   1.44901   1.45728   1.46389   1.46682
 Alpha virt. eigenvalues --    1.47645   1.48063   1.51802   1.53635   1.55806
 Alpha virt. eigenvalues --    1.56003   1.56353   1.56562   1.57821   1.61502
 Alpha virt. eigenvalues --    1.63188   1.63449   1.63804   1.66147   1.68352
 Alpha virt. eigenvalues --    1.68375   1.68663   1.69715   1.74448   1.76017
 Alpha virt. eigenvalues --    1.77229   1.78050   1.80142   1.80174   1.80755
 Alpha virt. eigenvalues --    1.83166   1.83201   1.83668   1.83818   1.84136
 Alpha virt. eigenvalues --    1.84318   1.85798   1.86142   1.88252   1.91411
 Alpha virt. eigenvalues --    1.92118   1.94152   1.95249   1.97716   1.98186
 Alpha virt. eigenvalues --    1.99788   2.02654   2.04485   2.07267   2.11831
 Alpha virt. eigenvalues --    2.12113   2.14130   2.15220   2.19182   2.21361
 Alpha virt. eigenvalues --    2.22795   2.28522   2.30377   2.34715   2.34980
 Alpha virt. eigenvalues --    2.36235   2.38683   2.39604   2.42404   2.44368
 Alpha virt. eigenvalues --    2.46194   2.46798   2.49392   2.52953   2.53831
 Alpha virt. eigenvalues --    2.54404   2.56677   2.57859   2.58307   2.59639
 Alpha virt. eigenvalues --    2.59845   2.61626   2.62170   2.63571   2.63844
 Alpha virt. eigenvalues --    2.64796   2.65148   2.65203   2.65395   2.68104
 Alpha virt. eigenvalues --    2.68637   2.70979   2.71425   2.73359   2.74834
 Alpha virt. eigenvalues --    2.76301   2.78975   2.79754   2.83052   2.83095
 Alpha virt. eigenvalues --    2.84921   2.86371   2.92148   2.96976   2.99529
 Alpha virt. eigenvalues --    3.00106   3.05427   3.11091   3.11565   3.13268
 Alpha virt. eigenvalues --    3.21163   3.24086   3.26853   3.28367   3.30761
 Alpha virt. eigenvalues --    3.32809   3.33755   3.43451   3.45944   3.46826
 Alpha virt. eigenvalues --    3.48702   3.50277   3.56630   3.65159   3.67088
 Alpha virt. eigenvalues --    3.67517   3.94169   3.94503   3.95195   3.96279
 Alpha virt. eigenvalues --    4.04030   4.06926   4.07619   4.12534   4.35741
 Alpha virt. eigenvalues --    4.61790   4.69882   4.71658  23.45323  23.60598
 Alpha virt. eigenvalues --   23.82178  23.85595  23.87842  23.89280  23.90585
 Alpha virt. eigenvalues --   23.92862  23.97535  23.98936  24.00366  24.01400
 Alpha virt. eigenvalues --   24.10627  24.10912
          Condensed to atoms (all electrons):
               1          2          3          4          5          6
     1  C    8.469101   0.464896  -0.598144   1.802421   0.003042  -0.091406
     2  C    0.464896   7.081187   0.393690  -0.995590  -0.033746  -0.015300
     3  C   -0.598144   0.393690   6.588400   0.730039  -0.116993   0.016921
     4  C    1.802421  -0.995590   0.730039  10.943413  -0.308476  -0.123938
     5  C    0.003042  -0.033746  -0.116993  -0.308476  10.730492   0.758791
     6  C   -0.091406  -0.015300   0.016921  -0.123938   0.758791   6.581332
     7  C   -0.028974   0.003388  -0.014671  -0.019919  -1.052298   0.347292
     8  C    0.405913  -0.020322  -0.097631  -0.017176   1.952194  -0.529982
     9  C   -1.258477  -0.789125   0.286452  -0.203418  -0.327451   0.285461
    10  C   -1.210304   0.208023  -0.334324  -2.608511  -2.500004  -0.382450
    11  C    0.252833  -0.911826   0.988682  -0.226968  -1.474797  -0.161979
    12  C   -1.767792   1.202170  -1.346483  -1.463730  -0.286164  -0.223505
    13  C    0.152827  -0.228775  -0.194246  -1.522503  -0.237327   1.054754
    14  C   -1.087263  -0.234738  -0.178177  -0.358629  -1.471711  -1.390288
    15  H    0.364480  -0.102730  -0.002521   0.025734   0.006209   0.001137
    16  H   -0.019961   0.378862  -0.017247   0.014746  -0.001598  -0.000336
    17  H   -0.021185  -0.018823   0.376126  -0.066990   0.000250   0.000397
    18  H    0.047787   0.003079  -0.085062   0.455314   0.007554  -0.004926
    19  H   -0.045983  -0.007619   0.050563  -0.073211  -0.068002   0.050687
    20  H    0.007446   0.001950  -0.005005   0.007477   0.452255  -0.085094
    21  H   -0.001304  -0.000404   0.000390   0.000369  -0.066155   0.372583
    22  H    0.000599   0.000347  -0.000320  -0.001514   0.012698  -0.014449
    23  H    0.006183  -0.002648   0.001061   0.005752   0.027153  -0.001361
    24  H    0.033174   0.014695  -0.001397  -0.012113  -0.012624  -0.001537
    25  H    0.033174   0.014695  -0.001397  -0.012113  -0.012624  -0.001537
               7          8          9         10         11         12
     1  C   -0.028974   0.405913  -1.258477  -1.210304   0.252833  -1.767792
     2  C    0.003388  -0.020322  -0.789125   0.208023  -0.911826   1.202170
     3  C   -0.014671  -0.097631   0.286452  -0.334324   0.988682  -1.346483
     4  C   -0.019919  -0.017176  -0.203418  -2.608511  -0.226968  -1.463730
     5  C   -1.052298   1.952194  -0.327451  -2.500004  -1.474797  -0.286164
     6  C    0.347292  -0.529982   0.285461  -0.382450  -0.161979  -0.223505
     7  C    7.076546   0.328239  -0.765133   0.261540  -0.251568  -0.176313
     8  C    0.328239   8.608889  -1.246587  -1.267209   0.165565  -1.048847
     9  C   -0.765133  -1.246587   9.656049   0.252281   1.771744  -2.047709
    10  C    0.261540  -1.267209   0.252281   9.252553  -0.524293   2.416324
    11  C   -0.251568   0.165565   1.771744  -0.524293  14.664647  -3.922514
    12  C   -0.176313  -1.048847  -2.047709   2.416324  -3.922514  16.088577
    13  C   -0.968674   0.248902   1.725637  -0.578206   1.087493  -4.846317
    14  C    1.388691  -1.977850  -1.943240   2.444681  -4.870522   2.959646
    15  H   -0.002795   0.005678   0.090712  -0.009098  -0.029271  -0.020967
    16  H    0.000369   0.000780   0.004152  -0.010182   0.029132  -0.035096
    17  H   -0.000391  -0.001350  -0.005692   0.020581  -0.027944   0.088875
    18  H    0.001957   0.007519  -0.025019   0.015435  -0.010604  -0.048856
    19  H   -0.007338  -0.047629   0.076423   0.422286   0.076917  -0.071012
    20  H    0.002824   0.049630  -0.025956   0.017245  -0.011767  -0.010668
    21  H   -0.014957  -0.024652  -0.006200   0.020895  -0.006376   0.005329
    22  H    0.376477  -0.019165   0.004710  -0.009554   0.003037  -0.008779
    23  H   -0.103328   0.365232   0.093043  -0.010123   0.002896   0.006406
    24  H    0.013845   0.030206   0.357940   0.005634   0.016549  -0.059430
    25  H    0.013845   0.030206   0.357940   0.005634   0.016549  -0.059430
              13         14         15         16         17         18
     1  C    0.152827  -1.087263   0.364480  -0.019961  -0.021185   0.047787
     2  C   -0.228775  -0.234738  -0.102730   0.378862  -0.018823   0.003079
     3  C   -0.194246  -0.178177  -0.002521  -0.017247   0.376126  -0.085062
     4  C   -1.522503  -0.358629   0.025734   0.014746  -0.066990   0.455314
     5  C   -0.237327  -1.471711   0.006209  -0.001598   0.000250   0.007554
     6  C    1.054754  -1.390288   0.001137  -0.000336   0.000397  -0.004926
     7  C   -0.968674   1.388691  -0.002795   0.000369  -0.000391   0.001957
     8  C    0.248902  -1.977850   0.005678   0.000780  -0.001350   0.007519
     9  C    1.725637  -1.943240   0.090712   0.004152  -0.005692  -0.025019
    10  C   -0.578206   2.444681  -0.009098  -0.010182   0.020581   0.015435
    11  C    1.087493  -4.870522  -0.029271   0.029132  -0.027944  -0.010604
    12  C   -4.846317   2.959646  -0.020967  -0.035096   0.088875  -0.048856
    13  C   14.630063  -3.733963   0.000049   0.003251  -0.006362  -0.011812
    14  C   -3.733963  16.008820   0.007019  -0.009511   0.005232  -0.014250
    15  H    0.000049   0.007019   0.437004  -0.008919   0.001518   0.000229
    16  H    0.003251  -0.009511  -0.008919   0.418281  -0.006786   0.001918
    17  H   -0.006362   0.005232   0.001518  -0.006786   0.421673  -0.010082
    18  H   -0.011812  -0.014250   0.000229   0.001918  -0.010082   0.451419
    19  H    0.078997  -0.059241   0.000320  -0.000547   0.001480  -0.005940
    20  H   -0.008848  -0.054001  -0.000114   0.000015  -0.000148   0.001289
    21  H   -0.028863   0.092511   0.000014  -0.000007   0.000010  -0.000135
    22  H    0.029529  -0.036100  -0.000125   0.000007  -0.000007   0.000013
    23  H   -0.030525  -0.027492   0.000608  -0.000127   0.000012  -0.000107
    24  H    0.009989  -0.059854  -0.000892   0.000626  -0.000139   0.000162
    25  H    0.009989  -0.059854  -0.000892   0.000626  -0.000139   0.000162
              19         20         21         22         23         24
     1  C   -0.045983   0.007446  -0.001304   0.000599   0.006183   0.033174
     2  C   -0.007619   0.001950  -0.000404   0.000347  -0.002648   0.014695
     3  C    0.050563  -0.005005   0.000390  -0.000320   0.001061  -0.001397
     4  C   -0.073211   0.007477   0.000369  -0.001514   0.005752  -0.012113
     5  C   -0.068002   0.452255  -0.066155   0.012698   0.027153  -0.012624
     6  C    0.050687  -0.085094   0.372583  -0.014449  -0.001361  -0.001537
     7  C   -0.007338   0.002824  -0.014957   0.376477  -0.103328   0.013845
     8  C   -0.047629   0.049630  -0.024652  -0.019165   0.365232   0.030206
     9  C    0.076423  -0.025956  -0.006200   0.004710   0.093043   0.357940
    10  C    0.422286   0.017245   0.020895  -0.009554  -0.010123   0.005634
    11  C    0.076917  -0.011767  -0.006376   0.003037   0.002896   0.016549
    12  C   -0.071012  -0.010668   0.005329  -0.008779   0.006406  -0.059430
    13  C    0.078997  -0.008848  -0.028863   0.029529  -0.030525   0.009989
    14  C   -0.059241  -0.054001   0.092511  -0.036100  -0.027492  -0.059854
    15  H    0.000320  -0.000114   0.000014  -0.000125   0.000608  -0.000892
    16  H   -0.000547   0.000015  -0.000007   0.000007  -0.000127   0.000626
    17  H    0.001480  -0.000148   0.000010  -0.000007   0.000012  -0.000139
    18  H   -0.005940   0.001289  -0.000135   0.000013  -0.000107   0.000162
    19  H    0.442618  -0.006236   0.001314  -0.000511   0.000263   0.000624
    20  H   -0.006236   0.454425  -0.010202   0.001895   0.000180   0.000185
    21  H    0.001314  -0.010202   0.423131  -0.006488   0.001400  -0.000143
    22  H   -0.000511   0.001895  -0.006488   0.420074  -0.008932   0.000629
    23  H    0.000263   0.000180   0.001400  -0.008932   0.439902  -0.000881
    24  H    0.000624   0.000185  -0.000143   0.000629  -0.000881   0.494820
    25  H    0.000624   0.000185  -0.000143   0.000629  -0.000881  -0.080829
              25
     1  C    0.033174
     2  C    0.014695
     3  C   -0.001397
     4  C   -0.012113
     5  C   -0.012624
     6  C   -0.001537
     7  C    0.013845
     8  C    0.030206
     9  C    0.357940
    10  C    0.005634
    11  C    0.016549
    12  C   -0.059430
    13  C    0.009989
    14  C   -0.059854
    15  H   -0.000892
    16  H    0.000626
    17  H   -0.000139
    18  H    0.000162
    19  H    0.000624
    20  H    0.000185
    21  H   -0.000143
    22  H    0.000629
    23  H   -0.000881
    24  H   -0.080829
    25  H    0.494820
 Mulliken charges:
               1
     1  C    0.086920
     2  C   -0.405336
     3  C   -0.438706
     4  C    0.029534
     5  C    0.019333
     6  C   -0.441267
     7  C   -0.408656
     8  C    0.099445
     9  C   -0.318535
    10  C    0.101146
    11  C   -0.645615
    12  C    0.676288
    13  C   -0.635059
    14  C    0.660083
    15  H    0.237615
    16  H    0.257552
    17  H    0.249883
    18  H    0.222956
    19  H    0.190154
    20  H    0.221039
    21  H    0.248084
    22  H    0.255299
    23  H    0.236316
    24  H    0.250763
    25  H    0.250763
 Sum of Mulliken charges =   1.00000
 Mulliken charges with hydrogens summed into heavy atoms:
               1
     1  C    0.324535
     2  C   -0.147784
     3  C   -0.188823
     4  C    0.252490
     5  C    0.240373
     6  C   -0.193182
     7  C   -0.153357
     8  C    0.335762
     9  C    0.182991
    10  C    0.291300
    11  C   -0.645615
    12  C    0.676288
    13  C   -0.635059
    14  C    0.660083
 Electronic spatial extent (au):  <R**2>=           2853.9119
 Charge=              1.0000 electrons
 Dipole moment (field-independent basis, Debye):
    X=              0.0278    Y=             -0.3323    Z=              0.0000  Tot=              0.3334
 Quadrupole moment (field-independent basis, Debye-Ang):
   XX=            -50.7901   YY=            -36.6077   ZZ=            -84.1396
   XY=             10.3622   XZ=             -0.0000   YZ=              0.0000
 Traceless Quadrupole moment (field-independent basis, Debye-Ang):
   XX=              6.3891   YY=             20.5715   ZZ=            -26.9605
   XY=             10.3622   XZ=             -0.0000   YZ=              0.0000
 Octapole moment (field-independent basis, Debye-Ang**2):
  XXX=             -0.5866  YYY=              2.7505  ZZZ=              0.0000  XYY=             -1.1347
  XXY=             -5.9162  XXZ=              0.0000  XZZ=             -2.8923  YZZ=              1.0849
  YYZ=              0.0000  XYZ=             -0.0000
 Hexadecapole moment (field-independent basis, Debye-Ang**3):
 XXXX=           -996.0112 YYYY=          -1841.8389 ZZZZ=            -99.3115 XXXY=           -350.0242
 XXXZ=             -0.0000 YYYX=           -277.3078 YYYZ=             -0.0000 ZZZX=             -0.0000
 ZZZY=              0.0000 XXYY=           -453.5065 XXZZ=           -243.6372 YYZZ=           -492.3001
 XXYZ=              0.0000 YYXZ=             -0.0000 ZZXY=           -184.3218
 N-N= 7.814983816821D+02 E-N=-2.799349638202D+03  KE= 5.375233137100D+02
 Symmetry A'   KE= 5.228756415700D+02
 Symmetry A"   KE= 1.464767213991D+01
 Unable to Open any file for archive entry.
 1\1\GINC-GADI-CPU-CLX-1762\SP\RM062X TD-FC\6-311++G(d,p)\C14H11(1+)\TS
 1578\02-Aug-2022\0\\#n M062X/6-311++G(d,p) TD(NStates=1) EmpiricalDisp
 ersion=GD3 SP\\SP_-50\\1,1\C,0,2.482955,1.361631,0.\C,0,3.691858,0.668
 989,0.\C,0,3.680661,-0.71853,0.\C,0,2.470806,-1.411788,0.\C,0,-2.45520
 6,-1.402688,0.\C,0,-3.685261,-0.70613,0.\C,0,-3.708308,0.676039,0.\C,0
 ,-2.496655,1.361031,0.\C,0,-0.0043,1.446769,0.\C,0,0.0122,-1.428889,0.
 \C,0,1.263655,0.680815,0.\C,0,1.243071,-0.731854,0.\C,0,-1.260005,0.67
 3165,0.\C,0,-1.233071,-0.730654,0.\H,0,2.482671,2.444847,0.\H,0,4.6267
 03,1.209939,0.\H,0,4.610262,-1.270249,0.\H,0,2.47165,-2.494259,0.\H,0,
 0.01125,-2.510116,0.\H,0,-2.46435,-2.485409,0.\H,0,-4.607362,-1.270699
 ,0.\H,0,-4.643353,1.215689,0.\H,0,-2.486871,2.444397,0.\H,0,-0.016,2.1
 44287,-0.857935\H,0,-0.016,2.144287,0.857935\\Version=ES64L-G16RevC.01
 \State=1-A'\HF=-539.7596581\RMSD=5.728e-09\PG=CS [SG(C14H9),X(H2)]\\@
 The archive entry for this job was punched.


 GOORD'S AXIOM:  A MEETING IS AN EVENT AT WHICH
 THE MINUTES ARE KEPT AND THE HOURS ARE LOST.
 Job cpu time:       0 days  0 hours 52 minutes 43.6 seconds.
 Elapsed time:       0 days  0 hours  1 minutes  6.2 seconds.
 File lengths (MBytes):  RWF=    460 Int=      0 D2E=      0 Chk=     15 Scr=      1
 Normal termination of Gaussian 16 at Tue Aug  2 11:33:41 2022.
