 Entering Gaussian System, Link 0=g16
 Initial command:
 /apps/gaussian/g16c01/g16/l1.exe "/jobfs/53796104.gadi-pbs/Gau-3609620.inp" -scrdir="/jobfs/53796104.gadi-pbs/"
 Entering Link 1 = /apps/gaussian/g16c01/g16/l1.exe PID=   3609621.
  
 Copyright (c) 1988-2019, Gaussian, Inc.  All Rights Reserved.
  
 This is part of the Gaussian(R) 16 program.  It is based on
 the Gaussian(R) 09 system (copyright 2009, Gaussian, Inc.),
 the Gaussian(R) 03 system (copyright 2003, Gaussian, Inc.),
 the Gaussian(R) 98 system (copyright 1998, Gaussian, Inc.),
 the Gaussian(R) 94 system (copyright 1995, Gaussian, Inc.),
 the Gaussian 92(TM) system (copyright 1992, Gaussian, Inc.),
 the Gaussian 90(TM) system (copyright 1990, Gaussian, Inc.),
 the Gaussian 88(TM) system (copyright 1988, Gaussian, Inc.),
 the Gaussian 86(TM) system (copyright 1986, Carnegie Mellon
 University), and the Gaussian 82(TM) system (copyright 1983,
 Carnegie Mellon University). Gaussian is a federally registered
 trademark of Gaussian, Inc.
  
 This software contains proprietary and confidential information,
 including trade secrets, belonging to Gaussian, Inc.
  
 This software is provided under written license and may be
 used, copied, transmitted, or stored only in accord with that
 written license.
  
 The following legend is applicable only to US Government
 contracts under FAR:
  
                    RESTRICTED RIGHTS LEGEND
  
 Use, reproduction and disclosure by the US Government is
 subject to restrictions as set forth in subparagraphs (a)
 and (c) of the Commercial Computer Software - Restricted
 Rights clause in FAR 52.227-19.
  
 Gaussian, Inc.
 340 Quinnipiac St., Bldg. 40, Wallingford CT 06492
  
  
 ---------------------------------------------------------------
 Warning -- This program may not be used in any manner that
 competes with the business of Gaussian, Inc. or will provide
 assistance to any competitor of Gaussian, Inc.  The licensee
 of this program is prohibited from giving any competitor of
 Gaussian, Inc. access to this program.  By using this program,
 the user acknowledges that Gaussian, Inc. is engaged in the
 business of creating and licensing software in the field of
 computational chemistry and represents and warrants to the
 licensee that it is not a competitor of Gaussian, Inc. and that
 it will not use this program in any manner prohibited above.
 ---------------------------------------------------------------
  

 Cite this work as:
 Gaussian 16, Revision C.01,
 M. J. Frisch, G. W. Trucks, H. B. Schlegel, G. E. Scuseria, 
 M. A. Robb, J. R. Cheeseman, G. Scalmani, V. Barone, 
 G. A. Petersson, H. Nakatsuji, X. Li, M. Caricato, A. V. Marenich, 
 J. Bloino, B. G. Janesko, R. Gomperts, B. Mennucci, H. P. Hratchian, 
 J. V. Ortiz, A. F. Izmaylov, J. L. Sonnenberg, D. Williams-Young, 
 F. Ding, F. Lipparini, F. Egidi, J. Goings, B. Peng, A. Petrone, 
 T. Henderson, D. Ranasinghe, V. G. Zakrzewski, J. Gao, N. Rega, 
 G. Zheng, W. Liang, M. Hada, M. Ehara, K. Toyota, R. Fukuda, 
 J. Hasegawa, M. Ishida, T. Nakajima, Y. Honda, O. Kitao, H. Nakai, 
 T. Vreven, K. Throssell, J. A. Montgomery, Jr., J. E. Peralta, 
 F. Ogliaro, M. J. Bearpark, J. J. Heyd, E. N. Brothers, K. N. Kudin, 
 V. N. Staroverov, T. A. Keith, R. Kobayashi, J. Normand, 
 K. Raghavachari, A. P. Rendell, J. C. Burant, S. S. Iyengar, 
 J. Tomasi, M. Cossi, J. M. Millam, M. Klene, C. Adamo, R. Cammi, 
 J. W. Ochterski, R. L. Martin, K. Morokuma, O. Farkas, 
 J. B. Foresman, and D. J. Fox, Gaussian, Inc., Wallingford CT, 2019.
 
 ******************************************
 Gaussian 16:  ES64L-G16RevC.01  3-Jul-2019
                 2-Aug-2022 
 ******************************************
 %NProcShared=48
 Will use up to   48 processors via shared memory.
 %mem = 190GB
 ---------------------------------------------------------------
 #n M062X/6-311++G(d,p) TD(NStates=1) EmpiricalDispersion=GD3 SP
 ---------------------------------------------------------------
 1/38=1,172=1/1;
 2/12=2,17=6,18=5,40=1/2;
 3/5=4,6=6,7=1111,11=9,25=1,30=1,74=-55,124=31/1,2,3,8;
 4//1;
 5/5=2,38=5/2;
 8/6=1,10=2,108=1/1;
 9/41=1,42=1,70=2/14;
 6/7=2,8=2,9=2,10=2/1;
 99/5=1,9=1/99;
 ------
 SP_-75
 ------
 Symbolic Z-matrix:
 Charge =  1 Multiplicity = 1
 C                     2.50541   1.36013   0. 
 C                     3.71748   0.67921   0. 
 C                     3.68816  -0.70093   0. 
 C                     2.44751  -1.39834   0. 
 C                    -2.47871  -1.41654   0. 
 C                    -3.67896  -0.72573   0. 
 C                    -3.68458   0.66511   0. 
 C                    -2.47801   1.36133   0. 
 C                     0.00878   1.45117   0. 
 C                    -0.0244   -1.42909   0. 
 C                     1.25833   0.66939   0. 
 C                     1.22767  -0.72975   0. 
 C                    -1.26563   0.68469   0. 
 C                    -1.24767  -0.73215   0. 
 H                     2.49117   2.44352   0. 
 H                     4.65283   1.21781   0. 
 H                     4.60621  -1.27217   0. 
 H                     2.4604   -2.48113   0. 
 H                    -0.0225   -2.51022   0. 
 H                    -2.475    -2.49883   0. 
 H                    -4.61201  -1.27127   0. 
 H                    -4.61953   1.20631   0. 
 H                    -2.48277   2.44442   0. 
 H                     0.032     2.14529  -0.85904 
 H                     0.032     2.14529   0.85904 
 
                          Input orientation:                          
 ---------------------------------------------------------------------
 Center     Atomic      Atomic             Coordinates (Angstroms)
 Number     Number       Type             X           Y           Z
 ---------------------------------------------------------------------
      1          6           0        2.505405    1.360131    0.000000
      2          6           0        3.717483    0.679214    0.000000
      3          6           0        3.688161   -0.700930    0.000000
      4          6           0        2.447506   -1.398338    0.000000
      5          6           0       -2.478706   -1.416538    0.000000
      6          6           0       -3.678961   -0.725730    0.000000
      7          6           0       -3.684583    0.665114    0.000000
      8          6           0       -2.478005    1.361331    0.000000
      9          6           0        0.008775    1.451169    0.000000
     10          6           0       -0.024400   -1.429089    0.000000
     11          6           0        1.258330    0.669390    0.000000
     12          6           0        1.227671   -0.729754    0.000000
     13          6           0       -1.265630    0.684690    0.000000
     14          6           0       -1.247671   -0.732154    0.000000
     15          1           0        2.491171    2.443522    0.000000
     16          1           0        4.652828    1.217814    0.000000
     17          1           0        4.606212   -1.272174    0.000000
     18          1           0        2.460400   -2.481134    0.000000
     19          1           0       -0.022500   -2.510216    0.000000
     20          1           0       -2.475000   -2.498834    0.000000
     21          1           0       -4.612012   -1.271274    0.000000
     22          1           0       -4.619528    1.206314    0.000000
     23          1           0       -2.482771    2.444422    0.000000
     24          1           0        0.032000    2.145287   -0.859035
     25          1           0        0.032000    2.145287    0.859035
 ---------------------------------------------------------------------
                    Distance matrix (angstroms):
                    1          2          3          4          5
     1  C    0.000000
     2  C    1.390245   0.000000
     3  C    2.376317   1.380455   0.000000
     4  C    2.759077   2.434967   1.423237   0.000000
     5  C    5.705371   6.541019   6.208248   4.926246   0.000000
     6  C    6.526653   7.528695   7.367164   6.163278   1.384857
     7  C    6.228884   7.402079   7.498228   6.469957   2.405705
     8  C    4.983410   6.232925   6.501886   5.645922   2.777869
     9  C    2.498289   3.788196   4.262559   3.750613   3.796222
    10  C    3.765589   4.294954   3.783295   2.472097   2.454338
    11  C    1.425594   2.459173   2.789598   2.385296   4.279782
    12  C    2.449535   2.860831   2.460659   1.391043   3.769470
    13  C    3.831048   4.983116   5.143927   4.257509   2.426255
    14  C    4.296887   5.161852   4.935931   3.754748   1.408485
    15  H    1.083485   2.148633   3.364575   3.842108   6.292832
    16  H    2.152134   1.079333   2.147594   3.421651   7.602538
    17  H    3.367851   2.144237   1.081267   2.162390   7.086389
    18  H    3.841529   3.401185   2.162527   1.082873   5.052537
    19  H    4.622758   4.915276   4.128259   2.708727   2.688695
    20  H    6.300480   6.960376   6.420048   5.044022   1.082302
    21  H    7.588275   8.554817   8.319745   7.060661   2.138246
    22  H    7.126593   8.353657   8.523806   7.531745   3.385627
    23  H    5.104663   6.446635   6.926301   6.250955   3.860962
    24  H    2.733522   4.058337   4.712367   4.373773   4.441642
    25  H    2.733522   4.058337   4.712367   4.373773   4.441642
                    6          7          8          9         10
     6  C    0.000000
     7  C    1.390855   0.000000
     8  C    2.407928   1.393036   0.000000
     9  C    4.282323   3.776079   2.488402   0.000000
    10  C    3.721630   4.216945   3.715726   2.880449   0.000000
    11  C    5.130614   4.942915   3.799866   1.473963   2.459474
    12  C    4.906634   5.106456   4.254958   2.498426   1.434138
    13  C    2.795255   2.419032   1.388415   1.487144   2.451268
    14  C    2.431298   2.809074   2.428251   2.519039   1.407874
    15  H    6.936475   6.426716   5.085651   2.673398   4.617923
    16  H    8.555470   8.355711   7.132277   4.649912   5.374249
    17  H    8.303174   8.514127   7.557875   5.343503   4.633270
    18  H    6.385389   6.903600   6.257186   4.633948   2.698338
    19  H    4.068673   4.847017   4.584581   3.961508   1.081129
    20  H    2.143227   3.387279   3.860166   4.666011   2.673910
    21  H    1.080834   2.147027   3.388893   5.363149   4.590326
    22  H    2.148828   1.080287   2.147126   4.634775   5.297221
    23  H    3.388323   2.147158   1.083101   2.682229   4.587775
    24  H    4.769896   4.091680   2.766343   1.104663   3.676586
    25  H    4.769896   4.091680   2.766343   1.104663   3.676586
                   11         12         13         14         15
    11  C    0.000000
    12  C    1.399480   0.000000
    13  C    2.524006   2.866566   0.000000
    14  C    2.871301   2.475343   1.416958   0.000000
    15  H    2.160426   3.415569   4.148137   4.905493   0.000000
    16  H    3.438515   3.940142   5.942421   6.214359   2.484979
    17  H    3.870140   3.421806   6.189333   5.878739   4.275488
    18  H    3.372058   2.141717   4.889350   4.099844   4.924752
    19  H    3.427889   2.175540   3.428235   2.159294   5.555003
    20  H    4.896468   4.103586   3.405496   2.151161   7.006407
    21  H    6.182806   5.864737   3.876089   3.407263   8.015917
    22  H    5.902330   6.159391   3.394219   3.889354   7.217529
    23  H    4.140842   4.882906   2.139647   3.408241   4.973942
    24  H    2.102403   3.230082   2.134275   3.264225   2.621909
    25  H    2.102403   3.230082   2.134275   3.264225   2.621909
                   16         17         18         19         20
    16  H    0.000000
    17  H    2.490424   0.000000
    18  H    4.299879   2.462944   0.000000
    19  H    5.979707   4.791422   2.483070   0.000000
    20  H    8.038620   7.186672   4.935432   2.452526   0.000000
    21  H    9.593374   9.218224   7.175150   4.753798   2.464493
    22  H    9.272363   9.552862   7.982647   5.911452   4.281019
    23  H    7.240258   8.004172   6.978255   5.531851   4.943262
    24  H    4.790637   5.774114   5.295171   4.734408   5.347041
    25  H    4.790637   5.774114   5.295171   4.734408   5.347041
                   21         22         23         24         25
    21  H    0.000000
    22  H    2.477599   0.000000
    23  H    4.282530   2.469543   0.000000
    24  H    5.829037   4.822481   2.674228   0.000000
    25  H    5.829037   4.822481   2.674228   1.718070   0.000000
 Stoichiometry    C14H11(1+)
 Framework group  CS[SG(C14H9),X(H2)]
 Deg. of freedom    46
 Full point group                 CS      NOp   2
 Largest Abelian subgroup         CS      NOp   2
 Largest concise Abelian subgroup CS      NOp   2
                         Standard orientation:                         
 ---------------------------------------------------------------------
 Center     Atomic      Atomic             Coordinates (Angstroms)
 Number     Number       Type             X           Y           Z
 ---------------------------------------------------------------------
      1          6           0        0.023963    2.850366    0.000000
      2          6           0       -1.146529    3.600519    0.000000
      3          6           0       -2.351141    2.926303    0.000000
      4          6           0       -2.384005    1.503446    0.000000
      5          6           0       -0.085955   -2.853946    0.000000
      6          6           0        1.087715   -3.589015    0.000000
      7          6           0        2.318188   -2.940621    0.000000
      8          6           0        2.366008   -1.548407    0.000000
      9          6           0        1.277137    0.689116    0.000000
     10          6           0       -1.249960   -0.693189    0.000000
     11          6           0        0.000000    1.424973    0.000000
     12          6           0       -1.220757    0.740651    0.000000
     13          6           0        1.199152   -0.795982    0.000000
     14          6           0       -0.060069   -1.445699    0.000000
     15          1           0        0.987063    3.346730    0.000000
     16          1           0       -1.110439    4.679249    0.000000
     17          1           0       -3.286693    3.468410    0.000000
     18          1           0       -3.345951    1.006179    0.000000
     19          1           0       -2.205267   -1.199378    0.000000
     20          1           0       -1.043143   -3.359089    0.000000
     21          1           0        1.044417   -4.668982    0.000000
     22          1           0        3.235153   -3.511755    0.000000
     23          1           0        3.324396   -1.043826    0.000000
     24          1           0        1.878992    1.035685    0.859035
     25          1           0        1.878992    1.035685   -0.859035
 ---------------------------------------------------------------------
 Rotational constants (GHZ):           2.1370530           0.4447140           0.3689106
 Standard basis: 6-311++G(d,p) (5D, 7F)
 There are   299 symmetry adapted cartesian basis functions of A'  symmetry.
 There are   100 symmetry adapted cartesian basis functions of A"  symmetry.
 There are   285 symmetry adapted basis functions of A'  symmetry.
 There are   100 symmetry adapted basis functions of A"  symmetry.
   385 basis functions,   603 primitive gaussians,   399 cartesian basis functions
    47 alpha electrons       47 beta electrons
       nuclear repulsion energy       781.3105914394 Hartrees.
 NAtoms=   25 NActive=   25 NUniq=   24 SFac= 1.09D+00 NAtFMM=   60 NAOKFM=F Big=F
 Integral buffers will be    131072 words long.
 Regular integral format.
 Two-electron integral symmetry is turned on.
 Nuclear repulsion after empirical dispersion term =      781.3096120890 Hartrees.
 One-electron integrals computed using PRISM.
 NBasis=   385 RedAO= T EigKep=  1.12D-06  NBF=   285   100
 NBsUse=   379 1.00D-06 EigRej=  8.37D-07 NBFU=   279   100
 ExpMin= 3.60D-02 ExpMax= 4.56D+03 ExpMxC= 6.82D+02 IAcc=3 IRadAn=         5 AccDes= 0.00D+00
 Harris functional with IExCor= 1009 and IRadAn=       5 diagonalized for initial guess.
 HarFok:  IExCor= 1009 AccDes= 0.00D+00 IRadAn=         5 IDoV= 1 UseB2=F ITyADJ=14
 ICtDFT=  3500011 ScaDFX=  1.000000  1.000000  1.000000  1.000000
 FoFCou: FMM=F IPFlag=           0 FMFlag=      100000 FMFlg1=           0
         NFxFlg=           0 DoJE=T BraDBF=F KetDBF=T FulRan=T
         wScrn=  0.000000 ICntrl=       500 IOpCl=  0 I1Cent=   200000004 NGrid=           0
         NMat0=    1 NMatS0=      1 NMatT0=    0 NMatD0=    1 NMtDS0=    0 NMtDT0=    0
 Petite list used in FoFCou.
 Initial guess orbital symmetries:
       Occupied  (A') (A') (A') (A') (A') (A') (A') (A') (A') (A')
                 (A') (A') (A') (A') (A') (A') (A') (A') (A') (A')
                 (A') (A') (A') (A') (A') (A') (A') (A') (A') (A')
                 (A') (A') (A") (A') (A') (A') (A') (A') (A") (A')
                 (A") (A') (A') (A") (A") (A") (A")
       Virtual   (A") (A") (A") (A") (A") (A') (A') (A') (A') (A")
                 (A") (A') (A') (A') (A") (A') (A') (A') (A') (A")
                 (A') (A") (A') (A') (A') (A") (A') (A") (A') (A')
                 (A') (A') (A') (A") (A') (A') (A") (A') (A') (A')
                 (A") (A') (A') (A") (A') (A') (A') (A') (A') (A")
                 (A') (A') (A") (A") (A') (A') (A') (A") (A") (A')
                 (A') (A') (A') (A') (A') (A') (A") (A') (A') (A")
                 (A') (A') (A') (A') (A') (A') (A') (A') (A') (A')
                 (A') (A') (A') (A') (A') (A') (A') (A') (A') (A')
                 (A') (A') (A') (A') (A') (A') (A') (A") (A') (A")
                 (A') (A') (A") (A") (A') (A") (A') (A") (A') (A")
                 (A") (A') (A') (A') (A") (A') (A') (A") (A") (A')
                 (A") (A") (A') (A') (A') (A") (A') (A') (A') (A")
                 (A') (A') (A') (A') (A') (A') (A") (A') (A') (A')
                 (A') (A') (A') (A') (A') (A') (A') (A') (A') (A")
                 (A") (A') (A") (A") (A') (A') (A') (A") (A") (A')
                 (A") (A') (A") (A") (A") (A') (A') (A') (A') (A')
                 (A') (A") (A') (A") (A') (A') (A') (A') (A') (A")
                 (A') (A') (A') (A') (A") (A') (A") (A') (A") (A")
                 (A') (A") (A') (A") (A') (A') (A') (A") (A') (A')
                 (A") (A") (A") (A') (A') (A") (A') (A") (A') (A')
                 (A") (A") (A') (A") (A') (A") (A') (A') (A') (A")
                 (A') (A') (A') (A') (A") (A') (A') (A') (A") (A")
                 (A') (A') (A') (A") (A') (A') (A") (A') (A") (A')
                 (A") (A') (A') (A') (A') (A") (A') (A') (A') (A")
                 (A') (A') (A") (A') (A") (A') (A') (A") (A') (A')
                 (A') (A") (A') (A") (A') (A') (A') (A") (A') (A")
                 (A') (A') (A') (A') (A") (A') (A") (A') (A") (A')
                 (A") (A') (A") (A") (A") (A') (A') (A') (A') (A')
                 (A') (A') (A') (A') (A') (A') (A') (A') (A') (A')
                 (A') (A') (A') (A') (A") (A') (A') (A') (A') (A')
                 (A') (A') (A') (A') (A') (A') (A') (A') (A') (A')
                 (A') (A') (A') (A') (A') (A') (A') (A') (A') (A')
                 (A') (A')
 The electronic state of the initial guess is 1-A'.
 Requested convergence on RMS density matrix=1.00D-08 within 128 cycles.
 Requested convergence on MAX density matrix=1.00D-06.
 Requested convergence on             energy=1.00D-06.
 No special actions if energy rises.
 SCF Done:  E(RM062X) =  -539.758444530     A.U. after   15 cycles
            NFock= 15  Conv=0.76D-08     -V/T= 2.0042
 DoSCS=F DFT=T ScalE2(SS,OS)=  1.000000  1.000000
 ExpMin= 3.60D-02 ExpMax= 4.56D+03 ExpMxC= 6.82D+02 IAcc=3 IRadAn=         5 AccDes= 0.00D+00
 HarFok:  IExCor=  205 AccDes= 0.00D+00 IRadAn=         5 IDoV=-2 UseB2=F ITyADJ=14
 ICtDFT= 12500011 ScaDFX=  1.000000  1.000000  1.000000  1.000000
 Range of M.O.s used for correlation:    15   379
 NBasis=   385 NAE=    47 NBE=    47 NFC=    14 NFV=     0
 NROrb=    365 NOA=    33 NOB=    33 NVA=   332 NVB=   332

 **** Warning!!: The largest alpha MO coefficient is  0.13638017D+03

 Orbital symmetries:
       Occupied  (A') (A') (A') (A') (A') (A') (A') (A') (A') (A')
                 (A') (A') (A') (A') (A') (A') (A') (A') (A') (A')
                 (A') (A') (A') (A') (A') (A') (A') (A') (A') (A')
                 (A') (A') (A") (A') (A') (A') (A') (A") (A") (A')
                 (A') (A') (A') (A") (A") (A") (A")
       Virtual   (A") (A") (A") (A") (A') (A') (A') (A') (A") (A')
                 (A') (A") (A') (A') (A") (A') (A") (A') (A') (A')
                 (A") (A") (A') (A') (A') (A") (A') (A") (A') (A')
                 (A") (A') (A") (A') (A') (A') (A') (A') (A") (A')
                 (A") (A') (A') (A") (A") (A') (A") (A') (A") (A')
                 (A') (A') (A') (A') (A') (A") (A') (A') (A') (A')
                 (A') (A") (A') (A') (A') (A") (A') (A') (A') (A')
                 (A') (A') (A') (A') (A') (A') (A') (A') (A') (A')
                 (A') (A') (A') (A') (A') (A') (A') (A') (A') (A')
                 (A') (A') (A') (A') (A") (A') (A") (A") (A') (A")
                 (A') (A') (A') (A') (A") (A") (A') (A") (A") (A')
                 (A') (A') (A") (A') (A') (A") (A') (A") (A') (A")
                 (A") (A') (A") (A') (A') (A') (A") (A') (A') (A')
                 (A') (A') (A') (A') (A') (A') (A') (A') (A') (A')
                 (A') (A') (A') (A") (A') (A') (A') (A') (A') (A')
                 (A') (A') (A") (A') (A") (A') (A") (A") (A') (A")
                 (A") (A') (A') (A") (A") (A") (A') (A") (A') (A')
                 (A') (A') (A') (A") (A") (A') (A') (A') (A') (A")
                 (A') (A') (A') (A") (A") (A') (A') (A') (A") (A")
                 (A") (A') (A') (A") (A') (A") (A') (A') (A') (A')
                 (A") (A") (A") (A') (A") (A') (A') (A") (A') (A')
                 (A') (A") (A') (A") (A") (A') (A") (A') (A') (A")
                 (A') (A') (A') (A') (A") (A') (A') (A') (A") (A")
                 (A') (A') (A') (A") (A') (A') (A') (A") (A") (A')
                 (A") (A') (A') (A") (A') (A') (A') (A') (A') (A')
                 (A") (A') (A') (A') (A') (A") (A") (A") (A') (A')
                 (A') (A') (A') (A') (A') (A') (A") (A') (A') (A')
                 (A') (A") (A') (A") (A") (A") (A') (A") (A') (A")
                 (A') (A") (A") (A') (A") (A") (A') (A') (A') (A')
                 (A') (A') (A') (A') (A') (A') (A') (A') (A') (A')
                 (A') (A') (A') (A") (A') (A') (A') (A') (A') (A')
                 (A') (A') (A') (A') (A') (A') (A') (A') (A') (A')
                 (A') (A') (A') (A') (A') (A') (A') (A') (A') (A')
                 (A') (A')
     4 initial guesses have been made.
 Convergence on wavefunction:    0.001000000000000
 Iteration     1 Dimension     4 NMult     0 NNew      4
 CISAX will form     4 AO SS matrices at one time.
 Iteration     2 Dimension     6 NMult     4 NNew      2
 Iteration     3 Dimension     8 NMult     6 NNew      2
 Iteration     4 Dimension    10 NMult     8 NNew      2
 Iteration     5 Dimension    12 NMult    10 NNew      2
 Iteration     6 Dimension    14 NMult    12 NNew      2
 ***********************************************************************
 Excited states from <AA,BB:AA,BB> singles matrix:
 ***********************************************************************
 
 Ground to excited state transition densities written to RWF  633
 Ground to excited state transition electric dipole moments (Au):
       state          X           Y           Z        Dip. S.      Osc.
         1         0.5220      0.3067     -0.0000      0.3665      0.0249
 Ground to excited state transition velocity dipole moments (Au):
       state          X           Y           Z        Dip. S.      Osc.
         1        -0.0609     -0.0324     -0.0000      0.0048      0.0311
 Ground to excited state transition magnetic dipole moments (Au):
       state          X           Y           Z
         1        -0.0000      0.0000      0.1389
 Ground to excited state transition velocity quadrupole moments (Au):
       state          XX          YY          ZZ          XY          XZ          YZ
         1         0.1352      0.1691     -0.0092     -0.1348      0.0000     -0.0000
 <0|del|b> * <b|rxdel|0> + <0|del|b> * <b|delr+rdel|0>
 Rotatory Strengths (R) in cgs (10**-40 erg-esu-cm/Gauss)
       state          XX          YY          ZZ    R(velocity)    E-M Angle
         1        -0.0000      0.0000     -0.0000     -0.0000       90.00
 1/2[<0|r|b>*<b|rxdel|0> + (<0|rxdel|b>*<b|r|0>)*]
 Rotatory Strengths (R) in cgs (10**-40 erg-esu-cm/Gauss)
       state          XX          YY          ZZ     R(length)
         1         0.0000     -0.0000      0.0000      0.0000
  1/2[<0|del|b>*<b|r|0> + (<0|r|b>*<b|del|0>)*] (Au)
       state          X           Y           Z        Dip. S.   Osc.(frdel)
         1        -0.0318     -0.0100      0.0000      0.0417      0.0278

 Excitation energies and oscillator strengths:
 
 Excited State   1:      Singlet-A'     2.7708 eV  447.46 nm  f=0.0249  <S**2>=0.000
      47 -> 48         0.70381
 This state for optimization and/or second-order correction.
 Total Energy, E(TD-HF/TD-DFT) =  -539.656618151    
 Copying the excited state density for this state as the 1-particle RhoCI density.
 SavETr:  write IOETrn=   770 NScale= 10 NData=  16 NLR=1 NState=    1 LETran=      28.

 **********************************************************************

            Population analysis using the SCF Density.

 **********************************************************************

 Orbital symmetries:
       Occupied  (A') (A') (A') (A') (A') (A') (A') (A') (A') (A')
                 (A') (A') (A') (A') (A') (A') (A') (A') (A') (A')
                 (A') (A') (A') (A') (A') (A') (A') (A') (A') (A')
                 (A') (A') (A") (A') (A') (A') (A') (A") (A") (A')
                 (A') (A') (A') (A") (A") (A") (A")
       Virtual   (A") (A") (A") (A") (A') (A') (A') (A') (A") (A')
                 (A') (A") (A') (A') (A") (A') (A") (A') (A') (A')
                 (A") (A") (A') (A') (A') (A") (A') (A") (A') (A')
                 (A") (A') (A") (A') (A') (A') (A') (A') (A") (A')
                 (A") (A') (A') (A") (A") (A') (A") (A') (A") (A')
                 (A') (A') (A') (A') (A') (A") (A') (A') (A') (A')
                 (A') (A") (A') (A') (A') (A") (A') (A') (A') (A')
                 (A') (A') (A') (A') (A') (A') (A') (A') (A') (A')
                 (A') (A') (A') (A') (A') (A') (A') (A') (A') (A')
                 (A') (A') (A') (A') (A") (A') (A") (A") (A') (A")
                 (A') (A') (A') (A') (A") (A") (A') (A") (A") (A')
                 (A') (A') (A") (A') (A') (A") (A') (A") (A') (A")
                 (A") (A') (A") (A') (A') (A') (A") (A') (A') (A')
                 (A') (A') (A') (A') (A') (A') (A') (A') (A') (A')
                 (A') (A') (A') (A") (A') (A') (A') (A') (A') (A')
                 (A') (A') (A") (A') (A") (A') (A") (A") (A') (A")
                 (A") (A') (A') (A") (A") (A") (A') (A") (A') (A')
                 (A') (A') (A') (A") (A") (A') (A') (A') (A') (A")
                 (A') (A') (A') (A") (A") (A') (A') (A') (A") (A")
                 (A") (A') (A') (A") (A') (A") (A') (A') (A') (A')
                 (A") (A") (A") (A') (A") (A') (A') (A") (A') (A')
                 (A') (A") (A') (A") (A") (A') (A") (A') (A') (A")
                 (A') (A') (A') (A') (A") (A') (A') (A') (A") (A")
                 (A') (A') (A') (A") (A') (A') (A') (A") (A") (A')
                 (A") (A') (A') (A") (A') (A') (A') (A') (A') (A')
                 (A") (A') (A') (A') (A') (A") (A") (A") (A') (A')
                 (A') (A') (A') (A') (A') (A') (A") (A') (A') (A')
                 (A') (A") (A') (A") (A") (A") (A') (A") (A') (A")
                 (A') (A") (A") (A') (A") (A") (A') (A') (A') (A')
                 (A') (A') (A') (A') (A') (A') (A') (A') (A') (A')
                 (A') (A') (A') (A") (A') (A') (A') (A') (A') (A')
                 (A') (A') (A') (A') (A') (A') (A') (A') (A') (A')
                 (A') (A') (A') (A') (A') (A') (A') (A') (A') (A')
                 (A') (A')
 The electronic state is 1-A'.
 Alpha  occ. eigenvalues --  -10.77638 -10.73512 -10.72936 -10.72653 -10.72187
 Alpha  occ. eigenvalues --  -10.71634 -10.71532 -10.71086 -10.70973 -10.70503
 Alpha  occ. eigenvalues --  -10.70102 -10.69842 -10.69790 -10.69461  -1.16483
 Alpha  occ. eigenvalues --   -1.12477  -1.06942  -1.05786  -1.01306  -1.00267
 Alpha  occ. eigenvalues --   -0.95718  -0.91055  -0.86427  -0.85904  -0.83810
 Alpha  occ. eigenvalues --   -0.78384  -0.76072  -0.74405  -0.69624  -0.69271
 Alpha  occ. eigenvalues --   -0.68450  -0.68160  -0.68095  -0.64920  -0.64265
 Alpha  occ. eigenvalues --   -0.62972  -0.61794  -0.60178  -0.59503  -0.59111
 Alpha  occ. eigenvalues --   -0.56917  -0.55238  -0.54755  -0.52437  -0.46843
 Alpha  occ. eigenvalues --   -0.46087  -0.44264
 Alpha virt. eigenvalues --   -0.26087  -0.14670  -0.14092  -0.12769  -0.11182
 Alpha virt. eigenvalues --   -0.10090  -0.09238  -0.07976  -0.07955  -0.07478
 Alpha virt. eigenvalues --   -0.07207  -0.07144  -0.05643  -0.05580  -0.05339
 Alpha virt. eigenvalues --   -0.03833  -0.03652  -0.03278  -0.03132  -0.02162
 Alpha virt. eigenvalues --   -0.01363  -0.00938   0.00188   0.00593   0.00665
 Alpha virt. eigenvalues --    0.01060   0.01510   0.01936   0.02194   0.02293
 Alpha virt. eigenvalues --    0.02450   0.02672   0.02761   0.03269   0.03401
 Alpha virt. eigenvalues --    0.04234   0.04504   0.04702   0.05032   0.05372
 Alpha virt. eigenvalues --    0.06029   0.06296   0.06592   0.07052   0.07257
 Alpha virt. eigenvalues --    0.07897   0.08139   0.08362   0.08575   0.08923
 Alpha virt. eigenvalues --    0.09524   0.09577   0.10023   0.10863   0.11025
 Alpha virt. eigenvalues --    0.11117   0.12156   0.12251   0.12837   0.13013
 Alpha virt. eigenvalues --    0.13432   0.13523   0.14011   0.14363   0.16083
 Alpha virt. eigenvalues --    0.16340   0.16416   0.17341   0.17582   0.17796
 Alpha virt. eigenvalues --    0.18127   0.19055   0.19292   0.19635   0.19797
 Alpha virt. eigenvalues --    0.21537   0.21627   0.22715   0.23127   0.23565
 Alpha virt. eigenvalues --    0.23830   0.24551   0.25325   0.26928   0.27613
 Alpha virt. eigenvalues --    0.28858   0.29288   0.29893   0.31364   0.35823
 Alpha virt. eigenvalues --    0.36452   0.38190   0.39280   0.41132   0.41370
 Alpha virt. eigenvalues --    0.41980   0.42165   0.42983   0.43704   0.44325
 Alpha virt. eigenvalues --    0.44867   0.45087   0.46001   0.46277   0.47915
 Alpha virt. eigenvalues --    0.48492   0.48854   0.49024   0.50458   0.51179
 Alpha virt. eigenvalues --    0.51435   0.51883   0.52122   0.52874   0.54028
 Alpha virt. eigenvalues --    0.54098   0.54646   0.55667   0.55819   0.57457
 Alpha virt. eigenvalues --    0.58236   0.58860   0.61465   0.62199   0.62373
 Alpha virt. eigenvalues --    0.63202   0.63488   0.64983   0.65160   0.67355
 Alpha virt. eigenvalues --    0.70386   0.70539   0.71096   0.72450   0.72887
 Alpha virt. eigenvalues --    0.75697   0.76044   0.76342   0.76844   0.77113
 Alpha virt. eigenvalues --    0.77857   0.77932   0.78264   0.79885   0.80399
 Alpha virt. eigenvalues --    0.81257   0.81593   0.82232   0.83011   0.85215
 Alpha virt. eigenvalues --    0.87135   0.88194   0.88467   0.89178   0.90496
 Alpha virt. eigenvalues --    0.91099   0.91304   0.93225   0.94628   0.96378
 Alpha virt. eigenvalues --    0.96753   1.00335   1.01289   1.01632   1.02755
 Alpha virt. eigenvalues --    1.03222   1.03487   1.04780   1.05807   1.08812
 Alpha virt. eigenvalues --    1.19572   1.23162   1.24111   1.24946   1.28377
 Alpha virt. eigenvalues --    1.29540   1.31948   1.34273   1.35775   1.35995
 Alpha virt. eigenvalues --    1.39361   1.40003   1.40934   1.42972   1.43502
 Alpha virt. eigenvalues --    1.43530   1.44547   1.46151   1.46374   1.46657
 Alpha virt. eigenvalues --    1.47659   1.48080   1.51771   1.53645   1.55800
 Alpha virt. eigenvalues --    1.55854   1.56336   1.56573   1.57806   1.61474
 Alpha virt. eigenvalues --    1.63182   1.63362   1.63956   1.66118   1.68338
 Alpha virt. eigenvalues --    1.68350   1.68686   1.69757   1.74420   1.76011
 Alpha virt. eigenvalues --    1.77193   1.78059   1.80013   1.80108   1.80777
 Alpha virt. eigenvalues --    1.83055   1.83202   1.83635   1.83839   1.84158
 Alpha virt. eigenvalues --    1.84378   1.85671   1.86246   1.88275   1.91405
 Alpha virt. eigenvalues --    1.92111   1.94117   1.95258   1.97728   1.98167
 Alpha virt. eigenvalues --    1.99778   2.02506   2.04474   2.07278   2.11795
 Alpha virt. eigenvalues --    2.12111   2.14159   2.15234   2.19124   2.21281
 Alpha virt. eigenvalues --    2.22780   2.28544   2.30279   2.34626   2.34916
 Alpha virt. eigenvalues --    2.36267   2.38657   2.39627   2.42375   2.44528
 Alpha virt. eigenvalues --    2.46163   2.46615   2.49327   2.52938   2.53808
 Alpha virt. eigenvalues --    2.54310   2.56764   2.57869   2.58338   2.59564
 Alpha virt. eigenvalues --    2.59873   2.61595   2.62148   2.63560   2.63796
 Alpha virt. eigenvalues --    2.64802   2.65116   2.65139   2.65458   2.68009
 Alpha virt. eigenvalues --    2.68536   2.70957   2.71435   2.73358   2.74823
 Alpha virt. eigenvalues --    2.76296   2.78750   2.79713   2.83006   2.83116
 Alpha virt. eigenvalues --    2.84892   2.86316   2.92128   2.97023   2.99490
 Alpha virt. eigenvalues --    3.00103   3.05196   3.10549   3.11421   3.13554
 Alpha virt. eigenvalues --    3.20958   3.23347   3.26685   3.28491   3.30635
 Alpha virt. eigenvalues --    3.32808   3.34049   3.43563   3.46014   3.46739
 Alpha virt. eigenvalues --    3.48520   3.50168   3.56525   3.65593   3.66957
 Alpha virt. eigenvalues --    3.67596   3.94077   3.94293   3.95319   3.96313
 Alpha virt. eigenvalues --    4.03996   4.06781   4.07605   4.12540   4.35547
 Alpha virt. eigenvalues --    4.61409   4.69669   4.71519  23.45304  23.60433
 Alpha virt. eigenvalues --   23.81611  23.84512  23.86966  23.89192  23.91024
 Alpha virt. eigenvalues --   23.93906  23.96615  23.98141  24.01337  24.02883
 Alpha virt. eigenvalues --   24.10771  24.11398
          Condensed to atoms (all electrons):
               1          2          3          4          5          6
     1  C    8.746861   0.189606  -0.473102   2.097796  -0.046907  -0.101209
     2  C    0.189606   7.127212   0.307175  -1.120294  -0.005769  -0.014002
     3  C   -0.473102   0.307175   6.585922   0.789448  -0.130736   0.016906
     4  C    2.097796  -1.120294   0.789448  10.750909  -0.347923  -0.116020
     5  C   -0.046907  -0.005769  -0.130736  -0.347923  11.194829   0.729425
     6  C   -0.101209  -0.014002   0.016906  -0.116020   0.729425   6.596066
     7  C   -0.011894   0.001918  -0.015212  -0.034597  -1.004799   0.403143
     8  C    0.406492  -0.029316  -0.089121  -0.003195   1.802890  -0.615634
     9  C   -1.182530  -0.774722   0.290578  -0.354391  -0.102992   0.291909
    10  C   -1.325984   0.298650  -0.403479  -2.461793  -2.683026  -0.306636
    11  C    0.282195  -0.974614   1.076801  -0.273002  -1.552517  -0.206680
    12  C   -2.252683   1.533559  -1.440099  -1.565342  -0.401981  -0.154339
    13  C    0.217115  -0.270392  -0.142136  -1.455486  -0.263168   0.947686
    14  C   -1.047314  -0.137724  -0.246908  -0.261708  -1.559129  -1.349734
    15  H    0.367589  -0.105861  -0.000289   0.028446   0.005285   0.001028
    16  H   -0.018207   0.375751  -0.013650   0.011648  -0.001448  -0.000311
    17  H   -0.028033  -0.012201   0.370975  -0.066542   0.000420   0.000389
    18  H    0.051622   0.002542  -0.084735   0.453767   0.006656  -0.005128
    19  H   -0.048077  -0.007379   0.051145  -0.065354  -0.076027   0.050881
    20  H    0.007312   0.002029  -0.004978   0.006748   0.460278  -0.084533
    21  H   -0.001368  -0.000385   0.000404   0.000205  -0.068394   0.378225
    22  H    0.000885   0.000384  -0.000345  -0.001633   0.015660  -0.019132
    23  H    0.005340  -0.002830   0.001177   0.006266   0.025681  -0.002713
    24  H    0.029544   0.013543  -0.001656  -0.012822  -0.011769  -0.001377
    25  H    0.029544   0.013543  -0.001656  -0.012822  -0.011769  -0.001377
               7          8          9         10         11         12
     1  C   -0.011894   0.406492  -1.182530  -1.325984   0.282195  -2.252683
     2  C    0.001918  -0.029316  -0.774722   0.298650  -0.974614   1.533559
     3  C   -0.015212  -0.089121   0.290578  -0.403479   1.076801  -1.440099
     4  C   -0.034597  -0.003195  -0.354391  -2.461793  -0.273002  -1.565342
     5  C   -1.004799   1.802890  -0.102992  -2.683026  -1.552517  -0.401981
     6  C    0.403143  -0.615634   0.291909  -0.306636  -0.206680  -0.154339
     7  C    7.129372   0.473649  -0.821668   0.191796  -0.221563  -0.256946
     8  C    0.473649   8.434972  -1.200112  -1.215342   0.180623  -1.112481
     9  C   -0.821668  -1.200112   9.628095   0.254117   1.604921  -1.851256
    10  C    0.191796  -1.215342   0.254117   9.187891  -0.528368   2.456743
    11  C   -0.221563   0.180623   1.604921  -0.528368  14.481649  -3.578564
    12  C   -0.256946  -1.112481  -1.851256   2.456743  -3.578564  15.974513
    13  C   -0.861595   0.294380   1.692312  -0.427089   1.083329  -4.844433
    14  C    1.151109  -1.820461  -2.062611   2.405462  -4.788790   3.046000
    15  H   -0.002513   0.006350   0.093941  -0.010587  -0.031786  -0.031049
    16  H    0.000338   0.000523   0.004287  -0.008875   0.027713  -0.034674
    17  H   -0.000411  -0.001273  -0.006279   0.020732  -0.028284   0.094955
    18  H    0.001999   0.007206  -0.025906   0.015491  -0.005848  -0.058893
    19  H   -0.007897  -0.045092   0.075745   0.422192   0.080159  -0.054020
    20  H    0.003272   0.047863  -0.023989   0.011648  -0.012040  -0.017271
    21  H   -0.020226  -0.020965  -0.005304   0.020314  -0.006324   0.005232
    22  H    0.380730  -0.019956   0.003123  -0.010175   0.003298  -0.009851
    23  H   -0.104561   0.365902   0.089370  -0.008601  -0.001298   0.007229
    24  H    0.015229   0.035268   0.356980   0.005489   0.006967  -0.060234
    25  H    0.015229   0.035268   0.356980   0.005489   0.006967  -0.060234
              13         14         15         16         17         18
     1  C    0.217115  -1.047314   0.367589  -0.018207  -0.028033   0.051622
     2  C   -0.270392  -0.137724  -0.105861   0.375751  -0.012201   0.002542
     3  C   -0.142136  -0.246908  -0.000289  -0.013650   0.370975  -0.084735
     4  C   -1.455486  -0.261708   0.028446   0.011648  -0.066542   0.453767
     5  C   -0.263168  -1.559129   0.005285  -0.001448   0.000420   0.006656
     6  C    0.947686  -1.349734   0.001028  -0.000311   0.000389  -0.005128
     7  C   -0.861595   1.151109  -0.002513   0.000338  -0.000411   0.001999
     8  C    0.294380  -1.820461   0.006350   0.000523  -0.001273   0.007206
     9  C    1.692312  -2.062611   0.093941   0.004287  -0.006279  -0.025906
    10  C   -0.427089   2.405462  -0.010587  -0.008875   0.020732   0.015491
    11  C    1.083329  -4.788790  -0.031786   0.027713  -0.028284  -0.005848
    12  C   -4.844433   3.046000  -0.031049  -0.034674   0.094955  -0.058893
    13  C   14.589675  -3.978489   0.004534   0.002817  -0.006324  -0.011917
    14  C   -3.978489  16.169442   0.005806  -0.008342   0.005361  -0.010046
    15  H    0.004534   0.005806   0.441810  -0.008958   0.001338   0.000129
    16  H    0.002817  -0.008342  -0.008958   0.421056  -0.006297   0.001894
    17  H   -0.006324   0.005361   0.001338  -0.006297   0.423823  -0.010321
    18  H   -0.011917  -0.010046   0.000129   0.001894  -0.010321   0.456391
    19  H    0.076591  -0.077127   0.000249  -0.000500   0.001244  -0.006484
    20  H   -0.009408  -0.048789  -0.000105   0.000012  -0.000129   0.001271
    21  H   -0.026826   0.088011   0.000012  -0.000007   0.000010  -0.000156
    22  H    0.027037  -0.032785  -0.000129   0.000007  -0.000007   0.000017
    23  H   -0.029348  -0.017888   0.000586  -0.000125   0.000015  -0.000119
    24  H    0.019872  -0.059650  -0.000885   0.000632  -0.000146   0.000202
    25  H    0.019872  -0.059650  -0.000885   0.000632  -0.000146   0.000202
              19         20         21         22         23         24
     1  C   -0.048077   0.007312  -0.001368   0.000885   0.005340   0.029544
     2  C   -0.007379   0.002029  -0.000385   0.000384  -0.002830   0.013543
     3  C    0.051145  -0.004978   0.000404  -0.000345   0.001177  -0.001656
     4  C   -0.065354   0.006748   0.000205  -0.001633   0.006266  -0.012822
     5  C   -0.076027   0.460278  -0.068394   0.015660   0.025681  -0.011769
     6  C    0.050881  -0.084533   0.378225  -0.019132  -0.002713  -0.001377
     7  C   -0.007897   0.003272  -0.020226   0.380730  -0.104561   0.015229
     8  C   -0.045092   0.047863  -0.020965  -0.019956   0.365902   0.035268
     9  C    0.075745  -0.023989  -0.005304   0.003123   0.089370   0.356980
    10  C    0.422192   0.011648   0.020314  -0.010175  -0.008601   0.005489
    11  C    0.080159  -0.012040  -0.006324   0.003298  -0.001298   0.006967
    12  C   -0.054020  -0.017271   0.005232  -0.009851   0.007229  -0.060234
    13  C    0.076591  -0.009408  -0.026826   0.027037  -0.029348   0.019872
    14  C   -0.077127  -0.048789   0.088011  -0.032785  -0.017888  -0.059650
    15  H    0.000249  -0.000105   0.000012  -0.000129   0.000586  -0.000885
    16  H   -0.000500   0.000012  -0.000007   0.000007  -0.000125   0.000632
    17  H    0.001244  -0.000129   0.000010  -0.000007   0.000015  -0.000146
    18  H   -0.006484   0.001271  -0.000156   0.000017  -0.000119   0.000202
    19  H    0.442971  -0.005886   0.001578  -0.000572   0.000358   0.000606
    20  H   -0.005886   0.450413  -0.010107   0.001942   0.000229   0.000156
    21  H    0.001578  -0.010107   0.420957  -0.006909   0.001579  -0.000137
    22  H   -0.000572   0.001942  -0.006909   0.417496  -0.008939   0.000627
    23  H    0.000358   0.000229   0.001579  -0.008939   0.436001  -0.000915
    24  H    0.000606   0.000156  -0.000137   0.000627  -0.000915   0.494106
    25  H    0.000606   0.000156  -0.000137   0.000627  -0.000915  -0.079970
              25
     1  C    0.029544
     2  C    0.013543
     3  C   -0.001656
     4  C   -0.012822
     5  C   -0.011769
     6  C   -0.001377
     7  C    0.015229
     8  C    0.035268
     9  C    0.356980
    10  C    0.005489
    11  C    0.006967
    12  C   -0.060234
    13  C    0.019872
    14  C   -0.059650
    15  H   -0.000885
    16  H    0.000632
    17  H   -0.000146
    18  H    0.000202
    19  H    0.000606
    20  H    0.000156
    21  H   -0.000137
    22  H    0.000627
    23  H   -0.000915
    24  H   -0.079970
    25  H    0.494106
 Mulliken charges:
               1
     1  C    0.105408
     2  C   -0.410423
     3  C   -0.442431
     4  C    0.007691
     5  C    0.027234
     6  C   -0.436834
     7  C   -0.403901
     8  C    0.081563
     9  C   -0.330598
    10  C    0.093941
    11  C   -0.624945
    12  C    0.666120
    13  C   -0.648609
    14  C    0.695954
    15  H    0.235946
    16  H    0.254084
    17  H    0.247130
    18  H    0.220164
    19  H    0.190089
    20  H    0.223907
    21  H    0.250718
    22  H    0.258597
    23  H    0.238518
    24  H    0.250340
    25  H    0.250340
 Sum of Mulliken charges =   1.00000
 Mulliken charges with hydrogens summed into heavy atoms:
               1
     1  C    0.341354
     2  C   -0.156339
     3  C   -0.195302
     4  C    0.227854
     5  C    0.251141
     6  C   -0.186116
     7  C   -0.145304
     8  C    0.320080
     9  C    0.170081
    10  C    0.284030
    11  C   -0.624945
    12  C    0.666120
    13  C   -0.648609
    14  C    0.695954
 Electronic spatial extent (au):  <R**2>=           2855.3002
 Charge=              1.0000 electrons
 Dipole moment (field-independent basis, Debye):
    X=              0.1028    Y=             -0.5792    Z=              0.0000  Tot=              0.5882
 Quadrupole moment (field-independent basis, Debye-Ang):
   XX=            -50.9357   YY=            -36.4264   ZZ=            -84.1384
   XY=            -10.2853   XZ=              0.0000   YZ=              0.0000
 Traceless Quadrupole moment (field-independent basis, Debye-Ang):
   XX=              6.2312   YY=             20.7404   ZZ=            -26.9716
   XY=            -10.2853   XZ=              0.0000   YZ=              0.0000
 Octapole moment (field-independent basis, Debye-Ang**2):
  XXX=              1.6117  YYY=              0.3637  ZZZ=              0.0000  XYY=              1.7760
  XXY=             -6.7184  XXZ=              0.0000  XZZ=              3.1003  YZZ=              0.7298
  YYZ=              0.0000  XYZ=              0.0000
 Hexadecapole moment (field-independent basis, Debye-Ang**3):
 XXXX=           -991.4021 YYYY=          -1846.1817 ZZZZ=            -99.3191 XXXY=            348.7661
 XXXZ=              0.0000 YYYX=            275.3496 YYYZ=             -0.0000 ZZZX=             -0.0000
 ZZZY=              0.0000 XXYY=           -454.2398 XXZZ=           -242.3501 YYZZ=           -493.9163
 XXYZ=              0.0000 YYXZ=              0.0000 ZZXY=            183.4771
 N-N= 7.813096120890D+02 E-N=-2.798968575316D+03  KE= 5.375180327509D+02
 Symmetry A'   KE= 5.228690401808D+02
 Symmetry A"   KE= 1.464899257012D+01
 Unable to Open any file for archive entry.
 1\1\GINC-GADI-CPU-CLX-1762\SP\RM062X TD-FC\6-311++G(d,p)\C14H11(1+)\TS
 1578\02-Aug-2022\0\\#n M062X/6-311++G(d,p) TD(NStates=1) EmpiricalDisp
 ersion=GD3 SP\\SP_-75\\1,1\C,0,2.505405,1.360131,0.\C,0,3.717483,0.679
 214,0.\C,0,3.688161,-0.70093,0.\C,0,2.447506,-1.398338,0.\C,0,-2.47870
 6,-1.416538,0.\C,0,-3.678961,-0.72573,0.\C,0,-3.684583,0.665114,0.\C,0
 ,-2.478005,1.361331,0.\C,0,0.008775,1.451169,0.\C,0,-0.0244,-1.429089,
 0.\C,0,1.25833,0.66939,0.\C,0,1.227671,-0.729754,0.\C,0,-1.26563,0.684
 69,0.\C,0,-1.247671,-0.732154,0.\H,0,2.491171,2.443522,0.\H,0,4.652828
 ,1.217814,0.\H,0,4.606212,-1.272174,0.\H,0,2.4604,-2.481134,0.\H,0,-0.
 0225,-2.510216,0.\H,0,-2.475,-2.498834,0.\H,0,-4.612012,-1.271274,0.\H
 ,0,-4.619528,1.206314,0.\H,0,-2.482771,2.444422,0.\H,0,0.032,2.145287,
 -0.859035\H,0,0.032,2.145287,0.859035\\Version=ES64L-G16RevC.01\State=
 1-A'\HF=-539.7584445\RMSD=7.565e-09\PG=CS [SG(C14H9),X(H2)]\\@
 The archive entry for this job was punched.


 WORK FAITHFULLY FOR EIGHT HOURS A DAY AND DON'T WORRY.
 IN TIME YOU MAY BECOME BOSS AND WORK TWELVE HOURS A DAY
 AND HAVE ALL THE WORRY.
 Job cpu time:       0 days  0 hours 52 minutes 24.1 seconds.
 Elapsed time:       0 days  0 hours  1 minutes  5.6 seconds.
 File lengths (MBytes):  RWF=    460 Int=      0 D2E=      0 Chk=     15 Scr=      1
 Normal termination of Gaussian 16 at Tue Aug  2 11:24:51 2022.
