 Entering Gaussian System, Link 0=g16
 Initial command:
 /apps/gaussian/g16c01/g16/l1.exe "/jobfs/53796104.gadi-pbs/Gau-3601577.inp" -scrdir="/jobfs/53796104.gadi-pbs/"
 Entering Link 1 = /apps/gaussian/g16c01/g16/l1.exe PID=   3601578.
  
 Copyright (c) 1988-2019, Gaussian, Inc.  All Rights Reserved.
  
 This is part of the Gaussian(R) 16 program.  It is based on
 the Gaussian(R) 09 system (copyright 2009, Gaussian, Inc.),
 the Gaussian(R) 03 system (copyright 2003, Gaussian, Inc.),
 the Gaussian(R) 98 system (copyright 1998, Gaussian, Inc.),
 the Gaussian(R) 94 system (copyright 1995, Gaussian, Inc.),
 the Gaussian 92(TM) system (copyright 1992, Gaussian, Inc.),
 the Gaussian 90(TM) system (copyright 1990, Gaussian, Inc.),
 the Gaussian 88(TM) system (copyright 1988, Gaussian, Inc.),
 the Gaussian 86(TM) system (copyright 1986, Carnegie Mellon
 University), and the Gaussian 82(TM) system (copyright 1983,
 Carnegie Mellon University). Gaussian is a federally registered
 trademark of Gaussian, Inc.
  
 This software contains proprietary and confidential information,
 including trade secrets, belonging to Gaussian, Inc.
  
 This software is provided under written license and may be
 used, copied, transmitted, or stored only in accord with that
 written license.
  
 The following legend is applicable only to US Government
 contracts under FAR:
  
                    RESTRICTED RIGHTS LEGEND
  
 Use, reproduction and disclosure by the US Government is
 subject to restrictions as set forth in subparagraphs (a)
 and (c) of the Commercial Computer Software - Restricted
 Rights clause in FAR 52.227-19.
  
 Gaussian, Inc.
 340 Quinnipiac St., Bldg. 40, Wallingford CT 06492
  
  
 ---------------------------------------------------------------
 Warning -- This program may not be used in any manner that
 competes with the business of Gaussian, Inc. or will provide
 assistance to any competitor of Gaussian, Inc.  The licensee
 of this program is prohibited from giving any competitor of
 Gaussian, Inc. access to this program.  By using this program,
 the user acknowledges that Gaussian, Inc. is engaged in the
 business of creating and licensing software in the field of
 computational chemistry and represents and warrants to the
 licensee that it is not a competitor of Gaussian, Inc. and that
 it will not use this program in any manner prohibited above.
 ---------------------------------------------------------------
  

 Cite this work as:
 Gaussian 16, Revision C.01,
 M. J. Frisch, G. W. Trucks, H. B. Schlegel, G. E. Scuseria, 
 M. A. Robb, J. R. Cheeseman, G. Scalmani, V. Barone, 
 G. A. Petersson, H. Nakatsuji, X. Li, M. Caricato, A. V. Marenich, 
 J. Bloino, B. G. Janesko, R. Gomperts, B. Mennucci, H. P. Hratchian, 
 J. V. Ortiz, A. F. Izmaylov, J. L. Sonnenberg, D. Williams-Young, 
 F. Ding, F. Lipparini, F. Egidi, J. Goings, B. Peng, A. Petrone, 
 T. Henderson, D. Ranasinghe, V. G. Zakrzewski, J. Gao, N. Rega, 
 G. Zheng, W. Liang, M. Hada, M. Ehara, K. Toyota, R. Fukuda, 
 J. Hasegawa, M. Ishida, T. Nakajima, Y. Honda, O. Kitao, H. Nakai, 
 T. Vreven, K. Throssell, J. A. Montgomery, Jr., J. E. Peralta, 
 F. Ogliaro, M. J. Bearpark, J. J. Heyd, E. N. Brothers, K. N. Kudin, 
 V. N. Staroverov, T. A. Keith, R. Kobayashi, J. Normand, 
 K. Raghavachari, A. P. Rendell, J. C. Burant, S. S. Iyengar, 
 J. Tomasi, M. Cossi, J. M. Millam, M. Klene, C. Adamo, R. Cammi, 
 J. W. Ochterski, R. L. Martin, K. Morokuma, O. Farkas, 
 J. B. Foresman, and D. J. Fox, Gaussian, Inc., Wallingford CT, 2019.
 
 ******************************************
 Gaussian 16:  ES64L-G16RevC.01  3-Jul-2019
                 2-Aug-2022 
 ******************************************
 %NProcShared=48
 Will use up to   48 processors via shared memory.
 %mem = 190GB
 ---------------------------------------------------------------
 #n M062X/6-311++G(d,p) TD(NStates=1) EmpiricalDispersion=GD3 SP
 ---------------------------------------------------------------
 1/38=1,172=1/1;
 2/12=2,17=6,18=5,40=1/2;
 3/5=4,6=6,7=1111,11=9,25=1,30=1,74=-55,124=31/1,2,3,8;
 4//1;
 5/5=2,38=5/2;
 8/6=1,10=2,108=1/1;
 9/41=1,42=1,70=2/14;
 6/7=2,8=2,9=2,10=2/1;
 99/5=1,9=1/99;
 -------
 SP_-100
 -------
 Symbolic Z-matrix:
 Charge =  1 Multiplicity = 1
 C                     2.50836   1.36013   0. 
 C                     3.72136   0.68106   0. 
 C                     3.68916  -0.69758   0. 
 C                     2.44358  -1.39601   0. 
 C                    -2.48258  -1.41876   0. 
 C                    -3.67766  -0.72858   0. 
 C                    -3.68023   0.66344   0. 
 C                    -2.47411   1.36163   0. 
 C                     0.01098   1.45007   0. 
 C                    -0.0305   -1.42904   0. 
 C                     1.25738   0.66747   0. 
 C                     1.22527  -0.72953   0. 
 C                    -1.2665    0.68659   0. 
 C                    -1.25027  -0.73253   0. 
 H                     2.49167   2.44357   0. 
 H                     4.6567    1.21944   0. 
 H                     4.60541  -1.27197   0. 
 H                     2.45865  -2.47888   0. 
 H                    -0.02813  -2.51019   0. 
 H                    -2.4769   -2.50101   0. 
 H                    -4.61266  -1.27085   0. 
 H                    -4.61508   1.20506   0. 
 H                    -2.48117   2.4447    0. 
 H                     0.04      2.14504  -0.85876 
 H                     0.04      2.14504   0.85876 
 
                          Input orientation:                          
 ---------------------------------------------------------------------
 Center     Atomic      Atomic             Coordinates (Angstroms)
 Number     Number       Type             X           Y           Z
 ---------------------------------------------------------------------
      1          6           0        2.508355    1.360131    0.000000
      2          6           0        3.721358    0.681064    0.000000
      3          6           0        3.689161   -0.697580    0.000000
      4          6           0        2.443581   -1.396013    0.000000
      5          6           0       -2.482581   -1.418763    0.000000
      6          6           0       -3.677661   -0.728580    0.000000
      7          6           0       -3.680233    0.663439    0.000000
      8          6           0       -2.474105    1.361631    0.000000
      9          6           0        0.010975    1.450069    0.000000
     10          6           0       -0.030500   -1.429039    0.000000
     11          6           0        1.257380    0.667465    0.000000
     12          6           0        1.225271   -0.729529    0.000000
     13          6           0       -1.266505    0.686590    0.000000
     14          6           0       -1.250271   -0.732529    0.000000
     15          1           0        2.491671    2.443572    0.000000
     16          1           0        4.656703    1.219439    0.000000
     17          1           0        4.605412   -1.271974    0.000000
     18          1           0        2.458650   -2.478884    0.000000
     19          1           0       -0.028125   -2.510191    0.000000
     20          1           0       -2.476900   -2.501009    0.000000
     21          1           0       -4.612662   -1.270849    0.000000
     22          1           0       -4.615078    1.205064    0.000000
     23          1           0       -2.481171    2.444697    0.000000
     24          1           0        0.040000    2.145037   -0.858760
     25          1           0        0.040000    2.145037    0.858760
 ---------------------------------------------------------------------
                    Distance matrix (angstroms):
                    1          2          3          4          5
     1  C    0.000000
     2  C    1.390147   0.000000
     3  C    2.372441   1.379020   0.000000
     4  C    2.756905   2.438640   1.428033   0.000000
     5  C    5.712416   6.549667   6.213735   4.926215   0.000000
     6  C    6.529128   7.532103   7.366887   6.157521   1.380061
     7  C    6.227680   7.401612   7.494020   6.460839   2.402069
     8  C    4.982460   6.232731   6.498169   5.638106   2.780407
     9  C    2.498999   3.789236   4.259278   3.744029   3.801055
    10  C    3.771638   4.304529   3.790898   2.474301   2.452103
    11  C    1.429939   2.464016   2.788711   2.380129   4.282482
    12  C    2.452139   2.867093   2.464097   1.388697   3.771367
    13  C    3.834479   4.987866   5.145343   4.254641   2.431327
    14  C    4.301918   5.168688   4.939556   3.752966   1.410498
    15  H    1.083569   2.149085   3.361669   3.839886   6.297683
    16  H    2.152950   1.079221   2.147347   3.426149   7.611142
    17  H    3.365357   2.143807   1.081409   2.165387   7.089513
    18  H    3.839337   3.402896   2.164995   1.082976   5.053674
    19  H    4.627432   4.923691   4.135671   2.711222   2.686181
    20  H    6.305646   6.967352   6.424380   5.043030   1.082261
    21  H    7.591504   8.559548   8.321593   7.057353   2.135210
    22  H    7.125121   8.352888   8.519415   7.522650   3.381126
    23  H    5.106041   6.448393   6.924370   6.245337   3.863460
    24  H    2.728795   4.053774   4.704712   4.365055   4.449894
    25  H    2.728795   4.053774   4.704712   4.365055   4.449894
                    6          7          8          9         10
     6  C    0.000000
     7  C    1.392021   0.000000
     8  C    2.411955   1.393634   0.000000
     9  C    4.283987   3.774096   2.486653   0.000000
    10  C    3.713816   4.207020   3.709319   2.879407   0.000000
    11  C    5.128701   4.937615   3.795503   1.471732   2.460480
    12  C    4.902932   5.099444   4.249510   2.495027   1.437454
    13  C    2.795779   2.413839   1.383466   1.488239   2.450223
    14  C    2.427393   2.802399   2.425546   2.520809   1.404624
    15  H    6.937089   6.423494   5.082276   2.672246   4.621522
    16  H    8.558995   8.355456   7.132226   4.651449   5.383708
    17  H    8.300878   8.508686   7.553505   5.340259   4.638572
    18  H    6.381056   6.896382   6.251530   4.629016   2.701489
    19  H    4.061188   4.838370   4.579719   3.960453   1.081155
    20  H    2.140872   3.385519   3.862641   4.669105   2.670954
    21  H    1.080871   2.147299   3.391663   5.364831   4.584892
    22  H    2.148890   1.080413   2.146690   4.632536   5.287424
    23  H    3.391353   2.147238   1.083089   2.683296   4.583843
    24  H    4.776625   4.095453   2.769823   1.105121   3.676474
    25  H    4.776625   4.095453   2.769823   1.105121   3.676474
                   11         12         13         14         15
    11  C    0.000000
    12  C    1.397363   0.000000
    13  C    2.523957   2.866067   0.000000
    14  C    2.871985   2.475544   1.419212   0.000000
    15  H    2.162875   3.416480   4.148599   4.908131   0.000000
    16  H    3.443846   3.946290   5.947127   6.221135   2.487140
    17  H    3.869204   3.423390   6.189942   5.880478   4.274714
    18  H    3.367872   2.140436   4.888456   4.099494   4.922567
    19  H    3.427830   2.177558   3.428264   2.157249   5.557800
    20  H    4.897354   4.104170   3.409669   2.152241   7.009678
    21  H    6.181784   5.862976   3.876640   3.405211   8.016762
    22  H    5.897014   6.152424   3.388474   3.882807   7.213861
    23  H    4.139483   4.879900   2.136903   3.407327   4.972842
    24  H    2.098262   3.225750   2.138105   3.268433   2.614820
    25  H    2.098262   3.225750   2.138105   3.268433   2.614820
                   16         17         18         19         20
    16  H    0.000000
    17  H    2.491941   0.000000
    18  H    4.302212   2.462766   0.000000
    19  H    5.988134   4.796128   2.486972   0.000000
    20  H    8.045497   7.188162   4.935600   2.448792   0.000000
    21  H    9.598055   9.218074   7.173758   4.749100   2.464705
    22  H    9.271792   9.547416   7.975531   5.902818   4.278643
    23  H    7.242272   8.002081   6.974488   5.528865   4.945708
    24  H    4.786246   5.766838   5.288476   4.734264   5.353317
    25  H    4.786246   5.766838   5.288476   4.734264   5.353317
                   21         22         23         24         25
    21  H    0.000000
    22  H    2.475914   0.000000
    23  H    4.283519   2.467843   0.000000
    24  H    5.835496   4.826051   2.680218   0.000000
    25  H    5.835496   4.826051   2.680218   1.717520   0.000000
 Stoichiometry    C14H11(1+)
 Framework group  CS[SG(C14H9),X(H2)]
 Deg. of freedom    46
 Full point group                 CS      NOp   2
 Largest Abelian subgroup         CS      NOp   2
 Largest concise Abelian subgroup CS      NOp   2
                         Standard orientation:                         
 ---------------------------------------------------------------------
 Center     Atomic      Atomic             Coordinates (Angstroms)
 Number     Number       Type             X           Y           Z
 ---------------------------------------------------------------------
      1          6           0        2.413634    1.521136    0.000000
      2          6           0        2.415234    2.911282    0.000000
      3          6           0        1.197283    3.558038    0.000000
      4          6           0       -0.021455    2.813757    0.000000
      5          6           0       -2.452599   -1.470766    0.000000
      6          6           0       -2.435732   -2.850724    0.000000
      7          6           0       -1.223138   -3.534345    0.000000
      8          6           0       -0.023921   -2.824348    0.000000
      9          6           0        1.269619   -0.700626    0.000000
     10          6           0       -1.261291    0.672501    0.000000
     11          6           0        1.197283    0.769327    0.000000
     12          6           0       -0.036625    1.425142    0.000000
     13          6           0       -0.021455   -1.440885    0.000000
     14          6           0       -1.250993   -0.732084    0.000000
     15          1           0        3.350238    0.976254    0.000000
     16          1           0        3.342543    3.463382    0.000000
     17          1           0        1.144902    4.638177    0.000000
     18          1           0       -0.958352    3.356951    0.000000
     19          1           0       -2.202903    1.203785    0.000000
     20          1           0       -3.393546   -0.936063    0.000000
     21          1           0       -3.366269   -3.400618    0.000000
     22          1           0       -1.208433   -4.614658    0.000000
     23          1           0        0.917064   -3.360660    0.000000
     24          1           0        1.889845   -1.015495    0.858760
     25          1           0        1.889845   -1.015495   -0.858760
 ---------------------------------------------------------------------
 Rotational constants (GHZ):           2.1374725           0.4447564           0.3689517
 Standard basis: 6-311++G(d,p) (5D, 7F)
 There are   299 symmetry adapted cartesian basis functions of A'  symmetry.
 There are   100 symmetry adapted cartesian basis functions of A"  symmetry.
 There are   285 symmetry adapted basis functions of A'  symmetry.
 There are   100 symmetry adapted basis functions of A"  symmetry.
   385 basis functions,   603 primitive gaussians,   399 cartesian basis functions
    47 alpha electrons       47 beta electrons
       nuclear repulsion energy       781.3679950579 Hartrees.
 NAtoms=   25 NActive=   25 NUniq=   24 SFac= 1.09D+00 NAtFMM=   60 NAOKFM=F Big=F
 Integral buffers will be    131072 words long.
 Regular integral format.
 Two-electron integral symmetry is turned on.
 Nuclear repulsion after empirical dispersion term =      781.3670157854 Hartrees.
 One-electron integrals computed using PRISM.
 NBasis=   385 RedAO= T EigKep=  1.11D-06  NBF=   285   100
 NBsUse=   379 1.00D-06 EigRej=  8.36D-07 NBFU=   279   100
 ExpMin= 3.60D-02 ExpMax= 4.56D+03 ExpMxC= 6.82D+02 IAcc=3 IRadAn=         5 AccDes= 0.00D+00
 Harris functional with IExCor= 1009 and IRadAn=       5 diagonalized for initial guess.
 HarFok:  IExCor= 1009 AccDes= 0.00D+00 IRadAn=         5 IDoV= 1 UseB2=F ITyADJ=14
 ICtDFT=  3500011 ScaDFX=  1.000000  1.000000  1.000000  1.000000
 FoFCou: FMM=F IPFlag=           0 FMFlag=      100000 FMFlg1=           0
         NFxFlg=           0 DoJE=T BraDBF=F KetDBF=T FulRan=T
         wScrn=  0.000000 ICntrl=       500 IOpCl=  0 I1Cent=   200000004 NGrid=           0
         NMat0=    1 NMatS0=      1 NMatT0=    0 NMatD0=    1 NMtDS0=    0 NMtDT0=    0
 Petite list used in FoFCou.
 Initial guess orbital symmetries:
       Occupied  (A') (A') (A') (A') (A') (A') (A') (A') (A') (A')
                 (A') (A') (A') (A') (A') (A') (A') (A') (A') (A')
                 (A') (A') (A') (A') (A') (A') (A') (A') (A') (A')
                 (A') (A') (A") (A') (A') (A') (A') (A') (A") (A')
                 (A") (A') (A') (A") (A") (A") (A")
       Virtual   (A") (A") (A") (A") (A") (A') (A') (A') (A') (A")
                 (A") (A') (A') (A') (A") (A') (A') (A') (A') (A")
                 (A') (A") (A') (A') (A') (A") (A') (A") (A') (A')
                 (A') (A') (A') (A') (A") (A') (A") (A') (A') (A')
                 (A") (A') (A') (A") (A') (A') (A') (A') (A') (A")
                 (A') (A') (A") (A") (A') (A') (A') (A") (A") (A')
                 (A') (A') (A') (A') (A') (A') (A") (A') (A') (A")
                 (A') (A') (A') (A') (A') (A') (A') (A') (A') (A')
                 (A') (A') (A') (A') (A') (A') (A') (A') (A') (A')
                 (A') (A') (A') (A') (A') (A') (A') (A") (A') (A")
                 (A') (A') (A") (A") (A') (A") (A') (A") (A") (A')
                 (A") (A') (A') (A') (A") (A') (A') (A") (A") (A')
                 (A") (A") (A') (A') (A') (A") (A') (A') (A') (A")
                 (A') (A') (A') (A') (A') (A') (A") (A') (A') (A')
                 (A') (A') (A') (A') (A') (A') (A') (A') (A') (A")
                 (A") (A') (A") (A") (A') (A') (A') (A") (A") (A')
                 (A") (A') (A") (A") (A") (A') (A') (A') (A') (A')
                 (A') (A") (A') (A") (A') (A') (A') (A') (A') (A")
                 (A') (A') (A') (A') (A") (A') (A") (A') (A") (A")
                 (A') (A") (A') (A") (A') (A') (A') (A") (A') (A')
                 (A") (A") (A") (A') (A') (A") (A') (A") (A') (A')
                 (A") (A") (A') (A") (A') (A") (A') (A') (A') (A")
                 (A') (A') (A') (A') (A") (A') (A') (A') (A") (A")
                 (A') (A') (A') (A") (A') (A') (A") (A') (A") (A')
                 (A") (A') (A') (A') (A') (A") (A') (A') (A') (A")
                 (A') (A') (A") (A') (A") (A') (A') (A") (A') (A')
                 (A') (A") (A') (A") (A') (A') (A') (A") (A') (A")
                 (A') (A') (A') (A') (A") (A') (A") (A') (A") (A')
                 (A") (A') (A") (A") (A") (A') (A') (A') (A') (A')
                 (A') (A') (A') (A') (A') (A') (A') (A') (A') (A')
                 (A') (A') (A') (A') (A") (A') (A') (A') (A') (A')
                 (A') (A') (A') (A') (A') (A') (A') (A') (A') (A')
                 (A') (A') (A') (A') (A') (A') (A') (A') (A') (A')
                 (A') (A')
 The electronic state of the initial guess is 1-A'.
 Requested convergence on RMS density matrix=1.00D-08 within 128 cycles.
 Requested convergence on MAX density matrix=1.00D-06.
 Requested convergence on             energy=1.00D-06.
 No special actions if energy rises.
 SCF Done:  E(RM062X) =  -539.757449740     A.U. after   15 cycles
            NFock= 15  Conv=0.82D-08     -V/T= 2.0042
 DoSCS=F DFT=T ScalE2(SS,OS)=  1.000000  1.000000
 ExpMin= 3.60D-02 ExpMax= 4.56D+03 ExpMxC= 6.82D+02 IAcc=3 IRadAn=         5 AccDes= 0.00D+00
 HarFok:  IExCor=  205 AccDes= 0.00D+00 IRadAn=         5 IDoV=-2 UseB2=F ITyADJ=14
 ICtDFT= 12500011 ScaDFX=  1.000000  1.000000  1.000000  1.000000
 Range of M.O.s used for correlation:    15   379
 NBasis=   385 NAE=    47 NBE=    47 NFC=    14 NFV=     0
 NROrb=    365 NOA=    33 NOB=    33 NVA=   332 NVB=   332

 **** Warning!!: The largest alpha MO coefficient is  0.13746355D+03

 Orbital symmetries:
       Occupied  (A') (A') (A') (A') (A') (A') (A') (A') (A') (A')
                 (A') (A') (A') (A') (A') (A') (A') (A') (A') (A')
                 (A') (A') (A') (A') (A') (A') (A') (A') (A') (A')
                 (A') (A') (A") (A') (A') (A') (A') (A") (A") (A')
                 (A') (A') (A') (A") (A") (A") (A")
       Virtual   (A") (A") (A") (A") (A') (A') (A') (A') (A") (A')
                 (A') (A") (A') (A') (A") (A') (A") (A') (A') (A')
                 (A") (A") (A') (A') (A') (A") (A') (A") (A') (A')
                 (A") (A') (A") (A') (A') (A') (A') (A') (A") (A')
                 (A") (A') (A') (A") (A") (A') (A") (A') (A") (A')
                 (A') (A') (A') (A') (A') (A") (A') (A') (A') (A')
                 (A') (A") (A') (A') (A') (A") (A') (A') (A') (A')
                 (A') (A') (A') (A') (A') (A') (A') (A') (A') (A')
                 (A') (A') (A') (A') (A') (A') (A') (A') (A') (A')
                 (A') (A') (A') (A') (A") (A') (A") (A") (A') (A")
                 (A') (A') (A') (A') (A") (A") (A') (A") (A") (A')
                 (A') (A') (A") (A') (A') (A") (A') (A") (A') (A")
                 (A") (A') (A") (A') (A') (A') (A") (A') (A') (A')
                 (A') (A') (A') (A') (A') (A') (A') (A') (A') (A')
                 (A') (A') (A') (A") (A') (A') (A') (A') (A') (A')
                 (A') (A') (A") (A') (A") (A') (A") (A") (A') (A")
                 (A") (A') (A') (A") (A") (A") (A') (A") (A') (A')
                 (A') (A') (A') (A") (A") (A') (A') (A') (A') (A")
                 (A') (A') (A') (A") (A") (A') (A') (A") (A') (A")
                 (A") (A') (A') (A") (A') (A") (A') (A') (A') (A')
                 (A") (A") (A") (A') (A") (A') (A') (A") (A') (A')
                 (A') (A") (A') (A") (A") (A') (A") (A') (A') (A")
                 (A') (A') (A') (A') (A") (A') (A') (A') (A") (A")
                 (A') (A') (A') (A") (A') (A') (A') (A") (A") (A')
                 (A") (A') (A') (A") (A') (A') (A') (A') (A') (A')
                 (A") (A') (A') (A') (A') (A") (A") (A") (A') (A')
                 (A') (A') (A') (A') (A') (A') (A') (A") (A') (A')
                 (A') (A") (A') (A") (A") (A") (A') (A") (A') (A")
                 (A') (A") (A") (A') (A") (A") (A') (A') (A') (A')
                 (A') (A') (A') (A') (A') (A') (A') (A') (A') (A')
                 (A') (A') (A') (A") (A') (A') (A') (A') (A') (A')
                 (A') (A') (A') (A') (A') (A') (A') (A') (A') (A')
                 (A') (A') (A') (A') (A') (A') (A') (A') (A') (A')
                 (A') (A')
     4 initial guesses have been made.
 Convergence on wavefunction:    0.001000000000000
 Iteration     1 Dimension     4 NMult     0 NNew      4
 CISAX will form     4 AO SS matrices at one time.
 Iteration     2 Dimension     6 NMult     4 NNew      2
 Iteration     3 Dimension     8 NMult     6 NNew      2
 Iteration     4 Dimension    10 NMult     8 NNew      2
 Iteration     5 Dimension    12 NMult    10 NNew      2
 Iteration     6 Dimension    14 NMult    12 NNew      2
 ***********************************************************************
 Excited states from <AA,BB:AA,BB> singles matrix:
 ***********************************************************************
 
 Ground to excited state transition densities written to RWF  633
 Ground to excited state transition electric dipole moments (Au):
       state          X           Y           Z        Dip. S.      Osc.
         1         0.5306     -0.2600      0.0000      0.3491      0.0235
 Ground to excited state transition velocity dipole moments (Au):
       state          X           Y           Z        Dip. S.      Osc.
         1        -0.0584      0.0324     -0.0000      0.0045      0.0294
 Ground to excited state transition magnetic dipole moments (Au):
       state          X           Y           Z
         1        -0.0000      0.0000      0.1537
 Ground to excited state transition velocity quadrupole moments (Au):
       state          XX          YY          ZZ          XY          XZ          YZ
         1         0.0258      0.2672     -0.0089      0.0639     -0.0000      0.0000
 <0|del|b> * <b|rxdel|0> + <0|del|b> * <b|delr+rdel|0>
 Rotatory Strengths (R) in cgs (10**-40 erg-esu-cm/Gauss)
       state          XX          YY          ZZ    R(velocity)    E-M Angle
         1         0.0000     -0.0000      0.0000      0.0000       90.00
 1/2[<0|r|b>*<b|rxdel|0> + (<0|rxdel|b>*<b|r|0>)*]
 Rotatory Strengths (R) in cgs (10**-40 erg-esu-cm/Gauss)
       state          XX          YY          ZZ     R(length)
         1         0.0000      0.0000     -0.0000      0.0000
  1/2[<0|del|b>*<b|r|0> + (<0|r|b>*<b|del|0>)*] (Au)
       state          X           Y           Z        Dip. S.   Osc.(frdel)
         1        -0.0310     -0.0084     -0.0000      0.0394      0.0263

 Excitation energies and oscillator strengths:
 
 Excited State   1:      Singlet-A'     2.7459 eV  451.53 nm  f=0.0235  <S**2>=0.000
      47 -> 48         0.70368
 This state for optimization and/or second-order correction.
 Total Energy, E(TD-HF/TD-DFT) =  -539.656541114    
 Copying the excited state density for this state as the 1-particle RhoCI density.
 SavETr:  write IOETrn=   770 NScale= 10 NData=  16 NLR=1 NState=    1 LETran=      28.

 **********************************************************************

            Population analysis using the SCF Density.

 **********************************************************************

 Orbital symmetries:
       Occupied  (A') (A') (A') (A') (A') (A') (A') (A') (A') (A')
                 (A') (A') (A') (A') (A') (A') (A') (A') (A') (A')
                 (A') (A') (A') (A') (A') (A') (A') (A') (A') (A')
                 (A') (A') (A") (A') (A') (A') (A') (A") (A") (A')
                 (A') (A') (A') (A") (A") (A") (A")
       Virtual   (A") (A") (A") (A") (A') (A') (A') (A') (A") (A')
                 (A') (A") (A') (A') (A") (A') (A") (A') (A') (A')
                 (A") (A") (A') (A') (A') (A") (A') (A") (A') (A')
                 (A") (A') (A") (A') (A') (A') (A') (A') (A") (A')
                 (A") (A') (A') (A") (A") (A') (A") (A') (A") (A')
                 (A') (A') (A') (A') (A') (A") (A') (A') (A') (A')
                 (A') (A") (A') (A') (A') (A") (A') (A') (A') (A')
                 (A') (A') (A') (A') (A') (A') (A') (A') (A') (A')
                 (A') (A') (A') (A') (A') (A') (A') (A') (A') (A')
                 (A') (A') (A') (A') (A") (A') (A") (A") (A') (A")
                 (A') (A') (A') (A') (A") (A") (A') (A") (A") (A')
                 (A') (A') (A") (A') (A') (A") (A') (A") (A') (A")
                 (A") (A') (A") (A') (A') (A') (A") (A') (A') (A')
                 (A') (A') (A') (A') (A') (A') (A') (A') (A') (A')
                 (A') (A') (A') (A") (A') (A') (A') (A') (A') (A')
                 (A') (A') (A") (A') (A") (A') (A") (A") (A') (A")
                 (A") (A') (A') (A") (A") (A") (A') (A") (A') (A')
                 (A') (A') (A') (A") (A") (A') (A') (A') (A') (A")
                 (A') (A') (A') (A") (A") (A') (A') (A") (A') (A")
                 (A") (A') (A') (A") (A') (A") (A') (A') (A') (A')
                 (A") (A") (A") (A') (A") (A') (A') (A") (A') (A')
                 (A') (A") (A') (A") (A") (A') (A") (A') (A') (A")
                 (A') (A') (A') (A') (A") (A') (A') (A') (A") (A")
                 (A') (A') (A') (A") (A') (A') (A') (A") (A") (A')
                 (A") (A') (A') (A") (A') (A') (A') (A') (A') (A')
                 (A") (A') (A') (A') (A') (A") (A") (A") (A') (A')
                 (A') (A') (A') (A') (A') (A') (A') (A") (A') (A')
                 (A') (A") (A') (A") (A") (A") (A') (A") (A') (A")
                 (A') (A") (A") (A') (A") (A") (A') (A') (A') (A')
                 (A') (A') (A') (A') (A') (A') (A') (A') (A') (A')
                 (A') (A') (A') (A") (A') (A') (A') (A') (A') (A')
                 (A') (A') (A') (A') (A') (A') (A') (A') (A') (A')
                 (A') (A') (A') (A') (A') (A') (A') (A') (A') (A')
                 (A') (A')
 The electronic state is 1-A'.
 Alpha  occ. eigenvalues --  -10.77623 -10.73575 -10.72856 -10.72702 -10.72120
 Alpha  occ. eigenvalues --  -10.71697 -10.71667 -10.71012 -10.70970 -10.70382
 Alpha  occ. eigenvalues --  -10.70134 -10.69828 -10.69810 -10.69418  -1.16505
 Alpha  occ. eigenvalues --   -1.12482  -1.06941  -1.05816  -1.01302  -1.00311
 Alpha  occ. eigenvalues --   -0.95684  -0.91053  -0.86431  -0.85906  -0.83806
 Alpha  occ. eigenvalues --   -0.78375  -0.76096  -0.74397  -0.69656  -0.69284
 Alpha  occ. eigenvalues --   -0.68422  -0.68142  -0.68091  -0.65007  -0.64260
 Alpha  occ. eigenvalues --   -0.62927  -0.61755  -0.60244  -0.59437  -0.59121
 Alpha  occ. eigenvalues --   -0.56928  -0.55247  -0.54713  -0.52436  -0.46953
 Alpha  occ. eigenvalues --   -0.46096  -0.44149
 Alpha virt. eigenvalues --   -0.26087  -0.14670  -0.14088  -0.12766  -0.11185
 Alpha virt. eigenvalues --   -0.10092  -0.09242  -0.07973  -0.07947  -0.07480
 Alpha virt. eigenvalues --   -0.07209  -0.07143  -0.05643  -0.05580  -0.05343
 Alpha virt. eigenvalues --   -0.03837  -0.03655  -0.03277  -0.03131  -0.02160
 Alpha virt. eigenvalues --   -0.01361  -0.00942   0.00186   0.00594   0.00666
 Alpha virt. eigenvalues --    0.01062   0.01508   0.01933   0.02182   0.02295
 Alpha virt. eigenvalues --    0.02450   0.02673   0.02770   0.03250   0.03411
 Alpha virt. eigenvalues --    0.04230   0.04504   0.04705   0.05033   0.05376
 Alpha virt. eigenvalues --    0.06028   0.06297   0.06590   0.07056   0.07258
 Alpha virt. eigenvalues --    0.07899   0.08126   0.08362   0.08595   0.08920
 Alpha virt. eigenvalues --    0.09516   0.09582   0.10014   0.10858   0.11021
 Alpha virt. eigenvalues --    0.11118   0.12146   0.12254   0.12804   0.13024
 Alpha virt. eigenvalues --    0.13444   0.13523   0.14007   0.14351   0.16036
 Alpha virt. eigenvalues --    0.16333   0.16451   0.17338   0.17558   0.17792
 Alpha virt. eigenvalues --    0.18129   0.19048   0.19315   0.19642   0.19828
 Alpha virt. eigenvalues --    0.21529   0.21641   0.22709   0.23133   0.23568
 Alpha virt. eigenvalues --    0.23846   0.24539   0.25324   0.26933   0.27618
 Alpha virt. eigenvalues --    0.28865   0.29284   0.29910   0.31367   0.35824
 Alpha virt. eigenvalues --    0.36464   0.38195   0.39282   0.41117   0.41350
 Alpha virt. eigenvalues --    0.41987   0.42145   0.42982   0.43715   0.44342
 Alpha virt. eigenvalues --    0.44837   0.45108   0.45970   0.46316   0.47898
 Alpha virt. eigenvalues --    0.48472   0.48846   0.49023   0.50477   0.51189
 Alpha virt. eigenvalues --    0.51396   0.51949   0.52126   0.52856   0.54060
 Alpha virt. eigenvalues --    0.54103   0.54647   0.55657   0.55854   0.57453
 Alpha virt. eigenvalues --    0.58233   0.58885   0.61478   0.62202   0.62390
 Alpha virt. eigenvalues --    0.63196   0.63487   0.64991   0.65165   0.67407
 Alpha virt. eigenvalues --    0.70366   0.70510   0.71134   0.72470   0.72897
 Alpha virt. eigenvalues --    0.75659   0.76054   0.76369   0.76818   0.77120
 Alpha virt. eigenvalues --    0.77866   0.77961   0.78279   0.79887   0.80401
 Alpha virt. eigenvalues --    0.81261   0.81569   0.82279   0.83009   0.85232
 Alpha virt. eigenvalues --    0.87120   0.88203   0.88397   0.89209   0.90536
 Alpha virt. eigenvalues --    0.91106   0.91334   0.93244   0.94626   0.96352
 Alpha virt. eigenvalues --    0.96801   1.00297   1.01289   1.01601   1.02779
 Alpha virt. eigenvalues --    1.03236   1.03339   1.04805   1.05979   1.08838
 Alpha virt. eigenvalues --    1.19582   1.23106   1.24135   1.24789   1.28557
 Alpha virt. eigenvalues --    1.29460   1.32044   1.34256   1.35779   1.35990
 Alpha virt. eigenvalues --    1.39365   1.39921   1.40917   1.42947   1.43486
 Alpha virt. eigenvalues --    1.43552   1.44431   1.46378   1.46380   1.46646
 Alpha virt. eigenvalues --    1.47671   1.48121   1.51794   1.53655   1.55787
 Alpha virt. eigenvalues --    1.55896   1.56326   1.56574   1.57822   1.61492
 Alpha virt. eigenvalues --    1.63133   1.63331   1.64025   1.66121   1.68326
 Alpha virt. eigenvalues --    1.68374   1.68686   1.69770   1.74436   1.76023
 Alpha virt. eigenvalues --    1.77206   1.78066   1.80008   1.80094   1.80814
 Alpha virt. eigenvalues --    1.83000   1.83197   1.83647   1.83848   1.84155
 Alpha virt. eigenvalues --    1.84431   1.85603   1.86306   1.88303   1.91417
 Alpha virt. eigenvalues --    1.92133   1.94112   1.95293   1.97749   1.98174
 Alpha virt. eigenvalues --    1.99798   2.02547   2.04511   2.07289   2.11784
 Alpha virt. eigenvalues --    2.12141   2.14189   2.15241   2.19135   2.21297
 Alpha virt. eigenvalues --    2.22772   2.28503   2.30339   2.34613   2.34897
 Alpha virt. eigenvalues --    2.36292   2.38639   2.39645   2.42376   2.44453
 Alpha virt. eigenvalues --    2.46161   2.46668   2.49307   2.52956   2.53810
 Alpha virt. eigenvalues --    2.54348   2.56753   2.57885   2.58359   2.59530
 Alpha virt. eigenvalues --    2.59895   2.61590   2.62156   2.63572   2.63794
 Alpha virt. eigenvalues --    2.64815   2.65115   2.65116   2.65509   2.68037
 Alpha virt. eigenvalues --    2.68532   2.70958   2.71446   2.73366   2.74825
 Alpha virt. eigenvalues --    2.76292   2.78728   2.79708   2.83083   2.83148
 Alpha virt. eigenvalues --    2.84896   2.86329   2.92137   2.97035   2.99479
 Alpha virt. eigenvalues --    3.00128   3.05236   3.10312   3.11410   3.13763
 Alpha virt. eigenvalues --    3.20930   3.23159   3.26633   3.28650   3.30610
 Alpha virt. eigenvalues --    3.32822   3.34249   3.43651   3.46075   3.46820
 Alpha virt. eigenvalues --    3.48518   3.50183   3.56544   3.65444   3.67025
 Alpha virt. eigenvalues --    3.67690   3.93976   3.94211   3.95351   3.96368
 Alpha virt. eigenvalues --    4.03986   4.06723   4.07657   4.12536   4.35552
 Alpha virt. eigenvalues --    4.61422   4.69581   4.71453  23.45283  23.60377
 Alpha virt. eigenvalues --   23.81271  23.84002  23.86516  23.89266  23.91275
 Alpha virt. eigenvalues --   23.94509  23.96245  23.97900  24.01962  24.03785
 Alpha virt. eigenvalues --   24.10924  24.11812
          Condensed to atoms (all electrons):
               1          2          3          4          5          6
     1  C    8.786134   0.160062  -0.454970   2.121330  -0.050483  -0.102645
     2  C    0.160062   7.125485   0.294105  -1.128186  -0.002768  -0.013888
     3  C   -0.454970   0.294105   6.586623   0.794746  -0.132279   0.016908
     4  C    2.121330  -1.128186   0.794746  10.679692  -0.341550  -0.114073
     5  C   -0.050483  -0.002768  -0.132279  -0.341550  11.230083   0.720084
     6  C   -0.102645  -0.013888   0.016908  -0.114073   0.720084   6.599757
     7  C   -0.010504   0.002025  -0.015403  -0.038683  -0.985240   0.414142
     8  C    0.408141  -0.032277  -0.087389   0.003496   1.750690  -0.632187
     9  C   -1.190021  -0.768506   0.289399  -0.387829  -0.073400   0.290893
    10  C   -1.335086   0.310592  -0.415876  -2.431137  -2.706004  -0.294773
    11  C    0.276786  -0.992023   1.094202  -0.274382  -1.561617  -0.214598
    12  C   -2.289472   1.579120  -1.451256  -1.551372  -0.419731  -0.143575
    13  C    0.217959  -0.278331  -0.133660  -1.442373  -0.258599   0.932618
    14  C   -1.039824  -0.122893  -0.258801  -0.243963  -1.544081  -1.338508
    15  H    0.367480  -0.105727  -0.000013   0.028608   0.005165   0.001009
    16  H   -0.017854   0.374820  -0.012835   0.011184  -0.001421  -0.000307
    17  H   -0.028764  -0.011119   0.369966  -0.066130   0.000445   0.000386
    18  H    0.051885   0.002480  -0.084731   0.452660   0.006787  -0.005144
    19  H   -0.048407  -0.007331   0.051172  -0.064330  -0.077585   0.050856
    20  H    0.007350   0.002027  -0.004951   0.006914   0.460705  -0.084482
    21  H   -0.001384  -0.000381   0.000405   0.000172  -0.068433   0.378969
    22  H    0.000931   0.000388  -0.000348  -0.001652   0.016193  -0.019708
    23  H    0.005256  -0.002868   0.001198   0.006383   0.025147  -0.003018
    24  H    0.028602   0.013284  -0.001675  -0.012968  -0.011637  -0.001325
    25  H    0.028602   0.013284  -0.001675  -0.012968  -0.011637  -0.001325
               7          8          9         10         11         12
     1  C   -0.010504   0.408141  -1.190021  -1.335086   0.276786  -2.289472
     2  C    0.002025  -0.032277  -0.768506   0.310592  -0.992023   1.579120
     3  C   -0.015403  -0.087389   0.289399  -0.415876   1.094202  -1.451256
     4  C   -0.038683   0.003496  -0.387829  -2.431137  -0.274382  -1.551372
     5  C   -0.985240   1.750690  -0.073400  -2.706004  -1.561617  -0.419731
     6  C    0.414142  -0.632187   0.290893  -0.294773  -0.214598  -0.143575
     7  C    7.128176   0.513102  -0.826471   0.177165  -0.217521  -0.271558
     8  C    0.513102   8.398451  -1.212069  -1.195538   0.174617  -1.122455
     9  C   -0.826471  -1.212069   9.644873   0.250266   1.605505  -1.833091
    10  C    0.177165  -1.195538   0.250266   9.196463  -0.553728   2.465072
    11  C   -0.217521   0.174617   1.605505  -0.553728  14.487752  -3.531868
    12  C   -0.271558  -1.122455  -1.833091   2.465072  -3.531868  15.956502
    13  C   -0.850342   0.293398   1.715557  -0.426495   1.077282  -4.855420
    14  C    1.102770  -1.751695  -2.095841   2.401013  -4.784750   3.029272
    15  H   -0.002475   0.006521   0.094756  -0.010810  -0.032192  -0.032723
    16  H    0.000330   0.000477   0.004488  -0.008756   0.027951  -0.035047
    17  H   -0.000413  -0.001264  -0.006419   0.020791  -0.028478   0.095533
    18  H    0.001989   0.007202  -0.026163   0.016288  -0.005715  -0.059906
    19  H   -0.007987  -0.044602   0.075753   0.422321   0.080815  -0.051170
    20  H    0.003314   0.047154  -0.023749   0.011529  -0.012024  -0.018003
    21  H   -0.021086  -0.019962  -0.005188   0.020243  -0.006332   0.005199
    22  H    0.380991  -0.020052   0.003067  -0.010369   0.003364  -0.010031
    23  H   -0.104094   0.365458   0.088899  -0.008313  -0.001922   0.007355
    24  H    0.015382   0.035784   0.357264   0.005539   0.005222  -0.060168
    25  H    0.015382   0.035784   0.357264   0.005539   0.005222  -0.060168
              13         14         15         16         17         18
     1  C    0.217959  -1.039824   0.367480  -0.017854  -0.028764   0.051885
     2  C   -0.278331  -0.122893  -0.105727   0.374820  -0.011119   0.002480
     3  C   -0.133660  -0.258801  -0.000013  -0.012835   0.369966  -0.084731
     4  C   -1.442373  -0.243963   0.028608   0.011184  -0.066130   0.452660
     5  C   -0.258599  -1.544081   0.005165  -0.001421   0.000445   0.006787
     6  C    0.932618  -1.338508   0.001009  -0.000307   0.000386  -0.005144
     7  C   -0.850342   1.102770  -0.002475   0.000330  -0.000413   0.001989
     8  C    0.293398  -1.751695   0.006521   0.000477  -0.001264   0.007202
     9  C    1.715557  -2.095841   0.094756   0.004488  -0.006419  -0.026163
    10  C   -0.426495   2.401013  -0.010810  -0.008756   0.020791   0.016288
    11  C    1.077282  -4.784750  -0.032192   0.027951  -0.028478  -0.005715
    12  C   -4.855420   3.029272  -0.032723  -0.035047   0.095533  -0.059906
    13  C   14.619287  -4.029796   0.005368   0.002758  -0.006332  -0.011927
    14  C   -4.029796  16.194908   0.005601  -0.008149   0.005371  -0.008997
    15  H    0.005368   0.005601   0.442485  -0.008928   0.001304   0.000115
    16  H    0.002758  -0.008149  -0.008928   0.421406  -0.006204   0.001887
    17  H   -0.006332   0.005371   0.001304  -0.006204   0.424152  -0.010326
    18  H   -0.011927  -0.008997   0.000115   0.001887  -0.010326   0.457045
    19  H    0.076325  -0.080096   0.000235  -0.000491   0.001203  -0.006567
    20  H   -0.010076  -0.047348  -0.000103   0.000012  -0.000126   0.001276
    21  H   -0.026590   0.086825   0.000011  -0.000007   0.000010  -0.000159
    22  H    0.027138  -0.032710  -0.000129   0.000007  -0.000007   0.000018
    23  H   -0.029134  -0.016262   0.000589  -0.000124   0.000016  -0.000121
    24  H    0.021401  -0.059414  -0.000876   0.000631  -0.000147   0.000206
    25  H    0.021401  -0.059414  -0.000876   0.000631  -0.000147   0.000206
              19         20         21         22         23         24
     1  C   -0.048407   0.007350  -0.001384   0.000931   0.005256   0.028602
     2  C   -0.007331   0.002027  -0.000381   0.000388  -0.002868   0.013284
     3  C    0.051172  -0.004951   0.000405  -0.000348   0.001198  -0.001675
     4  C   -0.064330   0.006914   0.000172  -0.001652   0.006383  -0.012968
     5  C   -0.077585   0.460705  -0.068433   0.016193   0.025147  -0.011637
     6  C    0.050856  -0.084482   0.378969  -0.019708  -0.003018  -0.001325
     7  C   -0.007987   0.003314  -0.021086   0.380991  -0.104094   0.015382
     8  C   -0.044602   0.047154  -0.019962  -0.020052   0.365458   0.035784
     9  C    0.075753  -0.023749  -0.005188   0.003067   0.088899   0.357264
    10  C    0.422321   0.011529   0.020243  -0.010369  -0.008313   0.005539
    11  C    0.080815  -0.012024  -0.006332   0.003364  -0.001922   0.005222
    12  C   -0.051170  -0.018003   0.005199  -0.010031   0.007355  -0.060168
    13  C    0.076325  -0.010076  -0.026590   0.027138  -0.029134   0.021401
    14  C   -0.080096  -0.047348   0.086825  -0.032710  -0.016262  -0.059414
    15  H    0.000235  -0.000103   0.000011  -0.000129   0.000589  -0.000876
    16  H   -0.000491   0.000012  -0.000007   0.000007  -0.000124   0.000631
    17  H    0.001203  -0.000126   0.000010  -0.000007   0.000016  -0.000147
    18  H   -0.006567   0.001276  -0.000159   0.000018  -0.000121   0.000206
    19  H    0.443153  -0.005821   0.001621  -0.000579   0.000373   0.000611
    20  H   -0.005821   0.449583  -0.010056   0.001946   0.000240   0.000149
    21  H    0.001621  -0.010056   0.420575  -0.006962   0.001604  -0.000135
    22  H   -0.000579   0.001946  -0.006962   0.416978  -0.008901   0.000625
    23  H    0.000373   0.000240   0.001604  -0.008901   0.435263  -0.000913
    24  H    0.000611   0.000149  -0.000135   0.000625  -0.000913   0.494195
    25  H    0.000611   0.000149  -0.000135   0.000625  -0.000913  -0.080142
              25
     1  C    0.028602
     2  C    0.013284
     3  C   -0.001675
     4  C   -0.012968
     5  C   -0.011637
     6  C   -0.001325
     7  C    0.015382
     8  C    0.035784
     9  C    0.357264
    10  C    0.005539
    11  C    0.005222
    12  C   -0.060168
    13  C    0.021401
    14  C   -0.059414
    15  H   -0.000876
    16  H    0.000631
    17  H   -0.000147
    18  H    0.000206
    19  H    0.000611
    20  H    0.000149
    21  H   -0.000135
    22  H    0.000625
    23  H   -0.000913
    24  H   -0.080142
    25  H    0.494195
 Mulliken charges:
               1
     1  C    0.108895
     2  C   -0.411376
     3  C   -0.442864
     4  C    0.006411
     5  C    0.031167
     6  C   -0.436066
     7  C   -0.402990
     8  C    0.079217
     9  C   -0.329238
    10  C    0.094064
    11  C   -0.621570
    12  C    0.658960
    13  C   -0.651418
    14  C    0.696780
    15  H    0.235608
    16  H    0.253539
    17  H    0.246698
    18  H    0.219712
    19  H    0.189918
    20  H    0.224392
    21  H    0.251174
    22  H    0.259175
    23  H    0.238804
    24  H    0.250505
    25  H    0.250505
 Sum of Mulliken charges =   1.00000
 Mulliken charges with hydrogens summed into heavy atoms:
               1
     1  C    0.344503
     2  C   -0.157837
     3  C   -0.196166
     4  C    0.226123
     5  C    0.255559
     6  C   -0.184891
     7  C   -0.143816
     8  C    0.318021
     9  C    0.171771
    10  C    0.283982
    11  C   -0.621570
    12  C    0.658960
    13  C   -0.651418
    14  C    0.696780
 Electronic spatial extent (au):  <R**2>=           2854.9957
 Charge=              1.0000 electrons
 Dipole moment (field-independent basis, Debye):
    X=             -0.4971    Y=             -0.5222    Z=              0.0000  Tot=              0.7210
 Quadrupole moment (field-independent basis, Debye-Ang):
   XX=            -49.9433   YY=            -37.4090   ZZ=            -84.1366
   XY=             10.9238   XZ=              0.0000   YZ=             -0.0000
 Traceless Quadrupole moment (field-independent basis, Debye-Ang):
   XX=              7.2197   YY=             19.7540   ZZ=            -26.9737
   XY=             10.9238   XZ=              0.0000   YZ=             -0.0000
 Octapole moment (field-independent basis, Debye-Ang**2):
  XXX=             -2.9813  YYY=            -11.1118  ZZZ=              0.0000  XYY=             -1.3949
  XXY=              3.2582  XXZ=              0.0000  XZZ=              2.1853  YZZ=             -2.3901
  YYZ=              0.0000  XYZ=             -0.0000
 Hexadecapole moment (field-independent basis, Debye-Ang**3):
 XXXX=          -1035.7448 YYYY=          -1811.1256 ZZZZ=            -99.3141 XXXY=           -359.1624
 XXXZ=              0.0000 YYYX=           -290.2552 YYYZ=              0.0000 ZZZX=              0.0000
 ZZZY=             -0.0000 XXYY=           -449.3284 XXZZ=           -254.2026 YYZZ=           -481.9686
 XXYZ=             -0.0000 YYXZ=              0.0000 ZZXY=           -191.0494
 N-N= 7.813670157854D+02 E-N=-2.799087731684D+03  KE= 5.375248923246D+02
 Symmetry A'   KE= 5.228749123669D+02
 Symmetry A"   KE= 1.464997995766D+01
 Unable to Open any file for archive entry.
 1\1\GINC-GADI-CPU-CLX-1762\SP\RM062X TD-FC\6-311++G(d,p)\C14H11(1+)\TS
 1578\02-Aug-2022\0\\#n M062X/6-311++G(d,p) TD(NStates=1) EmpiricalDisp
 ersion=GD3 SP\\SP_-100\\1,1\C,0,2.508355,1.360131,0.\C,0,3.721358,0.68
 1064,0.\C,0,3.689161,-0.69758,0.\C,0,2.443581,-1.396013,0.\C,0,-2.4825
 81,-1.418763,0.\C,0,-3.677661,-0.72858,0.\C,0,-3.680233,0.663439,0.\C,
 0,-2.474105,1.361631,0.\C,0,0.010975,1.450069,0.\C,0,-0.0305,-1.429039
 ,0.\C,0,1.25738,0.667465,0.\C,0,1.225271,-0.729529,0.\C,0,-1.266505,0.
 68659,0.\C,0,-1.250271,-0.732529,0.\H,0,2.491671,2.443572,0.\H,0,4.656
 703,1.219439,0.\H,0,4.605412,-1.271974,0.\H,0,2.45865,-2.478884,0.\H,0
 ,-0.028125,-2.510191,0.\H,0,-2.4769,-2.501009,0.\H,0,-4.612662,-1.2708
 49,0.\H,0,-4.615078,1.205064,0.\H,0,-2.481171,2.444697,0.\H,0,0.04,2.1
 45037,-0.85876\H,0,0.04,2.145037,0.85876\\Version=ES64L-G16RevC.01\Sta
 te=1-A'\HF=-539.7574497\RMSD=8.204e-09\PG=CS [SG(C14H9),X(H2)]\\@
 The archive entry for this job was punched.


 YOU CANNOT THROW TO THE GROUND THE LETTERS OF
 THE GREEK ALPHABET AND PICK UP THE ILIAD.
        - RUFUS CHOATE, 1799-1859
 Job cpu time:       0 days  0 hours 53 minutes 19.0 seconds.
 Elapsed time:       0 days  0 hours  1 minutes  7.3 seconds.
 File lengths (MBytes):  RWF=    460 Int=      0 D2E=      0 Chk=     15 Scr=      1
 Normal termination of Gaussian 16 at Tue Aug  2 11:10:13 2022.
