 Entering Gaussian System, Link 0=g16
 Initial command:
 /apps/gaussian/g16c01/g16/l1.exe "/jobfs/53796104.gadi-pbs/Gau-3597868.inp" -scrdir="/jobfs/53796104.gadi-pbs/"
 Entering Link 1 = /apps/gaussian/g16c01/g16/l1.exe PID=   3597869.
  
 Copyright (c) 1988-2019, Gaussian, Inc.  All Rights Reserved.
  
 This is part of the Gaussian(R) 16 program.  It is based on
 the Gaussian(R) 09 system (copyright 2009, Gaussian, Inc.),
 the Gaussian(R) 03 system (copyright 2003, Gaussian, Inc.),
 the Gaussian(R) 98 system (copyright 1998, Gaussian, Inc.),
 the Gaussian(R) 94 system (copyright 1995, Gaussian, Inc.),
 the Gaussian 92(TM) system (copyright 1992, Gaussian, Inc.),
 the Gaussian 90(TM) system (copyright 1990, Gaussian, Inc.),
 the Gaussian 88(TM) system (copyright 1988, Gaussian, Inc.),
 the Gaussian 86(TM) system (copyright 1986, Carnegie Mellon
 University), and the Gaussian 82(TM) system (copyright 1983,
 Carnegie Mellon University). Gaussian is a federally registered
 trademark of Gaussian, Inc.
  
 This software contains proprietary and confidential information,
 including trade secrets, belonging to Gaussian, Inc.
  
 This software is provided under written license and may be
 used, copied, transmitted, or stored only in accord with that
 written license.
  
 The following legend is applicable only to US Government
 contracts under FAR:
  
                    RESTRICTED RIGHTS LEGEND
  
 Use, reproduction and disclosure by the US Government is
 subject to restrictions as set forth in subparagraphs (a)
 and (c) of the Commercial Computer Software - Restricted
 Rights clause in FAR 52.227-19.
  
 Gaussian, Inc.
 340 Quinnipiac St., Bldg. 40, Wallingford CT 06492
  
  
 ---------------------------------------------------------------
 Warning -- This program may not be used in any manner that
 competes with the business of Gaussian, Inc. or will provide
 assistance to any competitor of Gaussian, Inc.  The licensee
 of this program is prohibited from giving any competitor of
 Gaussian, Inc. access to this program.  By using this program,
 the user acknowledges that Gaussian, Inc. is engaged in the
 business of creating and licensing software in the field of
 computational chemistry and represents and warrants to the
 licensee that it is not a competitor of Gaussian, Inc. and that
 it will not use this program in any manner prohibited above.
 ---------------------------------------------------------------
  

 Cite this work as:
 Gaussian 16, Revision C.01,
 M. J. Frisch, G. W. Trucks, H. B. Schlegel, G. E. Scuseria, 
 M. A. Robb, J. R. Cheeseman, G. Scalmani, V. Barone, 
 G. A. Petersson, H. Nakatsuji, X. Li, M. Caricato, A. V. Marenich, 
 J. Bloino, B. G. Janesko, R. Gomperts, B. Mennucci, H. P. Hratchian, 
 J. V. Ortiz, A. F. Izmaylov, J. L. Sonnenberg, D. Williams-Young, 
 F. Ding, F. Lipparini, F. Egidi, J. Goings, B. Peng, A. Petrone, 
 T. Henderson, D. Ranasinghe, V. G. Zakrzewski, J. Gao, N. Rega, 
 G. Zheng, W. Liang, M. Hada, M. Ehara, K. Toyota, R. Fukuda, 
 J. Hasegawa, M. Ishida, T. Nakajima, Y. Honda, O. Kitao, H. Nakai, 
 T. Vreven, K. Throssell, J. A. Montgomery, Jr., J. E. Peralta, 
 F. Ogliaro, M. J. Bearpark, J. J. Heyd, E. N. Brothers, K. N. Kudin, 
 V. N. Staroverov, T. A. Keith, R. Kobayashi, J. Normand, 
 K. Raghavachari, A. P. Rendell, J. C. Burant, S. S. Iyengar, 
 J. Tomasi, M. Cossi, J. M. Millam, M. Klene, C. Adamo, R. Cammi, 
 J. W. Ochterski, R. L. Martin, K. Morokuma, O. Farkas, 
 J. B. Foresman, and D. J. Fox, Gaussian, Inc., Wallingford CT, 2019.
 
 ******************************************
 Gaussian 16:  ES64L-G16RevC.01  3-Jul-2019
                 2-Aug-2022 
 ******************************************
 %NProcShared=48
 Will use up to   48 processors via shared memory.
 %mem = 190GB
 ---------------------------------------------------------------
 #n M062X/6-311++G(d,p) TD(NStates=1) EmpiricalDispersion=GD3 SP
 ---------------------------------------------------------------
 1/38=1,172=1/1;
 2/12=2,17=6,18=5,40=1/2;
 3/5=4,6=6,7=1111,11=9,25=1,30=1,74=-55,124=31/1,2,3,8;
 4//1;
 5/5=2,38=5/2;
 8/6=1,10=2,108=1/1;
 9/41=1,42=1,70=2/14;
 6/7=2,8=2,9=2,10=2/1;
 99/5=1,9=1/99;
 -------
 SP_-100
 -------
 Symbolic Z-matrix:
 Charge =  1 Multiplicity = 1
 C                     2.48496   1.36193   0. 
 C                     3.69526   0.67101   0. 
 C                     3.68136  -0.71468   0. 
 C                     2.46683  -1.40936   0. 
 C                    -2.45903  -1.40481   0. 
 C                    -3.68366  -0.70848   0. 
 C                    -3.70348   0.67454   0. 
 C                    -2.49181   1.36163   0. 
 C                    -0.00208   1.44347   0. 
 C                     0.0061   -1.42874   0. 
 C                     1.26263   0.67887   0. 
 C                     1.24087  -0.73178   0. 
 C                    -1.26081   0.67504   0. 
 C                    -1.23587  -0.73118   0. 
 H                     2.48207   2.44522   0. 
 H                     4.63      1.21194   0. 
 H                     4.60931  -1.26942   0. 
 H                     2.47005  -2.49193   0. 
 H                     0.00563  -2.51004   0. 
 H                    -2.4664   -2.48751   0. 
 H                    -4.60786  -1.26965   0. 
 H                    -4.63833   1.21481   0. 
 H                    -2.48417   2.445     0. 
 H                    -0.008     2.14354  -0.85711 
 H                    -0.008     2.14354   0.85711 
 
                          Input orientation:                          
 ---------------------------------------------------------------------
 Center     Atomic      Atomic             Coordinates (Angstroms)
 Number     Number       Type             X           Y           Z
 ---------------------------------------------------------------------
      1          6           0        2.484955    1.361931    0.000000
      2          6           0        3.695258    0.671014    0.000000
      3          6           0        3.681361   -0.714680    0.000000
      4          6           0        2.466831   -1.409363    0.000000
      5          6           0       -2.459031   -1.404813    0.000000
      6          6           0       -3.683661   -0.708480    0.000000
      7          6           0       -3.703483    0.674539    0.000000
      8          6           0       -2.491805    1.361631    0.000000
      9          6           0       -0.002075    1.443469    0.000000
     10          6           0        0.006100   -1.428739    0.000000
     11          6           0        1.262630    0.678865    0.000000
     12          6           0        1.240871   -0.731779    0.000000
     13          6           0       -1.260805    0.675040    0.000000
     14          6           0       -1.235871   -0.731179    0.000000
     15          1           0        2.482071    2.445222    0.000000
     16          1           0        4.630003    1.211939    0.000000
     17          1           0        4.609312   -1.269424    0.000000
     18          1           0        2.470050   -2.491934    0.000000
     19          1           0        0.005625   -2.510041    0.000000
     20          1           0       -2.466400   -2.487509    0.000000
     21          1           0       -4.607862   -1.269649    0.000000
     22          1           0       -4.638328    1.214814    0.000000
     23          1           0       -2.484171    2.444997    0.000000
     24          1           0       -0.008000    2.143537   -0.857110
     25          1           0       -0.008000    2.143537    0.857110
 ---------------------------------------------------------------------
                    Distance matrix (angstroms):
                    1          2          3          4          5
     1  C    0.000000
     2  C    1.393628   0.000000
     3  C    2.396602   1.385764   0.000000
     4  C    2.771353   2.415989   1.399167   0.000000
     5  C    5.665498   6.494947   6.179053   4.925864   0.000000
     6  C    6.506798   7.506760   7.365025   6.190298   1.408758
     7  C    6.226498   7.398742   7.514376   6.512712   2.423296
     8  C    4.976760   6.225488   6.512991   5.680359   2.766638
     9  C    2.488366   3.777163   4.269111   3.772817   3.761561
    10  C    3.732635   4.244862   3.743985   2.460807   2.465247
    11  C    1.400235   2.432641   2.791456   2.410559   4.265264
    12  C    2.435440   2.826985   2.440550   1.400749   3.760618
    13  C    3.808220   4.956065   5.133841   4.270832   2.400320
    14  C    4.269152   5.126615   4.917260   3.764297   1.396389
    15  H    1.083295   2.149334   3.379834   3.854615   6.263965
    16  H    2.150286   1.079976   2.147506   3.398608   7.556573
    17  H    3.381852   2.144946   1.081126   2.147046   7.069640
    18  H    3.853894   3.391957   2.150792   1.082576   5.047541
    19  H    4.597743   4.871602   4.090765   2.696113   2.701122
    20  H    6.271691   6.924038   6.398272   5.049670   1.082721
    21  H    7.565267   8.526897   8.307780   7.076072   2.153078
    22  H    7.124802   8.351310   8.540502   7.574272   3.407606
    23  H    5.085789   6.429025   6.928012   6.274433   3.849892
    24  H    2.749613   4.076405   4.745042   4.413901   4.396928
    25  H    2.749613   4.076405   4.745042   4.413901   4.396928
                    6          7          8          9         10
     6  C    0.000000
     7  C    1.383161   0.000000
     8  C    2.388698   1.392932   0.000000
     9  C    4.264383   3.780433   2.491075   0.000000
    10  C    3.759403   4.264362   3.745089   2.872220   0.000000
    11  C    5.137171   4.966115   3.816013   1.477869   2.453745
    12  C    4.924587   5.140464   4.279630   2.505318   1.417890
    13  C    2.790046   2.442678   1.409528   1.474749   2.455796
    14  C    2.447895   2.839921   2.440742   2.500269   1.424458
    15  H    6.925467   6.434003   5.090541   2.678524   4.597609
    16  H    8.532586   8.350796   7.123381   4.637861   5.324815
    17  H    8.311923   8.537069   7.572867   5.350204   4.605968
    18  H    6.406939   6.938232   6.282513   4.647451   2.683549
    19  H    4.105661   4.888664   4.607277   3.953517   1.081302
    20  H    2.155613   3.395427   3.849224   4.639557   2.689656
    21  H    1.081230   2.144241   3.376586   5.345492   4.616704
    22  H    2.147196   1.079737   2.151538   4.641888   5.344070
    23  H    3.373899   2.149708   1.083393   2.676539   4.605136
    24  H    4.730658   4.068069   2.741405   1.106692   3.673689
    25  H    4.730658   4.068069   2.741405   1.106692   3.673689
                   11         12         13         14         15
    11  C    0.000000
    12  C    1.410812   0.000000
    13  C    2.523438   2.870108   0.000000
    14  C    2.868925   2.476742   1.406440   0.000000
    15  H    2.146405   3.410852   4.140370   4.890053   0.000000
    16  H    3.409306   3.906950   5.915224   6.179335   2.476812
    17  H    3.872481   3.411079   6.183786   5.869912   4.280625
    18  H    3.392909   2.146864   4.893772   4.102939   4.937171
    19  H    3.427708   2.165190   3.427621   2.169254   5.539622
    20  H    4.891992   4.102005   3.384550   2.144504   6.987074
    21  H    6.185417   5.873413   3.870995   3.414714   8.004212
    22  H    5.925247   6.193077   3.420383   3.919643   7.225925
    23  H    4.142190   4.895696   2.151598   3.412674   4.966242
    24  H    2.120001   3.249886   2.112023   3.241342   2.650680
    25  H    2.120001   3.249886   2.112023   3.241342   2.650680
                   16         17         18         19         20
    16  H    0.000000
    17  H    2.481449   0.000000
    18  H    4.287665   2.463934   0.000000
    19  H    5.936161   4.767920   2.464492   0.000000
    20  H    8.002803   7.179793   4.936452   2.472128   0.000000
    21  H    9.565377   9.217174   7.182675   4.777325   2.463543
    22  H    9.268331   9.575504   8.016796   5.953221   4.292373
    23  H    7.220243   8.007148   6.994111   5.545402   4.932538
    24  H    4.807659   5.805386   5.325689   4.731872   5.312716
    25  H    4.807659   5.805386   5.325689   4.731872   5.312716
                   21         22         23         24         25
    21  H    0.000000
    22  H    2.484650   0.000000
    23  H    4.278862   2.480674   0.000000
    24  H    5.791650   4.799698   2.637601   0.000000
    25  H    5.791650   4.799698   2.637601   1.714220   0.000000
 Stoichiometry    C14H11(1+)
 Framework group  CS[SG(C14H9),X(H2)]
 Deg. of freedom    46
 Full point group                 CS      NOp   2
 Largest Abelian subgroup         CS      NOp   2
 Largest concise Abelian subgroup CS      NOp   2
                         Standard orientation:                         
 ---------------------------------------------------------------------
 Center     Atomic      Atomic             Coordinates (Angstroms)
 Number     Number       Type             X           Y           Z
 ---------------------------------------------------------------------
      1          6           0        2.490912   -1.351159    0.000000
      2          6           0        3.698213   -0.655009    0.000000
      3          6           0        3.678318    0.730612    0.000000
      4          6           0        2.460792    1.420031    0.000000
      5          6           0       -2.465004    1.394158    0.000000
      6          6           0       -3.686609    0.692530    0.000000
      7          6           0       -3.700444   -0.690561    0.000000
      8          6           0       -2.485803   -1.372402    0.000000
      9          6           0        0.004258   -1.443462    0.000000
     10          6           0        0.000000    1.428755    0.000000
     11          6           0        1.265642   -0.673390    0.000000
     12          6           0        1.237776    0.737146    0.000000
     13          6           0       -1.257786   -0.680489    0.000000
     14          6           0       -1.238940    0.725825    0.000000
     15          1           0        2.492717   -2.434452    0.000000
     16          1           0        4.635291   -1.191883    0.000000
     17          1           0        4.603859    1.289367    0.000000
     18          1           0        2.459325    2.502606    0.000000
     19          1           0       -0.005156    2.510045    0.000000
     20          1           0       -2.477060    2.476812    0.000000
     21          1           0       -4.613230    1.249694    0.000000
     22          1           0       -4.632941   -1.234878    0.000000
     23          1           0       -2.473479   -2.455725    0.000000
     24          1           0        0.001364   -2.143549    0.857110
     25          1           0        0.001364   -2.143549   -0.857110
 ---------------------------------------------------------------------
 Rotational constants (GHZ):           2.1394686           0.4451093           0.3692510
 Standard basis: 6-311++G(d,p) (5D, 7F)
 There are   299 symmetry adapted cartesian basis functions of A'  symmetry.
 There are   100 symmetry adapted cartesian basis functions of A"  symmetry.
 There are   285 symmetry adapted basis functions of A'  symmetry.
 There are   100 symmetry adapted basis functions of A"  symmetry.
   385 basis functions,   603 primitive gaussians,   399 cartesian basis functions
    47 alpha electrons       47 beta electrons
       nuclear repulsion energy       781.6460512684 Hartrees.
 NAtoms=   25 NActive=   25 NUniq=   24 SFac= 1.09D+00 NAtFMM=   60 NAOKFM=F Big=F
 Integral buffers will be    131072 words long.
 Regular integral format.
 Two-electron integral symmetry is turned on.
 Nuclear repulsion after empirical dispersion term =      781.6450719294 Hartrees.
 One-electron integrals computed using PRISM.
 NBasis=   385 RedAO= T EigKep=  1.10D-06  NBF=   285   100
 NBsUse=   379 1.00D-06 EigRej=  8.32D-07 NBFU=   279   100
 ExpMin= 3.60D-02 ExpMax= 4.56D+03 ExpMxC= 6.82D+02 IAcc=3 IRadAn=         5 AccDes= 0.00D+00
 Harris functional with IExCor= 1009 and IRadAn=       5 diagonalized for initial guess.
 HarFok:  IExCor= 1009 AccDes= 0.00D+00 IRadAn=         5 IDoV= 1 UseB2=F ITyADJ=14
 ICtDFT=  3500011 ScaDFX=  1.000000  1.000000  1.000000  1.000000
 FoFCou: FMM=F IPFlag=           0 FMFlag=      100000 FMFlg1=           0
         NFxFlg=           0 DoJE=T BraDBF=F KetDBF=T FulRan=T
         wScrn=  0.000000 ICntrl=       500 IOpCl=  0 I1Cent=   200000004 NGrid=           0
         NMat0=    1 NMatS0=      1 NMatT0=    0 NMatD0=    1 NMtDS0=    0 NMtDT0=    0
 Petite list used in FoFCou.
 Initial guess orbital symmetries:
       Occupied  (A') (A') (A') (A') (A') (A') (A') (A') (A') (A')
                 (A') (A') (A') (A') (A') (A') (A') (A') (A') (A')
                 (A') (A') (A') (A') (A') (A') (A') (A') (A') (A')
                 (A') (A') (A") (A') (A') (A') (A') (A') (A') (A")
                 (A") (A') (A') (A") (A") (A") (A")
       Virtual   (A") (A") (A") (A") (A") (A') (A') (A') (A') (A")
                 (A") (A') (A') (A') (A") (A') (A') (A') (A') (A")
                 (A') (A") (A') (A') (A') (A") (A') (A") (A') (A')
                 (A') (A') (A') (A") (A') (A') (A") (A') (A') (A")
                 (A') (A') (A') (A") (A') (A') (A') (A') (A') (A")
                 (A') (A') (A") (A") (A') (A') (A') (A") (A") (A')
                 (A') (A') (A') (A') (A') (A") (A') (A') (A') (A")
                 (A') (A') (A') (A') (A') (A') (A') (A') (A') (A')
                 (A') (A') (A') (A') (A') (A') (A') (A') (A') (A')
                 (A') (A') (A') (A') (A') (A') (A') (A") (A') (A")
                 (A') (A') (A") (A") (A') (A") (A") (A') (A') (A")
                 (A") (A') (A') (A') (A") (A') (A') (A") (A") (A')
                 (A") (A") (A') (A') (A') (A") (A') (A') (A') (A")
                 (A') (A') (A') (A') (A') (A') (A") (A') (A') (A')
                 (A') (A') (A') (A') (A') (A') (A') (A') (A') (A")
                 (A") (A') (A") (A") (A') (A') (A') (A") (A") (A')
                 (A") (A') (A") (A") (A") (A') (A') (A') (A') (A')
                 (A') (A") (A') (A") (A') (A') (A') (A') (A') (A")
                 (A') (A') (A') (A') (A") (A') (A") (A') (A") (A")
                 (A') (A") (A') (A") (A') (A') (A') (A") (A') (A')
                 (A") (A") (A") (A') (A') (A") (A') (A") (A') (A')
                 (A") (A") (A') (A") (A') (A") (A') (A') (A") (A')
                 (A') (A') (A') (A') (A") (A') (A') (A') (A") (A")
                 (A') (A') (A') (A") (A') (A') (A") (A') (A") (A')
                 (A") (A') (A') (A') (A') (A') (A") (A') (A') (A")
                 (A') (A') (A") (A') (A") (A') (A') (A") (A') (A')
                 (A') (A') (A") (A") (A') (A') (A') (A") (A") (A')
                 (A') (A') (A') (A') (A") (A') (A") (A') (A") (A')
                 (A") (A') (A") (A") (A") (A') (A') (A') (A') (A')
                 (A') (A') (A') (A') (A') (A') (A') (A') (A') (A')
                 (A') (A') (A') (A") (A') (A') (A') (A') (A') (A')
                 (A') (A') (A') (A') (A') (A') (A') (A') (A') (A')
                 (A') (A') (A') (A') (A') (A') (A') (A') (A') (A')
                 (A') (A')
 The electronic state of the initial guess is 1-A'.
 Requested convergence on RMS density matrix=1.00D-08 within 128 cycles.
 Requested convergence on MAX density matrix=1.00D-06.
 Requested convergence on             energy=1.00D-06.
 No special actions if energy rises.
 SCF Done:  E(RM062X) =  -539.759919017     A.U. after   15 cycles
            NFock= 15  Conv=0.46D-08     -V/T= 2.0041
 DoSCS=F DFT=T ScalE2(SS,OS)=  1.000000  1.000000
 ExpMin= 3.60D-02 ExpMax= 4.56D+03 ExpMxC= 6.82D+02 IAcc=3 IRadAn=         5 AccDes= 0.00D+00
 HarFok:  IExCor=  205 AccDes= 0.00D+00 IRadAn=         5 IDoV=-2 UseB2=F ITyADJ=14
 ICtDFT= 12500011 ScaDFX=  1.000000  1.000000  1.000000  1.000000
 Range of M.O.s used for correlation:    15   379
 NBasis=   385 NAE=    47 NBE=    47 NFC=    14 NFV=     0
 NROrb=    365 NOA=    33 NOB=    33 NVA=   332 NVB=   332

 **** Warning!!: The largest alpha MO coefficient is  0.15246876D+03

 Orbital symmetries:
       Occupied  (A') (A') (A') (A') (A') (A') (A') (A') (A') (A')
                 (A') (A') (A') (A') (A') (A') (A') (A') (A') (A')
                 (A') (A') (A') (A') (A') (A') (A') (A') (A') (A')
                 (A') (A') (A") (A') (A') (A') (A') (A") (A") (A')
                 (A') (A') (A') (A") (A") (A") (A")
       Virtual   (A") (A") (A") (A") (A') (A') (A') (A') (A") (A')
                 (A') (A") (A') (A') (A") (A') (A") (A') (A') (A')
                 (A") (A") (A') (A') (A') (A") (A') (A") (A') (A')
                 (A") (A') (A") (A') (A') (A') (A') (A') (A") (A')
                 (A") (A') (A') (A") (A") (A') (A") (A') (A") (A')
                 (A') (A') (A') (A') (A') (A") (A') (A') (A') (A')
                 (A') (A") (A') (A') (A') (A") (A') (A') (A') (A')
                 (A') (A') (A') (A') (A') (A') (A') (A') (A') (A')
                 (A') (A') (A') (A') (A') (A') (A') (A') (A') (A')
                 (A') (A') (A') (A') (A") (A') (A") (A") (A') (A")
                 (A') (A') (A') (A') (A") (A") (A') (A") (A") (A')
                 (A') (A') (A") (A') (A') (A") (A') (A") (A') (A")
                 (A") (A') (A") (A') (A') (A') (A") (A') (A') (A')
                 (A') (A') (A') (A') (A') (A') (A') (A') (A') (A')
                 (A') (A') (A') (A") (A') (A') (A') (A') (A') (A')
                 (A') (A') (A") (A') (A") (A') (A") (A") (A') (A")
                 (A") (A') (A') (A") (A") (A") (A') (A") (A') (A')
                 (A') (A') (A') (A") (A") (A') (A') (A') (A') (A")
                 (A') (A') (A') (A") (A') (A") (A') (A') (A") (A")
                 (A") (A') (A') (A") (A') (A") (A') (A') (A') (A')
                 (A") (A") (A") (A') (A") (A') (A') (A") (A') (A')
                 (A') (A") (A") (A') (A") (A") (A') (A') (A') (A")
                 (A') (A') (A') (A') (A") (A') (A') (A') (A") (A")
                 (A') (A') (A') (A") (A') (A') (A') (A") (A") (A')
                 (A") (A') (A') (A") (A') (A') (A') (A') (A') (A')
                 (A") (A') (A') (A') (A') (A") (A") (A") (A') (A')
                 (A') (A') (A') (A') (A') (A') (A") (A') (A') (A')
                 (A') (A") (A') (A") (A") (A") (A') (A") (A") (A')
                 (A') (A") (A") (A') (A") (A") (A') (A') (A') (A')
                 (A') (A') (A') (A') (A') (A') (A') (A') (A') (A')
                 (A') (A') (A') (A") (A') (A') (A') (A') (A') (A')
                 (A') (A') (A') (A') (A') (A') (A') (A') (A') (A')
                 (A') (A') (A') (A') (A') (A') (A') (A') (A') (A')
                 (A') (A')
     4 initial guesses have been made.
 Convergence on wavefunction:    0.001000000000000
 Iteration     1 Dimension     4 NMult     0 NNew      4
 CISAX will form     4 AO SS matrices at one time.
 Iteration     2 Dimension     6 NMult     4 NNew      2
 Iteration     3 Dimension     8 NMult     6 NNew      2
 Iteration     4 Dimension    10 NMult     8 NNew      2
 Iteration     5 Dimension    12 NMult    10 NNew      2
 Iteration     6 Dimension    14 NMult    12 NNew      2
 ***********************************************************************
 Excited states from <AA,BB:AA,BB> singles matrix:
 ***********************************************************************
 
 Ground to excited state transition densities written to RWF  633
 Ground to excited state transition electric dipole moments (Au):
       state          X           Y           Z        Dip. S.      Osc.
         1        -0.0036     -0.6466      0.0000      0.4181      0.0289
 Ground to excited state transition velocity dipole moments (Au):
       state          X           Y           Z        Dip. S.      Osc.
         1        -0.0004      0.0747     -0.0000      0.0056      0.0359
 Ground to excited state transition magnetic dipole moments (Au):
       state          X           Y           Z
         1        -0.0000      0.0000     -0.0408
 Ground to excited state transition velocity quadrupole moments (Au):
       state          XX          YY          ZZ          XY          XZ          YZ
         1         0.2933      0.0339     -0.0098     -0.0168      0.0000      0.0000
 <0|del|b> * <b|rxdel|0> + <0|del|b> * <b|delr+rdel|0>
 Rotatory Strengths (R) in cgs (10**-40 erg-esu-cm/Gauss)
       state          XX          YY          ZZ    R(velocity)    E-M Angle
         1         0.0000      0.0000      0.0000      0.0000       90.00
 1/2[<0|r|b>*<b|rxdel|0> + (<0|rxdel|b>*<b|r|0>)*]
 Rotatory Strengths (R) in cgs (10**-40 erg-esu-cm/Gauss)
       state          XX          YY          ZZ     R(length)
         1        -0.0000      0.0000      0.0000      0.0000
  1/2[<0|del|b>*<b|r|0> + (<0|r|b>*<b|del|0>)*] (Au)
       state          X           Y           Z        Dip. S.   Osc.(frdel)
         1         0.0000     -0.0483     -0.0000      0.0483      0.0322

 Excitation energies and oscillator strengths:
 
 Excited State   1:      Singlet-A'     2.8182 eV  439.94 nm  f=0.0289  <S**2>=0.000
      47 -> 48         0.70422
 This state for optimization and/or second-order correction.
 Total Energy, E(TD-HF/TD-DFT) =  -539.656351301    
 Copying the excited state density for this state as the 1-particle RhoCI density.
 SavETr:  write IOETrn=   770 NScale= 10 NData=  16 NLR=1 NState=    1 LETran=      28.

 **********************************************************************

            Population analysis using the SCF Density.

 **********************************************************************

 Orbital symmetries:
       Occupied  (A') (A') (A') (A') (A') (A') (A') (A') (A') (A')
                 (A') (A') (A') (A') (A') (A') (A') (A') (A') (A')
                 (A') (A') (A') (A') (A') (A') (A') (A') (A') (A')
                 (A') (A') (A") (A') (A') (A') (A') (A") (A") (A')
                 (A') (A') (A') (A") (A") (A") (A")
       Virtual   (A") (A") (A") (A") (A') (A') (A') (A') (A") (A')
                 (A') (A") (A') (A') (A") (A') (A") (A') (A') (A')
                 (A") (A") (A') (A') (A') (A") (A') (A") (A') (A')
                 (A") (A') (A") (A') (A') (A') (A') (A') (A") (A')
                 (A") (A') (A') (A") (A") (A') (A") (A') (A") (A')
                 (A') (A') (A') (A') (A') (A") (A') (A') (A') (A')
                 (A') (A") (A') (A') (A') (A") (A') (A') (A') (A')
                 (A') (A') (A') (A') (A') (A') (A') (A') (A') (A')
                 (A') (A') (A') (A') (A') (A') (A') (A') (A') (A')
                 (A') (A') (A') (A') (A") (A') (A") (A") (A') (A")
                 (A') (A') (A') (A') (A") (A") (A') (A") (A") (A')
                 (A') (A') (A") (A') (A') (A") (A') (A") (A') (A")
                 (A") (A') (A") (A') (A') (A') (A") (A') (A') (A')
                 (A') (A') (A') (A') (A') (A') (A') (A') (A') (A')
                 (A') (A') (A') (A") (A') (A') (A') (A') (A') (A')
                 (A') (A') (A") (A') (A") (A') (A") (A") (A') (A")
                 (A") (A') (A') (A") (A") (A") (A') (A") (A') (A')
                 (A') (A') (A') (A") (A") (A') (A') (A') (A') (A")
                 (A') (A') (A') (A") (A') (A") (A') (A') (A") (A")
                 (A") (A') (A') (A") (A') (A") (A') (A') (A') (A')
                 (A") (A") (A") (A') (A") (A') (A') (A") (A') (A')
                 (A') (A") (A") (A') (A") (A") (A') (A') (A') (A")
                 (A') (A') (A') (A') (A") (A') (A') (A') (A") (A")
                 (A') (A') (A') (A") (A') (A') (A') (A") (A") (A')
                 (A") (A') (A') (A") (A') (A') (A') (A') (A') (A')
                 (A") (A') (A') (A') (A') (A") (A") (A") (A') (A')
                 (A') (A') (A') (A') (A') (A') (A") (A') (A') (A')
                 (A') (A") (A') (A") (A") (A") (A') (A") (A") (A')
                 (A') (A") (A") (A') (A") (A") (A') (A') (A') (A')
                 (A') (A') (A') (A') (A') (A') (A') (A') (A') (A')
                 (A') (A') (A') (A") (A') (A') (A') (A') (A') (A')
                 (A') (A') (A') (A') (A') (A') (A') (A') (A') (A')
                 (A') (A') (A') (A') (A') (A') (A') (A') (A') (A')
                 (A') (A')
 The electronic state is 1-A'.
 Alpha  occ. eigenvalues --  -10.77643 -10.73253 -10.73110 -10.72473 -10.72356
 Alpha  occ. eigenvalues --  -10.71431 -10.71293 -10.71143 -10.70950 -10.70886
 Alpha  occ. eigenvalues --  -10.70002 -10.69938 -10.69655 -10.69572  -1.16502
 Alpha  occ. eigenvalues --   -1.12504  -1.06944  -1.05827  -1.01314  -1.00257
 Alpha  occ. eigenvalues --   -0.95770  -0.91079  -0.86426  -0.85923  -0.83834
 Alpha  occ. eigenvalues --   -0.78408  -0.76084  -0.74423  -0.69539  -0.69262
 Alpha  occ. eigenvalues --   -0.68520  -0.68213  -0.68086  -0.64766  -0.64307
 Alpha  occ. eigenvalues --   -0.63143  -0.61868  -0.59960  -0.59684  -0.59080
 Alpha  occ. eigenvalues --   -0.56927  -0.55200  -0.54875  -0.52431  -0.46674
 Alpha  occ. eigenvalues --   -0.46059  -0.44452
 Alpha virt. eigenvalues --   -0.26066  -0.14675  -0.14095  -0.12769  -0.11183
 Alpha virt. eigenvalues --   -0.10094  -0.09230  -0.07983  -0.07958  -0.07478
 Alpha virt. eigenvalues --   -0.07211  -0.07150  -0.05640  -0.05585  -0.05337
 Alpha virt. eigenvalues --   -0.03827  -0.03648  -0.03281  -0.03129  -0.02162
 Alpha virt. eigenvalues --   -0.01372  -0.00932   0.00182   0.00593   0.00696
 Alpha virt. eigenvalues --    0.01058   0.01509   0.01932   0.02222   0.02268
 Alpha virt. eigenvalues --    0.02450   0.02675   0.02754   0.03236   0.03374
 Alpha virt. eigenvalues --    0.04236   0.04514   0.04689   0.05026   0.05364
 Alpha virt. eigenvalues --    0.06029   0.06305   0.06599   0.07062   0.07246
 Alpha virt. eigenvalues --    0.07896   0.08172   0.08375   0.08562   0.08928
 Alpha virt. eigenvalues --    0.09551   0.09564   0.10055   0.10899   0.11079
 Alpha virt. eigenvalues --    0.11107   0.12198   0.12250   0.12917   0.13019
 Alpha virt. eigenvalues --    0.13415   0.13520   0.14035   0.14370   0.16270
 Alpha virt. eigenvalues --    0.16279   0.16355   0.17350   0.17626   0.17792
 Alpha virt. eigenvalues --    0.18141   0.19043   0.19232   0.19661   0.19765
 Alpha virt. eigenvalues --    0.21594   0.21630   0.22732   0.23139   0.23586
 Alpha virt. eigenvalues --    0.23702   0.24527   0.25216   0.26926   0.27623
 Alpha virt. eigenvalues --    0.28878   0.29317   0.29911   0.31389   0.35888
 Alpha virt. eigenvalues --    0.36479   0.38179   0.39287   0.41170   0.41399
 Alpha virt. eigenvalues --    0.42024   0.42154   0.42981   0.43729   0.44302
 Alpha virt. eigenvalues --    0.44933   0.45046   0.46084   0.46210   0.47881
 Alpha virt. eigenvalues --    0.48534   0.48912   0.49003   0.50442   0.51305
 Alpha virt. eigenvalues --    0.51658   0.51769   0.52113   0.52958   0.53981
 Alpha virt. eigenvalues --    0.54085   0.54714   0.55681   0.55770   0.57304
 Alpha virt. eigenvalues --    0.58245   0.58822   0.61464   0.62145   0.62358
 Alpha virt. eigenvalues --    0.63239   0.63498   0.65071   0.65170   0.67422
 Alpha virt. eigenvalues --    0.70371   0.70543   0.71062   0.72442   0.72896
 Alpha virt. eigenvalues --    0.75755   0.76027   0.76326   0.76903   0.77106
 Alpha virt. eigenvalues --    0.77858   0.77941   0.78290   0.79853   0.80410
 Alpha virt. eigenvalues --    0.81293   0.81621   0.82132   0.83031   0.85238
 Alpha virt. eigenvalues --    0.87202   0.88253   0.88650   0.89108   0.90444
 Alpha virt. eigenvalues --    0.91181   0.91242   0.93198   0.94660   0.96491
 Alpha virt. eigenvalues --    0.96641   1.00357   1.01335   1.01673   1.02723
 Alpha virt. eigenvalues --    1.03209   1.03882   1.04746   1.05381   1.08817
 Alpha virt. eigenvalues --    1.19589   1.23239   1.24115   1.25318   1.28208
 Alpha virt. eigenvalues --    1.29625   1.31841   1.34209   1.35809   1.36016
 Alpha virt. eigenvalues --    1.39414   1.40188   1.40994   1.42921   1.43525
 Alpha virt. eigenvalues --    1.43554   1.45105   1.45530   1.46401   1.46692
 Alpha virt. eigenvalues --    1.47642   1.48072   1.51833   1.53631   1.55803
 Alpha virt. eigenvalues --    1.56118   1.56355   1.56559   1.57838   1.61528
 Alpha virt. eigenvalues --    1.63166   1.63501   1.63733   1.66167   1.68356
 Alpha virt. eigenvalues --    1.68397   1.68653   1.69696   1.74473   1.76027
 Alpha virt. eigenvalues --    1.77258   1.78046   1.80210   1.80221   1.80760
 Alpha virt. eigenvalues --    1.83198   1.83209   1.83693   1.83800   1.84120
 Alpha virt. eigenvalues --    1.84314   1.85845   1.86107   1.88252   1.91421
 Alpha virt. eigenvalues --    1.92135   1.94170   1.95261   1.97719   1.98202
 Alpha virt. eigenvalues --    1.99804   2.02768   2.04510   2.07265   2.11848
 Alpha virt. eigenvalues --    2.12128   2.14127   2.15215   2.19224   2.21418
 Alpha virt. eigenvalues --    2.22800   2.28484   2.30469   2.34764   2.35011
 Alpha virt. eigenvalues --    2.36227   2.38690   2.39599   2.42423   2.44233
 Alpha virt. eigenvalues --    2.46213   2.46942   2.49421   2.52972   2.53846
 Alpha virt. eigenvalues --    2.54484   2.56619   2.57860   2.58299   2.59670
 Alpha virt. eigenvalues --    2.59837   2.61642   2.62187   2.63583   2.63873
 Alpha virt. eigenvalues --    2.64799   2.65168   2.65229   2.65384   2.68177
 Alpha virt. eigenvalues --    2.68699   2.70992   2.71425   2.73363   2.74842
 Alpha virt. eigenvalues --    2.76302   2.79106   2.79778   2.83098   2.83118
 Alpha virt. eigenvalues --    2.84941   2.86412   2.92165   2.96952   2.99547
 Alpha virt. eigenvalues --    3.00120   3.05590   3.11300   3.11661   3.13191
 Alpha virt. eigenvalues --    3.21280   3.24473   3.26924   3.28348   3.30826
 Alpha virt. eigenvalues --    3.32804   3.33688   3.43426   3.45929   3.46924
 Alpha virt. eigenvalues --    3.48814   3.50352   3.56704   3.64808   3.67206
 Alpha virt. eigenvalues --    3.67515   3.94186   3.94586   3.95128   3.96287
 Alpha virt. eigenvalues --    4.04047   4.06983   4.07657   4.12528   4.35858
 Alpha virt. eigenvalues --    4.62031   4.69969   4.71712  23.45323  23.60673
 Alpha virt. eigenvalues --   23.82351  23.86057  23.88070  23.89427  23.90447
 Alpha virt. eigenvalues --   23.92502  23.98010  23.99430  24.00003  24.00807
 Alpha virt. eigenvalues --   24.10634  24.10795
          Condensed to atoms (all electrons):
               1          2          3          4          5          6
     1  C    8.480686   0.471985  -0.592802   1.785986   0.009450  -0.092543
     2  C    0.471985   7.049519   0.390573  -0.982718  -0.034499  -0.015413
     3  C   -0.592802   0.390573   6.584979   0.725754  -0.116878   0.016953
     4  C    1.785986  -0.982718   0.725754  10.788364  -0.280697  -0.120186
     5  C    0.009450  -0.034499  -0.116878  -0.280697  10.685717   0.739729
     6  C   -0.092543  -0.015413   0.016953  -0.120186   0.739729   6.580708
     7  C   -0.029470   0.004355  -0.015094  -0.027797  -1.010483   0.367810
     8  C    0.406086  -0.025148  -0.095730  -0.000101   1.862021  -0.559818
     9  C   -1.301142  -0.769546   0.282311  -0.258686  -0.320023   0.281762
    10  C   -1.199687   0.213796  -0.348063  -2.563544  -2.510208  -0.371982
    11  C    0.221681  -0.941512   1.011268  -0.206889  -1.480568  -0.172225
    12  C   -1.708603   1.219092  -1.340054  -1.396477  -0.297349  -0.212325
    13  C    0.131244  -0.231637  -0.188398  -1.503772  -0.214331   1.044784
    14  C   -1.072920  -0.224724  -0.190007  -0.334157  -1.402314  -1.361500
    15  H    0.363310  -0.101364  -0.002484   0.025550   0.006199   0.001116
    16  H   -0.020078   0.377784  -0.016175   0.014287  -0.001580  -0.000332
    17  H   -0.021011  -0.018197   0.375006  -0.066110   0.000271   0.000393
    18  H    0.047510   0.002995  -0.085452   0.452269   0.008133  -0.004890
    19  H   -0.046485  -0.007495   0.050428  -0.071765  -0.069219   0.050485
    20  H    0.007621   0.001918  -0.004933   0.008082   0.450811  -0.085436
    21  H   -0.001324  -0.000400   0.000389   0.000334  -0.065711   0.373268
    22  H    0.000641   0.000350  -0.000324  -0.001541   0.013254  -0.014754
    23  H    0.006099  -0.002714   0.001077   0.005983   0.026276  -0.001925
    24  H    0.031914   0.014377  -0.001389  -0.012260  -0.012514  -0.001460
    25  H    0.031914   0.014377  -0.001389  -0.012260  -0.012514  -0.001460
               7          8          9         10         11         12
     1  C   -0.029470   0.406086  -1.301142  -1.199687   0.221681  -1.708603
     2  C    0.004355  -0.025148  -0.769546   0.213796  -0.941512   1.219092
     3  C   -0.015094  -0.095730   0.282311  -0.348063   1.011268  -1.340054
     4  C   -0.027797  -0.000101  -0.258686  -2.563544  -0.206889  -1.396477
     5  C   -1.010483   1.862021  -0.320023  -2.510208  -1.480568  -0.297349
     6  C    0.367810  -0.559818   0.281762  -0.371982  -0.172225  -0.212325
     7  C    7.046026   0.405547  -0.757440   0.240483  -0.242437  -0.195898
     8  C    0.405547   8.545213  -1.294100  -1.228762   0.135600  -1.051643
     9  C   -0.757440  -1.294100   9.680503   0.248654   1.828214  -2.045004
    10  C    0.240483  -1.228762   0.248654   9.294531  -0.592136   2.421811
    11  C   -0.242437   0.135600   1.828214  -0.592136  14.731346  -3.903908
    12  C   -0.195898  -1.051643  -2.045004   2.421811  -3.903908  16.046327
    13  C   -0.970014   0.219917   1.804221  -0.620241   1.089296  -4.878176
    14  C    1.310611  -1.811421  -1.993703   2.436932  -4.889018   2.893360
    15  H   -0.002783   0.005846   0.091478  -0.009312  -0.029098  -0.022434
    16  H    0.000361   0.000731   0.004778  -0.010257   0.030573  -0.036587
    17  H   -0.000393  -0.001346  -0.005896   0.020766  -0.028591   0.089031
    18  H    0.001919   0.007665  -0.025605   0.017990  -0.011736  -0.048587
    19  H   -0.007346  -0.047363   0.076816   0.422386   0.076941  -0.067774
    20  H    0.002919   0.048425  -0.026068   0.018856  -0.011596  -0.010658
    21  H   -0.016325  -0.022706  -0.006159   0.020954  -0.006403   0.005289
    22  H    0.376626  -0.019695   0.005050  -0.009953   0.003160  -0.008989
    23  H   -0.101647   0.363655   0.092686  -0.009838   0.002136   0.006662
    24  H    0.013951   0.030390   0.358590   0.005716   0.014736  -0.059185
    25  H    0.013951   0.030390   0.358590   0.005716   0.014736  -0.059185
              13         14         15         16         17         18
     1  C    0.131244  -1.072920   0.363310  -0.020078  -0.021011   0.047510
     2  C   -0.231637  -0.224724  -0.101364   0.377784  -0.018197   0.002995
     3  C   -0.188398  -0.190007  -0.002484  -0.016175   0.375006  -0.085452
     4  C   -1.503772  -0.334157   0.025550   0.014287  -0.066110   0.452269
     5  C   -0.214331  -1.402314   0.006199  -0.001580   0.000271   0.008133
     6  C    1.044784  -1.361500   0.001116  -0.000332   0.000393  -0.004890
     7  C   -0.970014   1.310611  -0.002783   0.000361  -0.000393   0.001919
     8  C    0.219917  -1.811421   0.005846   0.000731  -0.001346   0.007665
     9  C    1.804221  -1.993703   0.091478   0.004778  -0.005896  -0.025605
    10  C   -0.620241   2.436932  -0.009312  -0.010257   0.020766   0.017990
    11  C    1.089296  -4.889018  -0.029098   0.030573  -0.028591  -0.011736
    12  C   -4.878176   2.893360  -0.022434  -0.036587   0.089031  -0.048587
    13  C   14.721549  -3.813802   0.000735   0.003259  -0.006392  -0.011604
    14  C   -3.813802  16.013409   0.006936  -0.009347   0.005232  -0.012436
    15  H    0.000735   0.006936   0.437441  -0.008893   0.001486   0.000231
    16  H    0.003259  -0.009347  -0.008893   0.418634  -0.006721   0.001905
    17  H   -0.006392   0.005232   0.001486  -0.006721   0.422027  -0.010053
    18  H   -0.011604  -0.012436   0.000231   0.001905  -0.010053   0.451839
    19  H    0.078081  -0.061805   0.000299  -0.000533   0.001432  -0.005968
    20  H   -0.010881  -0.051188  -0.000112   0.000015  -0.000144   0.001304
    21  H   -0.029116   0.090890   0.000013  -0.000007   0.000010  -0.000137
    22  H    0.030795  -0.037120  -0.000125   0.000007  -0.000007   0.000013
    23  H   -0.029742  -0.025690   0.000623  -0.000126   0.000012  -0.000108
    24  H    0.011405  -0.059445  -0.000877   0.000624  -0.000139   0.000163
    25  H    0.011405  -0.059445  -0.000877   0.000624  -0.000139   0.000163
              19         20         21         22         23         24
     1  C   -0.046485   0.007621  -0.001324   0.000641   0.006099   0.031914
     2  C   -0.007495   0.001918  -0.000400   0.000350  -0.002714   0.014377
     3  C    0.050428  -0.004933   0.000389  -0.000324   0.001077  -0.001389
     4  C   -0.071765   0.008082   0.000334  -0.001541   0.005983  -0.012260
     5  C   -0.069219   0.450811  -0.065711   0.013254   0.026276  -0.012514
     6  C    0.050485  -0.085436   0.373268  -0.014754  -0.001925  -0.001460
     7  C   -0.007346   0.002919  -0.016325   0.376626  -0.101647   0.013951
     8  C   -0.047363   0.048425  -0.022706  -0.019695   0.363655   0.030390
     9  C    0.076816  -0.026068  -0.006159   0.005050   0.092686   0.358590
    10  C    0.422386   0.018856   0.020954  -0.009953  -0.009838   0.005716
    11  C    0.076941  -0.011596  -0.006403   0.003160   0.002136   0.014736
    12  C   -0.067774  -0.010658   0.005289  -0.008989   0.006662  -0.059185
    13  C    0.078081  -0.010881  -0.029116   0.030795  -0.029742   0.011405
    14  C   -0.061805  -0.051188   0.090890  -0.037120  -0.025690  -0.059445
    15  H    0.000299  -0.000112   0.000013  -0.000125   0.000623  -0.000877
    16  H   -0.000533   0.000015  -0.000007   0.000007  -0.000126   0.000624
    17  H    0.001432  -0.000144   0.000010  -0.000007   0.000012  -0.000139
    18  H   -0.005968   0.001304  -0.000137   0.000013  -0.000108   0.000163
    19  H    0.442507  -0.006115   0.001349  -0.000515   0.000270   0.000636
    20  H   -0.006115   0.453344  -0.010117   0.001893   0.000207   0.000175
    21  H    0.001349  -0.010117   0.422761  -0.006574   0.001428  -0.000141
    22  H   -0.000515   0.001893  -0.006574   0.419530  -0.008901   0.000626
    23  H    0.000270   0.000207   0.001428  -0.008901   0.438878  -0.000873
    24  H    0.000636   0.000175  -0.000141   0.000626  -0.000873   0.495311
    25  H    0.000636   0.000175  -0.000141   0.000626  -0.000873  -0.081468
              25
     1  C    0.031914
     2  C    0.014377
     3  C   -0.001389
     4  C   -0.012260
     5  C   -0.012514
     6  C   -0.001460
     7  C    0.013951
     8  C    0.030390
     9  C    0.358590
    10  C    0.005716
    11  C    0.014736
    12  C   -0.059185
    13  C    0.011405
    14  C   -0.059445
    15  H   -0.000877
    16  H    0.000624
    17  H   -0.000139
    18  H    0.000163
    19  H    0.000636
    20  H    0.000175
    21  H   -0.000141
    22  H    0.000626
    23  H   -0.000873
    24  H   -0.081468
    25  H    0.495311
 Mulliken charges:
               1
     1  C    0.089937
     2  C   -0.405753
     3  C   -0.439566
     4  C    0.032351
     5  C    0.027030
     6  C   -0.440757
     7  C   -0.407431
     8  C    0.096346
     9  C   -0.310281
    10  C    0.105393
    11  C   -0.643571
    12  C    0.661266
    13  C   -0.638585
    14  C    0.652675
    15  H    0.237096
    16  H    0.257054
    17  H    0.249474
    18  H    0.222476
    19  H    0.190117
    20  H    0.221503
    21  H    0.248577
    22  H    0.255927
    23  H    0.236446
    24  H    0.251138
    25  H    0.251138
 Sum of Mulliken charges =   1.00000
 Mulliken charges with hydrogens summed into heavy atoms:
               1
     1  C    0.327033
     2  C   -0.148699
     3  C   -0.190092
     4  C    0.254827
     5  C    0.248533
     6  C   -0.192181
     7  C   -0.151504
     8  C    0.332792
     9  C    0.191995
    10  C    0.295510
    11  C   -0.643571
    12  C    0.661266
    13  C   -0.638585
    14  C    0.652675
 Electronic spatial extent (au):  <R**2>=           2852.8932
 Charge=              1.0000 electrons
 Dipole moment (field-independent basis, Debye):
    X=              0.1392    Y=              0.1797    Z=             -0.0000  Tot=              0.2273
 Quadrupole moment (field-independent basis, Debye-Ang):
   XX=            -31.1677   YY=            -56.2474   ZZ=            -84.1396
   XY=              0.1766   XZ=              0.0000   YZ=              0.0000
 Traceless Quadrupole moment (field-independent basis, Debye-Ang):
   XX=             26.0172   YY=              0.9375   ZZ=            -26.9547
   XY=              0.1766   XZ=              0.0000   YZ=              0.0000
 Octapole moment (field-independent basis, Debye-Ang**2):
  XXX=              1.5153  YYY=              5.1212  ZZZ=             -0.0000  XYY=              0.2850
  XXY=             -5.1643  XXZ=             -0.0000  XZZ=              0.2164  YZZ=             -3.0482
  YYZ=             -0.0000  XYZ=             -0.0000
 Hexadecapole moment (field-independent basis, Debye-Ang**3):
 XXXX=          -2121.4283 YYYY=           -608.2735 ZZZZ=            -99.3047 XXXY=             -3.1192
 XXXZ=             -0.0000 YYYX=             -4.8758 YYYZ=              0.0000 ZZZX=              0.0000
 ZZZY=              0.0000 XXYY=           -507.0741 XXZZ=           -590.0725 YYZZ=           -145.6117
 XXYZ=             -0.0000 YYXZ=             -0.0000 ZZXY=             -2.3795
 N-N= 7.816450719294D+02 E-N=-2.799647303820D+03  KE= 5.375300259039D+02
 Symmetry A'   KE= 5.228826779081D+02
 Symmetry A"   KE= 1.464734799586D+01
 Unable to Open any file for archive entry.
 1\1\GINC-GADI-CPU-CLX-1762\SP\RM062X TD-FC\6-311++G(d,p)\C14H11(1+)\TS
 1578\02-Aug-2022\0\\#n M062X/6-311++G(d,p) TD(NStates=1) EmpiricalDisp
 ersion=GD3 SP\\SP_-100\\1,1\C,0,2.484955,1.361931,0.\C,0,3.695258,0.67
 1014,0.\C,0,3.681361,-0.71468,0.\C,0,2.466831,-1.409363,0.\C,0,-2.4590
 31,-1.404813,0.\C,0,-3.683661,-0.70848,0.\C,0,-3.703483,0.674539,0.\C,
 0,-2.491805,1.361631,0.\C,0,-0.002075,1.443469,0.\C,0,0.0061,-1.428739
 ,0.\C,0,1.26263,0.678865,0.\C,0,1.240871,-0.731779,0.\C,0,-1.260805,0.
 67504,0.\C,0,-1.235871,-0.731179,0.\H,0,2.482071,2.445222,0.\H,0,4.630
 003,1.211939,0.\H,0,4.609312,-1.269424,0.\H,0,2.47005,-2.491934,0.\H,0
 ,0.005625,-2.510041,0.\H,0,-2.4664,-2.487509,0.\H,0,-4.607862,-1.26964
 9,0.\H,0,-4.638328,1.214814,0.\H,0,-2.484171,2.444997,0.\H,0,-0.008,2.
 143537,-0.85711\H,0,-0.008,2.143537,0.85711\\Version=ES64L-G16RevC.01\
 State=1-A'\HF=-539.759919\RMSD=4.630e-09\PG=CS [SG(C14H9),X(H2)]\\@
 The archive entry for this job was punched.


 SUCCESS IS NEVER CERTAIN,
 FAILURE IS NEVER FINAL.
 Job cpu time:       0 days  0 hours 51 minutes 38.3 seconds.
 Elapsed time:       0 days  0 hours  1 minutes  4.7 seconds.
 File lengths (MBytes):  RWF=    460 Int=      0 D2E=      0 Chk=     15 Scr=      1
 Normal termination of Gaussian 16 at Tue Aug  2 11:03:38 2022.
