 Entering Gaussian System, Link 0=g16
 Initial command:
 /apps/gaussian/g16c01/g16/l1.exe "/jobfs/53796104.gadi-pbs/Gau-3612103.inp" -scrdir="/jobfs/53796104.gadi-pbs/"
 Entering Link 1 = /apps/gaussian/g16c01/g16/l1.exe PID=   3612104.
  
 Copyright (c) 1988-2019, Gaussian, Inc.  All Rights Reserved.
  
 This is part of the Gaussian(R) 16 program.  It is based on
 the Gaussian(R) 09 system (copyright 2009, Gaussian, Inc.),
 the Gaussian(R) 03 system (copyright 2003, Gaussian, Inc.),
 the Gaussian(R) 98 system (copyright 1998, Gaussian, Inc.),
 the Gaussian(R) 94 system (copyright 1995, Gaussian, Inc.),
 the Gaussian 92(TM) system (copyright 1992, Gaussian, Inc.),
 the Gaussian 90(TM) system (copyright 1990, Gaussian, Inc.),
 the Gaussian 88(TM) system (copyright 1988, Gaussian, Inc.),
 the Gaussian 86(TM) system (copyright 1986, Carnegie Mellon
 University), and the Gaussian 82(TM) system (copyright 1983,
 Carnegie Mellon University). Gaussian is a federally registered
 trademark of Gaussian, Inc.
  
 This software contains proprietary and confidential information,
 including trade secrets, belonging to Gaussian, Inc.
  
 This software is provided under written license and may be
 used, copied, transmitted, or stored only in accord with that
 written license.
  
 The following legend is applicable only to US Government
 contracts under FAR:
  
                    RESTRICTED RIGHTS LEGEND
  
 Use, reproduction and disclosure by the US Government is
 subject to restrictions as set forth in subparagraphs (a)
 and (c) of the Commercial Computer Software - Restricted
 Rights clause in FAR 52.227-19.
  
 Gaussian, Inc.
 340 Quinnipiac St., Bldg. 40, Wallingford CT 06492
  
  
 ---------------------------------------------------------------
 Warning -- This program may not be used in any manner that
 competes with the business of Gaussian, Inc. or will provide
 assistance to any competitor of Gaussian, Inc.  The licensee
 of this program is prohibited from giving any competitor of
 Gaussian, Inc. access to this program.  By using this program,
 the user acknowledges that Gaussian, Inc. is engaged in the
 business of creating and licensing software in the field of
 computational chemistry and represents and warrants to the
 licensee that it is not a competitor of Gaussian, Inc. and that
 it will not use this program in any manner prohibited above.
 ---------------------------------------------------------------
  

 Cite this work as:
 Gaussian 16, Revision C.01,
 M. J. Frisch, G. W. Trucks, H. B. Schlegel, G. E. Scuseria, 
 M. A. Robb, J. R. Cheeseman, G. Scalmani, V. Barone, 
 G. A. Petersson, H. Nakatsuji, X. Li, M. Caricato, A. V. Marenich, 
 J. Bloino, B. G. Janesko, R. Gomperts, B. Mennucci, H. P. Hratchian, 
 J. V. Ortiz, A. F. Izmaylov, J. L. Sonnenberg, D. Williams-Young, 
 F. Ding, F. Lipparini, F. Egidi, J. Goings, B. Peng, A. Petrone, 
 T. Henderson, D. Ranasinghe, V. G. Zakrzewski, J. Gao, N. Rega, 
 G. Zheng, W. Liang, M. Hada, M. Ehara, K. Toyota, R. Fukuda, 
 J. Hasegawa, M. Ishida, T. Nakajima, Y. Honda, O. Kitao, H. Nakai, 
 T. Vreven, K. Throssell, J. A. Montgomery, Jr., J. E. Peralta, 
 F. Ogliaro, M. J. Bearpark, J. J. Heyd, E. N. Brothers, K. N. Kudin, 
 V. N. Staroverov, T. A. Keith, R. Kobayashi, J. Normand, 
 K. Raghavachari, A. P. Rendell, J. C. Burant, S. S. Iyengar, 
 J. Tomasi, M. Cossi, J. M. Millam, M. Klene, C. Adamo, R. Cammi, 
 J. W. Ochterski, R. L. Martin, K. Morokuma, O. Farkas, 
 J. B. Foresman, and D. J. Fox, Gaussian, Inc., Wallingford CT, 2019.
 
 ******************************************
 Gaussian 16:  ES64L-G16RevC.01  3-Jul-2019
                 2-Aug-2022 
 ******************************************
 %NProcShared=48
 Will use up to   48 processors via shared memory.
 %mem = 190GB
 ---------------------------------------------------------------
 #n M062X/6-311++G(d,p) TD(NStates=1) EmpiricalDispersion=GD3 SP
 ---------------------------------------------------------------
 1/38=1,172=1/1;
 2/12=2,17=6,18=5,40=1/2;
 3/5=4,6=6,7=1111,11=9,25=1,30=1,74=-55,124=31/1,2,3,8;
 4//1;
 5/5=2,38=5/2;
 8/6=1,10=2,108=1/1;
 9/41=1,42=1,70=2/14;
 6/7=2,8=2,9=2,10=2/1;
 99/5=1,9=1/99;
 ------
 SP_-75
 ------
 Symbolic Z-matrix:
 Charge =  1 Multiplicity = 1
 C                     2.52101   1.35893   0. 
 C                     3.73488   0.68591   0. 
 C                     3.69336  -0.68953   0. 
 C                     2.43201  -1.38944   0. 
 C                    -2.49441  -1.42584   0. 
 C                    -3.67496  -0.73913   0. 
 C                    -3.66908   0.65771   0. 
 C                    -2.4662    1.36133   0. 
 C                     0.01748   1.45557   0. 
 C                    -0.0488   -1.42929   0. 
 C                     1.25483   0.66179   0. 
 C                     1.21727  -0.72825   0. 
 C                    -1.26943   0.69239   0. 
 C                    -1.25727  -0.73305   0. 
 H                     2.49757   2.44242   0. 
 H                     4.67063   1.22281   0. 
 H                     4.60361  -1.27387   0. 
 H                     2.4528   -2.47243   0. 
 H                    -0.045    -2.51032   0. 
 H                    -2.482    -2.50783   0. 
 H                    -4.61521  -1.27207   0. 
 H                    -4.60403   1.19981   0. 
 H                    -2.48077   2.44422   0. 
 H                     0.064     2.14629  -0.86014 
 H                     0.064     2.14629   0.86014 
 
                          Input orientation:                          
 ---------------------------------------------------------------------
 Center     Atomic      Atomic             Coordinates (Angstroms)
 Number     Number       Type             X           Y           Z
 ---------------------------------------------------------------------
      1          6           0        2.521005    1.358931    0.000000
      2          6           0        3.734883    0.685914    0.000000
      3          6           0        3.693361   -0.689530    0.000000
      4          6           0        2.432006   -1.389438    0.000000
      5          6           0       -2.494406   -1.425838    0.000000
      6          6           0       -3.674961   -0.739130    0.000000
      7          6           0       -3.669083    0.657714    0.000000
      8          6           0       -2.466205    1.361331    0.000000
      9          6           0        0.017475    1.455569    0.000000
     10          6           0       -0.048800   -1.429289    0.000000
     11          6           0        1.254830    0.661790    0.000000
     12          6           0        1.217271   -0.728254    0.000000
     13          6           0       -1.269430    0.692390    0.000000
     14          6           0       -1.257271   -0.733054    0.000000
     15          1           0        2.497571    2.442422    0.000000
     16          1           0        4.670628    1.222814    0.000000
     17          1           0        4.603612   -1.273874    0.000000
     18          1           0        2.452800   -2.472434    0.000000
     19          1           0       -0.045000   -2.510316    0.000000
     20          1           0       -2.482000   -2.507834    0.000000
     21          1           0       -4.615212   -1.272074    0.000000
     22          1           0       -4.604028    1.199814    0.000000
     23          1           0       -2.480771    2.444222    0.000000
     24          1           0        0.064000    2.146287   -0.860135
     25          1           0        0.064000    2.146287    0.860135
 ---------------------------------------------------------------------
                    Distance matrix (angstroms):
                    1          2          3          4          5
     1  C    0.000000
     2  C    1.387967   0.000000
     3  C    2.360214   1.376071   0.000000
     4  C    2.749810   2.450423   1.442528   0.000000
     5  C    5.736662   6.577502   6.231421   4.926546   0.000000
     6  C    6.541548   7.545630   7.368489   6.141494   1.365752
     7  C    6.229679   7.404020   7.484694   6.435380   2.391873
     8  C    4.987211   6.237762   6.492017   5.617758   2.787312
     9  C    2.505394   3.796247   4.256006   3.731491   3.822571
    10  C    3.791842   4.334783   3.814579   2.481126   2.445608
    11  C    1.445408   2.480170   2.787920   2.365012   4.291266
    12  C    2.460907   2.887601   2.476393   1.383020   3.776661
    13  C    3.848594   5.004317   5.151601   4.246721   2.446928
    14  C    4.318770   5.189901   4.950823   3.747213   1.417904
    15  H    1.083744   2.148549   3.352467   3.832421   6.315320
    16  H    2.153928   1.078833   2.147582   3.440245   7.638918
    17  H    3.356920   2.143702   1.081672   2.174679   7.099645
    18  H    3.831972   3.408651   2.172036   1.083196   5.056700
    19  H    4.642785   4.950091   4.158197   2.718810   2.678746
    20  H    6.323127   6.989253   6.437493   5.039669   1.082067
    21  H    7.605773   8.576585   8.328970   7.048195   2.126373
    22  H    7.126809   8.354731   8.509776   7.497333   3.368168
    23  H    5.118166   6.459567   6.923894   6.231559   3.870084
    24  H    2.719676   4.043254   4.685504   4.341502   4.477203
    25  H    2.719676   4.043254   4.685504   4.341502   4.477203
                    6          7          8          9         10
     6  C    0.000000
     7  C    1.396856   0.000000
     8  C    2.423433   1.393554   0.000000
     9  C    4.295438   3.771907   2.485467   0.000000
    10  C    3.691255   4.178759   3.692074   2.885619   0.000000
    11  C    5.124980   4.923915   3.786220   1.470079   2.464156
    12  C    4.892244   5.079110   4.234898   2.491705   1.447199
    13  C    2.799255   2.399904   1.371041   1.496184   2.447746
    14  C    2.417698   2.784075   2.418258   2.532795   1.394685
    15  H    6.944237   6.419720   5.080141   2.669224   4.634021
    16  H    8.573102   8.358835   7.138177   4.658971   5.413562
    17  H    8.295826   8.495205   7.544973   5.336901   4.655007
    18  H    6.368186   6.875702   6.236535   4.621690   2.710379
    19  H    4.039024   4.813563   4.566386   3.966377   1.081034
    20  H    2.133417   3.380808   3.869197   4.685716   2.661526
    21  H    1.080787   2.149242   3.398978   5.376042   4.569118
    22  H    2.150039   1.080738   2.143916   4.628574   5.259495
    23  H    3.399973   2.145623   1.082989   2.686758   4.573682
    24  H    4.800551   4.109938   2.785305   1.104123   3.679307
    25  H    4.800551   4.109938   2.785305   1.104123   3.679307
                   11         12         13         14         15
    11  C    0.000000
    12  C    1.390551   0.000000
    13  C    2.524445   2.863898   0.000000
    14  C    2.873368   2.474547   1.425496   0.000000
    15  H    2.171418   3.419408   4.153662   4.917569   0.000000
    16  H    3.461564   3.966402   5.963693   6.242228   2.491911
    17  H    3.867963   3.430016   6.193449   5.885783   4.271565
    18  H    3.355368   2.137451   4.885807   4.097569   4.915060
    19  H    3.428092   2.183821   3.428783   2.151339   5.567251
    20  H    4.900042   4.105059   3.422245   2.156341   7.021479
    21  H    6.180390   5.857781   3.879868   3.400928   8.024286
    22  H    5.883510   6.132289   3.372984   3.864811   7.209493
    23  H    4.139055   4.872383   2.129850   3.404708   4.978342
    24  H    2.088454   3.214475   2.152135   3.282711   2.598037
    25  H    2.088454   3.214475   2.152135   3.282711   2.598037
                   16         17         18         19         20
    16  H    0.000000
    17  H    2.497587   0.000000
    18  H    4.309712   2.462222   0.000000
    19  H    6.014433   4.810237   2.498087   0.000000
    20  H    8.067083   7.192257   4.934927   2.437001   0.000000
    21  H    9.615159   9.218824   7.169216   4.734985   2.465298
    22  H    9.274685   9.534137   7.955138   5.877908   4.271962
    23  H    7.254953   8.000795   6.965173   5.520908   4.952056
    24  H    4.776364   5.748514   5.270558   4.736630   5.374271
    25  H    4.776364   5.748514   5.270558   4.736630   5.374271
                   21         22         23         24         25
    21  H    0.000000
    22  H    2.471913   0.000000
    23  H    4.285638   2.461051   0.000000
    24  H    5.858332   4.840055   2.702676   0.000000
    25  H    5.858332   4.840055   2.702676   1.720270   0.000000
 Stoichiometry    C14H11(1+)
 Framework group  CS[SG(C14H9),X(H2)]
 Deg. of freedom    46
 Full point group                 CS      NOp   2
 Largest Abelian subgroup         CS      NOp   2
 Largest concise Abelian subgroup CS      NOp   2
                         Standard orientation:                         
 ---------------------------------------------------------------------
 Center     Atomic      Atomic             Coordinates (Angstroms)
 Number     Number       Type             X           Y           Z
 ---------------------------------------------------------------------
      1          6           0        2.460466    1.464435    0.000000
      2          6           0        2.506494    2.851639    0.000000
      3          6           0        1.305019    3.522481    0.000000
      4          6           0        0.056620    2.799718    0.000000
      5          6           0       -2.504963   -1.408506    0.000000
      6          6           0       -2.522128   -2.774150    0.000000
      7          6           0       -1.320600   -3.486568    0.000000
      8          6           0       -0.099054   -2.815883    0.000000
      9          6           0        1.257495   -0.733259    0.000000
     10          6           0       -1.251788    0.691625    0.000000
     11          6           0        1.211966    0.736115    0.000000
     12          6           0        0.000000    1.417857    0.000000
     13          6           0       -0.058314   -1.445448    0.000000
     14          6           0       -1.275117   -0.702864    0.000000
     15          1           0        3.378078    0.887815    0.000000
     16          1           0        3.447787    3.378751    0.000000
     17          1           0        1.271177    4.603624    0.000000
     18          1           0       -0.861923    3.373818    0.000000
     19          1           0       -2.177370    1.250133    0.000000
     20          1           0       -3.426957   -0.842116    0.000000
     21          1           0       -3.462341   -3.307161    0.000000
     22          1           0       -1.335688   -4.567200    0.000000
     23          1           0        0.822597   -3.384586    0.000000
     24          1           0        1.874036   -1.048114    0.860135
     25          1           0        1.874036   -1.048114   -0.860135
 ---------------------------------------------------------------------
 Rotational constants (GHZ):           2.1359280           0.4444386           0.3686896
 Standard basis: 6-311++G(d,p) (5D, 7F)
 There are   299 symmetry adapted cartesian basis functions of A'  symmetry.
 There are   100 symmetry adapted cartesian basis functions of A"  symmetry.
 There are   285 symmetry adapted basis functions of A'  symmetry.
 There are   100 symmetry adapted basis functions of A"  symmetry.
   385 basis functions,   603 primitive gaussians,   399 cartesian basis functions
    47 alpha electrons       47 beta electrons
       nuclear repulsion energy       781.1523672354 Hartrees.
 NAtoms=   25 NActive=   25 NUniq=   24 SFac= 1.09D+00 NAtFMM=   60 NAOKFM=F Big=F
 Integral buffers will be    131072 words long.
 Regular integral format.
 Two-electron integral symmetry is turned on.
 Nuclear repulsion after empirical dispersion term =      781.1513881472 Hartrees.
 One-electron integrals computed using PRISM.
 NBasis=   385 RedAO= T EigKep=  1.12D-06  NBF=   285   100
 NBsUse=   379 1.00D-06 EigRej=  8.37D-07 NBFU=   279   100
 ExpMin= 3.60D-02 ExpMax= 4.56D+03 ExpMxC= 6.82D+02 IAcc=3 IRadAn=         5 AccDes= 0.00D+00
 Harris functional with IExCor= 1009 and IRadAn=       5 diagonalized for initial guess.
 HarFok:  IExCor= 1009 AccDes= 0.00D+00 IRadAn=         5 IDoV= 1 UseB2=F ITyADJ=14
 ICtDFT=  3500011 ScaDFX=  1.000000  1.000000  1.000000  1.000000
 FoFCou: FMM=F IPFlag=           0 FMFlag=      100000 FMFlg1=           0
         NFxFlg=           0 DoJE=T BraDBF=F KetDBF=T FulRan=T
         wScrn=  0.000000 ICntrl=       500 IOpCl=  0 I1Cent=   200000004 NGrid=           0
         NMat0=    1 NMatS0=      1 NMatT0=    0 NMatD0=    1 NMtDS0=    0 NMtDT0=    0
 Petite list used in FoFCou.
 Initial guess orbital symmetries:
       Occupied  (A') (A') (A') (A') (A') (A') (A') (A') (A') (A')
                 (A') (A') (A') (A') (A') (A') (A') (A') (A') (A')
                 (A') (A') (A') (A') (A') (A') (A') (A') (A') (A')
                 (A') (A') (A") (A') (A') (A') (A') (A') (A") (A')
                 (A") (A') (A') (A") (A") (A") (A")
       Virtual   (A") (A") (A") (A") (A") (A') (A') (A') (A') (A")
                 (A") (A') (A') (A') (A") (A') (A') (A') (A') (A")
                 (A') (A") (A') (A') (A') (A") (A') (A") (A') (A')
                 (A') (A') (A') (A') (A") (A') (A") (A') (A') (A')
                 (A") (A') (A") (A') (A') (A') (A') (A') (A") (A')
                 (A') (A') (A") (A") (A') (A') (A') (A") (A") (A')
                 (A') (A') (A') (A') (A') (A') (A") (A') (A') (A")
                 (A') (A') (A') (A') (A') (A') (A') (A') (A') (A')
                 (A') (A') (A') (A') (A') (A') (A') (A') (A') (A')
                 (A') (A') (A') (A') (A') (A') (A') (A") (A') (A")
                 (A') (A') (A") (A") (A') (A") (A') (A") (A") (A')
                 (A") (A') (A') (A') (A") (A') (A') (A") (A") (A')
                 (A") (A") (A') (A') (A') (A") (A') (A') (A') (A")
                 (A') (A') (A') (A') (A') (A') (A") (A') (A') (A')
                 (A') (A') (A') (A') (A') (A') (A') (A') (A') (A")
                 (A") (A') (A") (A") (A') (A') (A') (A") (A") (A')
                 (A") (A') (A") (A") (A") (A') (A') (A') (A') (A')
                 (A') (A") (A') (A') (A") (A') (A') (A') (A') (A")
                 (A') (A') (A') (A') (A") (A") (A') (A') (A") (A")
                 (A") (A') (A') (A") (A') (A') (A') (A") (A') (A')
                 (A") (A") (A") (A') (A') (A") (A') (A") (A') (A')
                 (A") (A") (A') (A") (A') (A") (A') (A') (A') (A")
                 (A') (A') (A') (A') (A") (A') (A') (A') (A") (A")
                 (A') (A') (A') (A") (A') (A') (A") (A') (A") (A')
                 (A") (A') (A') (A') (A') (A") (A') (A') (A') (A")
                 (A') (A') (A') (A") (A") (A') (A') (A") (A') (A')
                 (A') (A") (A') (A") (A') (A') (A') (A") (A') (A")
                 (A') (A') (A') (A') (A") (A') (A") (A') (A") (A')
                 (A") (A') (A") (A") (A") (A') (A') (A') (A') (A')
                 (A') (A') (A') (A') (A') (A') (A') (A') (A') (A')
                 (A') (A') (A') (A') (A') (A") (A') (A') (A') (A')
                 (A') (A') (A') (A') (A') (A') (A') (A') (A') (A')
                 (A') (A') (A') (A') (A') (A') (A') (A') (A') (A')
                 (A') (A')
 The electronic state of the initial guess is 1-A'.
 Requested convergence on RMS density matrix=1.00D-08 within 128 cycles.
 Requested convergence on MAX density matrix=1.00D-06.
 Requested convergence on             energy=1.00D-06.
 No special actions if energy rises.
 SCF Done:  E(RM062X) =  -539.753301590     A.U. after   15 cycles
            NFock= 15  Conv=0.10D-07     -V/T= 2.0041
 DoSCS=F DFT=T ScalE2(SS,OS)=  1.000000  1.000000
 ExpMin= 3.60D-02 ExpMax= 4.56D+03 ExpMxC= 6.82D+02 IAcc=3 IRadAn=         5 AccDes= 0.00D+00
 HarFok:  IExCor=  205 AccDes= 0.00D+00 IRadAn=         5 IDoV=-2 UseB2=F ITyADJ=14
 ICtDFT= 12500011 ScaDFX=  1.000000  1.000000  1.000000  1.000000
 Range of M.O.s used for correlation:    15   379
 NBasis=   385 NAE=    47 NBE=    47 NFC=    14 NFV=     0
 NROrb=    365 NOA=    33 NOB=    33 NVA=   332 NVB=   332

 **** Warning!!: The largest alpha MO coefficient is  0.13952572D+03

 Orbital symmetries:
       Occupied  (A') (A') (A') (A') (A') (A') (A') (A') (A') (A')
                 (A') (A') (A') (A') (A') (A') (A') (A') (A') (A')
                 (A') (A') (A') (A') (A') (A') (A') (A') (A') (A')
                 (A') (A") (A') (A') (A') (A') (A') (A") (A") (A')
                 (A') (A') (A') (A") (A") (A") (A")
       Virtual   (A") (A") (A") (A") (A') (A') (A') (A') (A") (A')
                 (A') (A") (A') (A') (A") (A') (A") (A') (A') (A')
                 (A") (A") (A') (A') (A') (A") (A') (A") (A') (A')
                 (A") (A') (A") (A') (A') (A') (A') (A') (A") (A')
                 (A") (A') (A') (A") (A") (A') (A") (A') (A") (A')
                 (A') (A') (A') (A') (A') (A") (A') (A') (A') (A')
                 (A') (A") (A') (A') (A') (A") (A') (A') (A') (A')
                 (A') (A') (A') (A') (A') (A') (A') (A') (A') (A')
                 (A') (A') (A') (A') (A') (A') (A') (A') (A') (A')
                 (A') (A') (A') (A') (A") (A') (A") (A") (A') (A")
                 (A') (A') (A') (A') (A") (A") (A') (A") (A") (A')
                 (A') (A') (A") (A') (A") (A') (A') (A") (A') (A")
                 (A") (A') (A") (A') (A') (A') (A") (A') (A') (A')
                 (A') (A') (A') (A') (A') (A') (A') (A') (A') (A')
                 (A') (A') (A') (A") (A') (A') (A') (A') (A') (A')
                 (A') (A") (A') (A') (A") (A') (A") (A") (A') (A")
                 (A") (A') (A') (A") (A") (A') (A") (A") (A') (A')
                 (A') (A') (A") (A') (A") (A') (A') (A') (A') (A")
                 (A') (A') (A') (A") (A") (A') (A') (A") (A") (A')
                 (A") (A') (A') (A") (A") (A') (A') (A') (A') (A')
                 (A") (A") (A") (A') (A") (A') (A') (A") (A') (A')
                 (A') (A") (A') (A") (A") (A') (A") (A') (A') (A")
                 (A') (A') (A') (A') (A") (A') (A') (A') (A") (A")
                 (A') (A') (A') (A") (A') (A') (A') (A") (A") (A')
                 (A") (A') (A') (A") (A') (A') (A') (A') (A') (A')
                 (A") (A') (A') (A') (A') (A") (A") (A") (A') (A')
                 (A') (A') (A') (A') (A') (A') (A') (A") (A') (A')
                 (A') (A") (A') (A") (A") (A") (A') (A") (A') (A")
                 (A') (A") (A") (A') (A") (A") (A') (A') (A') (A')
                 (A') (A') (A') (A') (A') (A') (A') (A') (A') (A')
                 (A') (A') (A') (A") (A') (A') (A') (A') (A') (A')
                 (A') (A') (A') (A') (A') (A') (A') (A') (A') (A')
                 (A') (A') (A') (A') (A') (A') (A') (A') (A') (A')
                 (A') (A')
     4 initial guesses have been made.
 Convergence on wavefunction:    0.001000000000000
 Iteration     1 Dimension     4 NMult     0 NNew      4
 CISAX will form     4 AO SS matrices at one time.
 Iteration     2 Dimension     6 NMult     4 NNew      2
 Iteration     3 Dimension     8 NMult     6 NNew      2
 Iteration     4 Dimension    10 NMult     8 NNew      2
 Iteration     5 Dimension    12 NMult    10 NNew      2
 Iteration     6 Dimension    14 NMult    12 NNew      2
 ***********************************************************************
 Excited states from <AA,BB:AA,BB> singles matrix:
 ***********************************************************************
 
 Ground to excited state transition densities written to RWF  633
 Ground to excited state transition electric dipole moments (Au):
       state          X           Y           Z        Dip. S.      Osc.
         1         0.4934     -0.2293      0.0000      0.2960      0.0193
 Ground to excited state transition velocity dipole moments (Au):
       state          X           Y           Z        Dip. S.      Osc.
         1        -0.0520      0.0292     -0.0000      0.0036      0.0243
 Ground to excited state transition magnetic dipole moments (Au):
       state          X           Y           Z
         1         0.0000      0.0000      0.1751
 Ground to excited state transition velocity quadrupole moments (Au):
       state          XX          YY          ZZ          XY          XZ          YZ
         1         0.0054      0.2554     -0.0081      0.0536      0.0000      0.0000
 <0|del|b> * <b|rxdel|0> + <0|del|b> * <b|delr+rdel|0>
 Rotatory Strengths (R) in cgs (10**-40 erg-esu-cm/Gauss)
       state          XX          YY          ZZ    R(velocity)    E-M Angle
         1        -0.0000     -0.0000      0.0000     -0.0000       90.00
 1/2[<0|r|b>*<b|rxdel|0> + (<0|rxdel|b>*<b|r|0>)*]
 Rotatory Strengths (R) in cgs (10**-40 erg-esu-cm/Gauss)
       state          XX          YY          ZZ     R(length)
         1        -0.0000      0.0000     -0.0000     -0.0000
  1/2[<0|del|b>*<b|r|0> + (<0|r|b>*<b|del|0>)*] (Au)
       state          X           Y           Z        Dip. S.   Osc.(frdel)
         1        -0.0257     -0.0067     -0.0000      0.0323      0.0216

 Excitation energies and oscillator strengths:
 
 Excited State   1:      Singlet-A'     2.6544 eV  467.10 nm  f=0.0193  <S**2>=0.000
      47 -> 48         0.70350
 This state for optimization and/or second-order correction.
 Total Energy, E(TD-HF/TD-DFT) =  -539.655755929    
 Copying the excited state density for this state as the 1-particle RhoCI density.
 SavETr:  write IOETrn=   770 NScale= 10 NData=  16 NLR=1 NState=    1 LETran=      28.

 **********************************************************************

            Population analysis using the SCF Density.

 **********************************************************************

 Orbital symmetries:
       Occupied  (A') (A') (A') (A') (A') (A') (A') (A') (A') (A')
                 (A') (A') (A') (A') (A') (A') (A') (A') (A') (A')
                 (A') (A') (A') (A') (A') (A') (A') (A') (A') (A')
                 (A') (A") (A') (A') (A') (A') (A') (A") (A") (A')
                 (A') (A') (A') (A") (A") (A") (A")
       Virtual   (A") (A") (A") (A") (A') (A') (A') (A') (A") (A')
                 (A') (A") (A') (A') (A") (A') (A") (A') (A') (A')
                 (A") (A") (A') (A') (A') (A") (A') (A") (A') (A')
                 (A") (A') (A") (A') (A') (A') (A') (A') (A") (A')
                 (A") (A') (A') (A") (A") (A') (A") (A') (A") (A')
                 (A') (A') (A') (A') (A') (A") (A') (A') (A') (A')
                 (A') (A") (A') (A') (A') (A") (A') (A') (A') (A')
                 (A') (A') (A') (A') (A') (A') (A') (A') (A') (A')
                 (A') (A') (A') (A') (A') (A') (A') (A') (A') (A')
                 (A') (A') (A') (A') (A") (A') (A") (A") (A') (A")
                 (A') (A') (A') (A') (A") (A") (A') (A") (A") (A')
                 (A') (A') (A") (A') (A") (A') (A') (A") (A') (A")
                 (A") (A') (A") (A') (A') (A') (A") (A') (A') (A')
                 (A') (A') (A') (A') (A') (A') (A') (A') (A') (A')
                 (A') (A') (A') (A") (A') (A') (A') (A') (A') (A')
                 (A') (A") (A') (A') (A") (A') (A") (A") (A') (A")
                 (A") (A') (A') (A") (A") (A') (A") (A") (A') (A')
                 (A') (A') (A") (A') (A") (A') (A') (A') (A') (A")
                 (A') (A') (A') (A") (A") (A') (A') (A") (A") (A')
                 (A") (A') (A') (A") (A") (A') (A') (A') (A') (A')
                 (A") (A") (A") (A') (A") (A') (A') (A") (A') (A')
                 (A') (A") (A') (A") (A") (A') (A") (A') (A') (A")
                 (A') (A') (A') (A') (A") (A') (A') (A') (A") (A")
                 (A') (A') (A') (A") (A') (A') (A') (A") (A") (A')
                 (A") (A') (A') (A") (A') (A') (A') (A') (A') (A')
                 (A") (A') (A') (A') (A') (A") (A") (A") (A') (A')
                 (A') (A') (A') (A') (A') (A') (A') (A") (A') (A')
                 (A') (A") (A') (A") (A") (A") (A') (A") (A') (A")
                 (A') (A") (A") (A') (A") (A") (A') (A') (A') (A')
                 (A') (A') (A') (A') (A') (A') (A') (A') (A') (A')
                 (A') (A') (A') (A") (A') (A') (A') (A') (A') (A')
                 (A') (A') (A') (A') (A') (A') (A') (A') (A') (A')
                 (A') (A') (A') (A') (A') (A') (A') (A') (A') (A')
                 (A') (A')
 The electronic state is 1-A'.
 Alpha  occ. eigenvalues --  -10.77577 -10.73815 -10.72859 -10.72666 -10.72070
 Alpha  occ. eigenvalues --  -10.71931 -10.71883 -10.70991 -10.70796 -10.70234
 Alpha  occ. eigenvalues --  -10.70021 -10.69955 -10.69713 -10.69305  -1.16541
 Alpha  occ. eigenvalues --   -1.12466  -1.06937  -1.05850  -1.01283  -1.00422
 Alpha  occ. eigenvalues --   -0.95552  -0.91023  -0.86443  -0.85888  -0.83771
 Alpha  occ. eigenvalues --   -0.78327  -0.76140  -0.74362  -0.69801  -0.69324
 Alpha  occ. eigenvalues --   -0.68294  -0.68093  -0.68053  -0.65288  -0.64230
 Alpha  occ. eigenvalues --   -0.62726  -0.61561  -0.60483  -0.59237  -0.59169
 Alpha  occ. eigenvalues --   -0.56942  -0.55266  -0.54524  -0.52441  -0.47339
 Alpha  occ. eigenvalues --   -0.46126  -0.43759
 Alpha virt. eigenvalues --   -0.26110  -0.14666  -0.14076  -0.12760  -0.11191
 Alpha virt. eigenvalues --   -0.10093  -0.09261  -0.07958  -0.07925  -0.07485
 Alpha virt. eigenvalues --   -0.07211  -0.07134  -0.05647  -0.05573  -0.05354
 Alpha virt. eigenvalues --   -0.03852  -0.03666  -0.03272  -0.03133  -0.02156
 Alpha virt. eigenvalues --   -0.01346  -0.00958   0.00188   0.00593   0.00637
 Alpha virt. eigenvalues --    0.01065   0.01503   0.01932   0.02139   0.02305
 Alpha virt. eigenvalues --    0.02448   0.02674   0.02798   0.03243   0.03460
 Alpha virt. eigenvalues --    0.04219   0.04495   0.04727   0.05042   0.05393
 Alpha virt. eigenvalues --    0.06024   0.06288   0.06576   0.07053   0.07274
 Alpha virt. eigenvalues --    0.07906   0.08070   0.08348   0.08647   0.08907
 Alpha virt. eigenvalues --    0.09478   0.09589   0.09959   0.10808   0.10952
 Alpha virt. eigenvalues --    0.11131   0.12088   0.12248   0.12673   0.13034
 Alpha virt. eigenvalues --    0.13472   0.13525   0.13973   0.14317   0.15842
 Alpha virt. eigenvalues --    0.16379   0.16491   0.17326   0.17439   0.17775
 Alpha virt. eigenvalues --    0.18126   0.19068   0.19366   0.19674   0.19936
 Alpha virt. eigenvalues --    0.21469   0.21654   0.22653   0.23195   0.23569
 Alpha virt. eigenvalues --    0.23960   0.24532   0.25454   0.26949   0.27619
 Alpha virt. eigenvalues --    0.28856   0.29247   0.29931   0.31350   0.35758
 Alpha virt. eigenvalues --    0.36469   0.38219   0.39281   0.41035   0.41271
 Alpha virt. eigenvalues --    0.41973   0.42103   0.42982   0.43708   0.44405
 Alpha virt. eigenvalues --    0.44762   0.45133   0.45871   0.46418   0.47889
 Alpha virt. eigenvalues --    0.48382   0.48769   0.49044   0.50538   0.51068
 Alpha virt. eigenvalues --    0.51214   0.52088   0.52147   0.52750   0.54128
 Alpha virt. eigenvalues --    0.54166   0.54591   0.55628   0.55981   0.57598
 Alpha virt. eigenvalues --    0.58219   0.58986   0.61512   0.62273   0.62435
 Alpha virt. eigenvalues --    0.63155   0.63471   0.64914   0.65165   0.67480
 Alpha virt. eigenvalues --    0.70314   0.70465   0.71243   0.72530   0.72915
 Alpha virt. eigenvalues --    0.75545   0.76059   0.76444   0.76729   0.77123
 Alpha virt. eigenvalues --    0.77874   0.78025   0.78295   0.79927   0.80389
 Alpha virt. eigenvalues --    0.81235   0.81531   0.82454   0.82987   0.85248
 Alpha virt. eigenvalues --    0.87023   0.88080   0.88163   0.89347   0.90648
 Alpha virt. eigenvalues --    0.91037   0.91464   0.93322   0.94590   0.96252
 Alpha virt. eigenvalues --    0.96952   1.00116   1.01281   1.01495   1.02859
 Alpha virt. eigenvalues --    1.02890   1.03289   1.04903   1.06530   1.08909
 Alpha virt. eigenvalues --    1.19586   1.22906   1.24142   1.24172   1.29044
 Alpha virt. eigenvalues --    1.29241   1.32326   1.34280   1.35744   1.35955
 Alpha virt. eigenvalues --    1.39303   1.39577   1.40797   1.42928   1.43401
 Alpha virt. eigenvalues --    1.43473   1.44261   1.46363   1.46579   1.47016
 Alpha virt. eigenvalues --    1.47715   1.48242   1.51784   1.53688   1.55726
 Alpha virt. eigenvalues --    1.55755   1.56275   1.56592   1.57827   1.61477
 Alpha virt. eigenvalues --    1.62927   1.63391   1.64249   1.66077   1.68283
 Alpha virt. eigenvalues --    1.68374   1.68729   1.69866   1.74419   1.76034
 Alpha virt. eigenvalues --    1.77169   1.78092   1.79787   1.79977   1.80901
 Alpha virt. eigenvalues --    1.82784   1.83189   1.83609   1.83807   1.84188
 Alpha virt. eigenvalues --    1.84632   1.85414   1.86465   1.88390   1.91432
 Alpha virt. eigenvalues --    1.92167   1.94046   1.95369   1.97811   1.98156
 Alpha virt. eigenvalues --    1.99819   2.02375   2.04563   2.07329   2.11705
 Alpha virt. eigenvalues --    2.12191   2.14293   2.15281   2.19055   2.21191
 Alpha virt. eigenvalues --    2.22727   2.28450   2.30296   2.34432   2.34759
 Alpha virt. eigenvalues --    2.36382   2.38578   2.39703   2.42327   2.44581
 Alpha virt. eigenvalues --    2.46103   2.46458   2.49157   2.52957   2.53778
 Alpha virt. eigenvalues --    2.54264   2.56882   2.57932   2.58448   2.59392
 Alpha virt. eigenvalues --    2.59932   2.61522   2.62138   2.63574   2.63709
 Alpha virt. eigenvalues --    2.64845   2.65047   2.65063   2.65635   2.67922
 Alpha virt. eigenvalues --    2.68361   2.70921   2.71482   2.73381   2.74808
 Alpha virt. eigenvalues --    2.76277   2.78320   2.79628   2.83131   2.83245
 Alpha virt. eigenvalues --    2.84853   2.86260   2.92119   2.97135   2.99398
 Alpha virt. eigenvalues --    3.00163   3.04920   3.09276   3.11160   3.14261
 Alpha virt. eigenvalues --    3.20497   3.21936   3.26104   3.28797   3.30753
 Alpha virt. eigenvalues --    3.32825   3.34845   3.44025   3.46293   3.46787
 Alpha virt. eigenvalues --    3.48286   3.50017   3.56416   3.65896   3.66964
 Alpha virt. eigenvalues --    3.67974   3.93550   3.94000   3.95354   3.96555
 Alpha virt. eigenvalues --    4.03904   4.06414   4.07681   4.12534   4.35213
 Alpha virt. eigenvalues --    4.60781   4.69027   4.71083  23.45207  23.59988
 Alpha virt. eigenvalues --   23.79728  23.81988  23.84866  23.89181  23.92028
 Alpha virt. eigenvalues --   23.95216  23.95983  23.97765  24.03810  24.06541
 Alpha virt. eigenvalues --   24.11492  24.13478
          Condensed to atoms (all electrons):
               1          2          3          4          5          6
     1  C    9.055367  -0.072400  -0.356384   2.325046  -0.099565  -0.107409
     2  C   -0.072400   7.219507   0.224680  -1.228025   0.019823  -0.012911
     3  C   -0.356384   0.224680   6.603612   0.840169  -0.143424   0.016884
     4  C    2.325046  -1.228025   0.840169  10.680689  -0.393978  -0.111814
     5  C   -0.099565   0.019823  -0.143424  -0.393978  11.609487   0.713550
     6  C   -0.107409  -0.012911   0.016884  -0.111814   0.713550   6.612302
     7  C    0.001914  -0.000380  -0.015217  -0.040699  -0.991538   0.426607
     8  C    0.409342  -0.033619  -0.084297  -0.004078   1.749775  -0.658606
     9  C   -1.107460  -0.784396   0.295842  -0.429252   0.074646   0.295702
    10  C   -1.410119   0.363555  -0.446054  -2.359491  -2.812738  -0.251062
    11  C    0.300535  -0.991118   1.119042  -0.338697  -1.602036  -0.231335
    12  C   -2.704364   1.806768  -1.528758  -1.663530  -0.478467  -0.106276
    13  C    0.308311  -0.313754  -0.102711  -1.409847  -0.345197   0.871760
    14  C   -1.053794  -0.060468  -0.296567  -0.210062  -1.673614  -1.342695
    15  H    0.371315  -0.109344   0.001802   0.030312   0.004325   0.000963
    16  H   -0.016224   0.373108  -0.011636   0.009615  -0.001290  -0.000292
    17  H   -0.033890  -0.006420   0.367168  -0.066212   0.000479   0.000383
    18  H    0.054886   0.001675  -0.084238   0.454589   0.005842  -0.005309
    19  H   -0.048560  -0.007458   0.051892  -0.060645  -0.082621   0.051309
    20  H    0.006972   0.002147  -0.005041   0.005797   0.468742  -0.083413
    21  H   -0.001419  -0.000369   0.000416   0.000113  -0.070442   0.382056
    22  H    0.001091   0.000407  -0.000362  -0.001704   0.017445  -0.022257
    23  H    0.004735  -0.002925   0.001254   0.006455   0.024938  -0.003311
    24  H    0.027483   0.012788  -0.001841  -0.013305  -0.011079  -0.001280
    25  H    0.027483   0.012788  -0.001841  -0.013305  -0.011079  -0.001280
               7          8          9         10         11         12
     1  C    0.001914   0.409342  -1.107460  -1.410119   0.300535  -2.704364
     2  C   -0.000380  -0.033619  -0.784396   0.363555  -0.991118   1.806768
     3  C   -0.015217  -0.084297   0.295842  -0.446054   1.119042  -1.528758
     4  C   -0.040699  -0.004078  -0.429252  -2.359491  -0.338697  -1.663530
     5  C   -0.991538   1.749775   0.074646  -2.812738  -1.602036  -0.478467
     6  C    0.426607  -0.658606   0.295702  -0.251062  -0.231335  -0.106276
     7  C    7.201751   0.529615  -0.874669   0.150743  -0.208740  -0.305447
     8  C    0.529615   8.349494  -1.131915  -1.199683   0.203541  -1.155613
     9  C   -0.874669  -1.131915   9.623737   0.250002   1.432718  -1.693104
    10  C    0.150743  -1.199683   0.250002   9.096279  -0.474638   2.467657
    11  C   -0.208740   0.203541   1.432718  -0.474638  14.239359  -3.255245
    12  C   -0.305447  -1.155613  -1.693104   2.467657  -3.255245  15.856385
    13  C   -0.773830   0.344923   1.594672  -0.288752   1.060158  -4.809411
    14  C    1.019436  -1.811620  -2.115628   2.376804  -4.681105   3.129076
    15  H   -0.002231   0.006794   0.096030  -0.011399  -0.034526  -0.038095
    16  H    0.000311   0.000370   0.003883  -0.007697   0.025298  -0.032595
    17  H   -0.000420  -0.001224  -0.006446   0.020226  -0.026795   0.098068
    18  H    0.002046   0.006875  -0.026053   0.014301  -0.001663  -0.067426
    19  H   -0.008415  -0.043386   0.074608   0.422519   0.082357  -0.043827
    20  H    0.003717   0.047184  -0.022151   0.005954  -0.012426  -0.022471
    21  H   -0.023038  -0.019585  -0.004612   0.019952  -0.006306   0.005245
    22  H    0.383602  -0.020101   0.001427  -0.010441   0.003457  -0.010559
    23  H   -0.106413   0.367319   0.086895  -0.007559  -0.003991   0.007690
    24  H    0.016083   0.038471   0.356200   0.005416   0.000719  -0.060217
    25  H    0.016083   0.038471   0.356200   0.005416   0.000719  -0.060217
              13         14         15         16         17         18
     1  C    0.308311  -1.053794   0.371315  -0.016224  -0.033890   0.054886
     2  C   -0.313754  -0.060468  -0.109344   0.373108  -0.006420   0.001675
     3  C   -0.102711  -0.296567   0.001802  -0.011636   0.367168  -0.084238
     4  C   -1.409847  -0.210062   0.030312   0.009615  -0.066212   0.454589
     5  C   -0.345197  -1.673614   0.004325  -0.001290   0.000479   0.005842
     6  C    0.871760  -1.342695   0.000963  -0.000292   0.000383  -0.005309
     7  C   -0.773830   1.019436  -0.002231   0.000311  -0.000420   0.002046
     8  C    0.344923  -1.811620   0.006794   0.000370  -0.001224   0.006875
     9  C    1.594672  -2.115628   0.096030   0.003883  -0.006446  -0.026053
    10  C   -0.288752   2.376804  -0.011399  -0.007697   0.020226   0.014301
    11  C    1.060158  -4.681105  -0.034526   0.025298  -0.026795  -0.001663
    12  C   -4.809411   3.129076  -0.038095  -0.032595   0.098068  -0.067426
    13  C   14.553547  -4.117046   0.008120   0.002333  -0.006216  -0.012133
    14  C   -4.117046  16.336020   0.004347  -0.007418   0.005304  -0.007799
    15  H    0.008120   0.004347   0.445388  -0.008899   0.001195   0.000033
    16  H    0.002333  -0.007418  -0.008899   0.422669  -0.005860   0.001882
    17  H   -0.006216   0.005304   0.001195  -0.005860   0.425076  -0.010426
    18  H   -0.012133  -0.007799   0.000033   0.001882  -0.010426   0.459890
    19  H    0.076863  -0.089088   0.000220  -0.000474   0.001103  -0.006964
    20  H   -0.008785  -0.047758  -0.000101   0.000011  -0.000118   0.001253
    21  H   -0.024975   0.085223   0.000010  -0.000007   0.000010  -0.000170
    22  H    0.024211  -0.029177  -0.000132   0.000007  -0.000007   0.000020
    23  H   -0.029490  -0.011363   0.000557  -0.000124   0.000018  -0.000128
    24  H    0.025954  -0.059749  -0.000871   0.000634  -0.000151   0.000231
    25  H    0.025954  -0.059749  -0.000871   0.000634  -0.000151   0.000231
              19         20         21         22         23         24
     1  C   -0.048560   0.006972  -0.001419   0.001091   0.004735   0.027483
     2  C   -0.007458   0.002147  -0.000369   0.000407  -0.002925   0.012788
     3  C    0.051892  -0.005041   0.000416  -0.000362   0.001254  -0.001841
     4  C   -0.060645   0.005797   0.000113  -0.001704   0.006455  -0.013305
     5  C   -0.082621   0.468742  -0.070442   0.017445   0.024938  -0.011079
     6  C    0.051309  -0.083413   0.382056  -0.022257  -0.003311  -0.001280
     7  C   -0.008415   0.003717  -0.023038   0.383602  -0.106413   0.016083
     8  C   -0.043386   0.047184  -0.019585  -0.020101   0.367319   0.038471
     9  C    0.074608  -0.022151  -0.004612   0.001427   0.086895   0.356200
    10  C    0.422519   0.005954   0.019952  -0.010441  -0.007559   0.005416
    11  C    0.082357  -0.012426  -0.006306   0.003457  -0.003991   0.000719
    12  C   -0.043827  -0.022471   0.005245  -0.010559   0.007690  -0.060217
    13  C    0.076863  -0.008785  -0.024975   0.024211  -0.029490   0.025954
    14  C   -0.089088  -0.047758   0.085223  -0.029177  -0.011363  -0.059749
    15  H    0.000220  -0.000101   0.000010  -0.000132   0.000557  -0.000871
    16  H   -0.000474   0.000011  -0.000007   0.000007  -0.000124   0.000634
    17  H    0.001103  -0.000118   0.000010  -0.000007   0.000018  -0.000151
    18  H   -0.006964   0.001253  -0.000170   0.000020  -0.000128   0.000231
    19  H    0.444061  -0.005751   0.001769  -0.000616   0.000429   0.000589
    20  H   -0.005751   0.448051  -0.010084   0.001980   0.000235   0.000140
    21  H    0.001769  -0.010084   0.419464  -0.007112   0.001688  -0.000133
    22  H   -0.000616   0.001980  -0.007112   0.415699  -0.008881   0.000626
    23  H    0.000429   0.000235   0.001688  -0.008881   0.433746  -0.000942
    24  H    0.000589   0.000140  -0.000133   0.000626  -0.000942   0.493107
    25  H    0.000589   0.000140  -0.000133   0.000626  -0.000942  -0.078964
              25
     1  C    0.027483
     2  C    0.012788
     3  C   -0.001841
     4  C   -0.013305
     5  C   -0.011079
     6  C   -0.001280
     7  C    0.016083
     8  C    0.038471
     9  C    0.356200
    10  C    0.005416
    11  C    0.000719
    12  C   -0.060217
    13  C    0.025954
    14  C   -0.059749
    15  H   -0.000871
    16  H    0.000634
    17  H   -0.000151
    18  H    0.000231
    19  H    0.000589
    20  H    0.000140
    21  H   -0.000133
    22  H    0.000626
    23  H   -0.000942
    24  H   -0.078964
    25  H    0.493107
 Mulliken charges:
               1
     1  C    0.117107
     2  C   -0.413662
     3  C   -0.444392
     4  C   -0.008139
     5  C    0.028018
     6  C   -0.432264
     7  C   -0.400871
     8  C    0.071553
     9  C   -0.346874
    10  C    0.080809
    11  C   -0.599281
    12  C    0.664732
    13  C   -0.654659
    14  C    0.718489
    15  H    0.235059
    16  H    0.251762
    17  H    0.245304
    18  H    0.218555
    19  H    0.189498
    20  H    0.225774
    21  H    0.252436
    22  H    0.260752
    23  H    0.240110
    24  H    0.250091
    25  H    0.250091
 Sum of Mulliken charges =   1.00000
 Mulliken charges with hydrogens summed into heavy atoms:
               1
     1  C    0.352166
     2  C   -0.161899
     3  C   -0.199088
     4  C    0.210416
     5  C    0.253792
     6  C   -0.179828
     7  C   -0.140119
     8  C    0.311663
     9  C    0.153309
    10  C    0.270307
    11  C   -0.599281
    12  C    0.664732
    13  C   -0.654659
    14  C    0.718489
 Electronic spatial extent (au):  <R**2>=           2856.8183
 Charge=              1.0000 electrons
 Dipole moment (field-independent basis, Debye):
    X=             -0.7196    Y=             -0.8687    Z=              0.0000  Tot=              1.1280
 Quadrupole moment (field-independent basis, Debye-Ang):
   XX=            -49.1337   YY=            -38.1371   ZZ=            -84.1309
   XY=             11.4056   XZ=              0.0000   YZ=             -0.0000
 Traceless Quadrupole moment (field-independent basis, Debye-Ang):
   XX=              8.0002   YY=             18.9968   ZZ=            -26.9970
   XY=             11.4056   XZ=              0.0000   YZ=             -0.0000
 Octapole moment (field-independent basis, Debye-Ang**2):
  XXX=             -4.4695  YYY=            -14.4729  ZZZ=              0.0000  XYY=             -2.8615
  XXY=              2.1529  XXZ=              0.0000  XZZ=              1.8252  YZZ=             -2.9821
  YYZ=              0.0000  XYZ=             -0.0000
 Hexadecapole moment (field-independent basis, Debye-Ang**3):
 XXXX=          -1081.3331 YYYY=          -1774.9411 ZZZZ=            -99.3170 XXXY=           -367.7460
 XXXZ=              0.0000 YYYX=           -303.8995 YYYZ=             -0.0000 ZZZX=             -0.0000
 ZZZY=             -0.0000 XXYY=           -445.1418 XXZZ=           -266.3775 YYZZ=           -470.1797
 XXYZ=             -0.0000 YYXZ=              0.0000 ZZXY=           -197.8508
 N-N= 7.811513881472D+02 E-N=-2.798658602785D+03  KE= 5.375291037159D+02
 Symmetry A'   KE= 5.228747592693D+02
 Symmetry A"   KE= 1.465434444663D+01
 Unable to Open any file for archive entry.
 1\1\GINC-GADI-CPU-CLX-1762\SP\RM062X TD-FC\6-311++G(d,p)\C14H11(1+)\TS
 1578\02-Aug-2022\0\\#n M062X/6-311++G(d,p) TD(NStates=1) EmpiricalDisp
 ersion=GD3 SP\\SP_-75\\1,1\C,0,2.521005,1.358931,0.\C,0,3.734883,0.685
 914,0.\C,0,3.693361,-0.68953,0.\C,0,2.432006,-1.389438,0.\C,0,-2.49440
 6,-1.425838,0.\C,0,-3.674961,-0.73913,0.\C,0,-3.669083,0.657714,0.\C,0
 ,-2.466205,1.361331,0.\C,0,0.017475,1.455569,0.\C,0,-0.0488,-1.429289,
 0.\C,0,1.25483,0.66179,0.\C,0,1.217271,-0.728254,0.\C,0,-1.26943,0.692
 39,0.\C,0,-1.257271,-0.733054,0.\H,0,2.497571,2.442422,0.\H,0,4.670628
 ,1.222814,0.\H,0,4.603612,-1.273874,0.\H,0,2.4528,-2.472434,0.\H,0,-0.
 045,-2.510316,0.\H,0,-2.482,-2.507834,0.\H,0,-4.615212,-1.272074,0.\H,
 0,-4.604028,1.199814,0.\H,0,-2.480771,2.444222,0.\H,0,0.064,2.146287,-
 0.860135\H,0,0.064,2.146287,0.860135\\Version=ES64L-G16RevC.01\State=1
 -A'\HF=-539.7533016\RMSD=9.989e-09\PG=CS [SG(C14H9),X(H2)]\\@
 The archive entry for this job was punched.


 ACCORDING TO HEN3RY, LIFE IS MUCH LIKE A SEWER........
 YOU GET OUT OF IT JUST WHAT YOU PUT INTO IT...........
                         TOM LEHRER - (THE 3 IS SILENT)
 Job cpu time:       0 days  0 hours 51 minutes 44.7 seconds.
 Elapsed time:       0 days  0 hours  1 minutes  4.8 seconds.
 File lengths (MBytes):  RWF=    460 Int=      0 D2E=      0 Chk=     15 Scr=      1
 Normal termination of Gaussian 16 at Tue Aug  2 11:29:15 2022.
