 Entering Gaussian System, Link 0=g16
 Initial command:
 /apps/gaussian/g16c01/g16/l1.exe "/jobfs/53796104.gadi-pbs/Gau-3649403.inp" -scrdir="/jobfs/53796104.gadi-pbs/"
 Entering Link 1 = /apps/gaussian/g16c01/g16/l1.exe PID=   3649404.
  
 Copyright (c) 1988-2019, Gaussian, Inc.  All Rights Reserved.
  
 This is part of the Gaussian(R) 16 program.  It is based on
 the Gaussian(R) 09 system (copyright 2009, Gaussian, Inc.),
 the Gaussian(R) 03 system (copyright 2003, Gaussian, Inc.),
 the Gaussian(R) 98 system (copyright 1998, Gaussian, Inc.),
 the Gaussian(R) 94 system (copyright 1995, Gaussian, Inc.),
 the Gaussian 92(TM) system (copyright 1992, Gaussian, Inc.),
 the Gaussian 90(TM) system (copyright 1990, Gaussian, Inc.),
 the Gaussian 88(TM) system (copyright 1988, Gaussian, Inc.),
 the Gaussian 86(TM) system (copyright 1986, Carnegie Mellon
 University), and the Gaussian 82(TM) system (copyright 1983,
 Carnegie Mellon University). Gaussian is a federally registered
 trademark of Gaussian, Inc.
  
 This software contains proprietary and confidential information,
 including trade secrets, belonging to Gaussian, Inc.
  
 This software is provided under written license and may be
 used, copied, transmitted, or stored only in accord with that
 written license.
  
 The following legend is applicable only to US Government
 contracts under FAR:
  
                    RESTRICTED RIGHTS LEGEND
  
 Use, reproduction and disclosure by the US Government is
 subject to restrictions as set forth in subparagraphs (a)
 and (c) of the Commercial Computer Software - Restricted
 Rights clause in FAR 52.227-19.
  
 Gaussian, Inc.
 340 Quinnipiac St., Bldg. 40, Wallingford CT 06492
  
  
 ---------------------------------------------------------------
 Warning -- This program may not be used in any manner that
 competes with the business of Gaussian, Inc. or will provide
 assistance to any competitor of Gaussian, Inc.  The licensee
 of this program is prohibited from giving any competitor of
 Gaussian, Inc. access to this program.  By using this program,
 the user acknowledges that Gaussian, Inc. is engaged in the
 business of creating and licensing software in the field of
 computational chemistry and represents and warrants to the
 licensee that it is not a competitor of Gaussian, Inc. and that
 it will not use this program in any manner prohibited above.
 ---------------------------------------------------------------
  

 Cite this work as:
 Gaussian 16, Revision C.01,
 M. J. Frisch, G. W. Trucks, H. B. Schlegel, G. E. Scuseria, 
 M. A. Robb, J. R. Cheeseman, G. Scalmani, V. Barone, 
 G. A. Petersson, H. Nakatsuji, X. Li, M. Caricato, A. V. Marenich, 
 J. Bloino, B. G. Janesko, R. Gomperts, B. Mennucci, H. P. Hratchian, 
 J. V. Ortiz, A. F. Izmaylov, J. L. Sonnenberg, D. Williams-Young, 
 F. Ding, F. Lipparini, F. Egidi, J. Goings, B. Peng, A. Petrone, 
 T. Henderson, D. Ranasinghe, V. G. Zakrzewski, J. Gao, N. Rega, 
 G. Zheng, W. Liang, M. Hada, M. Ehara, K. Toyota, R. Fukuda, 
 J. Hasegawa, M. Ishida, T. Nakajima, Y. Honda, O. Kitao, H. Nakai, 
 T. Vreven, K. Throssell, J. A. Montgomery, Jr., J. E. Peralta, 
 F. Ogliaro, M. J. Bearpark, J. J. Heyd, E. N. Brothers, K. N. Kudin, 
 V. N. Staroverov, T. A. Keith, R. Kobayashi, J. Normand, 
 K. Raghavachari, A. P. Rendell, J. C. Burant, S. S. Iyengar, 
 J. Tomasi, M. Cossi, J. M. Millam, M. Klene, C. Adamo, R. Cammi, 
 J. W. Ochterski, R. L. Martin, K. Morokuma, O. Farkas, 
 J. B. Foresman, and D. J. Fox, Gaussian, Inc., Wallingford CT, 2019.
 
 ******************************************
 Gaussian 16:  ES64L-G16RevC.01  3-Jul-2019
                 2-Aug-2022 
 ******************************************
 %NProcShared=48
 Will use up to   48 processors via shared memory.
 %mem = 190GB
 ---------------------------------------------------------------
 #n M062X/6-311++G(d,p) TD(NStates=1) EmpiricalDispersion=GD3 SP
 ---------------------------------------------------------------
 1/38=1,172=1/1;
 2/12=2,17=6,18=5,40=1/2;
 3/5=4,6=6,7=1111,11=9,25=1,30=1,74=-55,124=31/1,2,3,8;
 4//1;
 5/5=2,38=5/2;
 8/6=1,10=2,108=1/1;
 9/41=1,42=1,70=2/14;
 6/7=2,8=2,9=2,10=2/1;
 99/5=1,9=1/99;
 -----
 SP_50
 -----
 Symbolic Z-matrix:
 Charge =  1 Multiplicity = 1
 C                     2.48676   1.36043   0. 
 C                     3.69376   0.66829   0. 
 C                     3.68186  -0.72053   0. 
 C                     2.47101  -1.41219   0. 
 C                    -2.45541  -1.40309   0. 
 C                    -3.68646  -0.70813   0. 
 C                    -3.71021   0.67534   0. 
 C                    -2.50046   1.35983   0. 
 C                    -0.0044    1.45557   0. 
 C                     0.0122   -1.42929   0. 
 C                     1.26396   0.68092   0. 
 C                     1.24227  -0.73125   0. 
 C                    -1.26031   0.67327   0. 
 C                    -1.23227  -0.73005   0. 
 H                     2.48707   2.44355   0. 
 H                     4.629     1.20844   0. 
 H                     4.61086  -1.27275   0. 
 H                     2.47105  -2.49456   0. 
 H                     0.01125  -2.51032   0. 
 H                    -2.46375  -2.48571   0. 
 H                    -4.60796  -1.2732    0. 
 H                    -4.64565   1.21419   0. 
 H                    -2.49127   2.4431    0. 
 H                    -0.016     2.14629  -0.86014 
 H                    -0.016     2.14629   0.86014 
 
                          Input orientation:                          
 ---------------------------------------------------------------------
 Center     Atomic      Atomic             Coordinates (Angstroms)
 Number     Number       Type             X           Y           Z
 ---------------------------------------------------------------------
      1          6           0        2.486755    1.360431    0.000000
      2          6           0        3.693758    0.668289    0.000000
      3          6           0        3.681861   -0.720530    0.000000
      4          6           0        2.471006   -1.412188    0.000000
      5          6           0       -2.455406   -1.403088    0.000000
      6          6           0       -3.686461   -0.708130    0.000000
      7          6           0       -3.710208    0.675339    0.000000
      8          6           0       -2.500455    1.359831    0.000000
      9          6           0       -0.004400    1.455569    0.000000
     10          6           0        0.012200   -1.429289    0.000000
     11          6           0        1.263955    0.680915    0.000000
     12          6           0        1.242271   -0.731254    0.000000
     13          6           0       -1.260305    0.673265    0.000000
     14          6           0       -1.232271   -0.730054    0.000000
     15          1           0        2.487071    2.443547    0.000000
     16          1           0        4.629003    1.208439    0.000000
     17          1           0        4.610862   -1.272749    0.000000
     18          1           0        2.471050   -2.494559    0.000000
     19          1           0        0.011250   -2.510316    0.000000
     20          1           0       -2.463750   -2.485709    0.000000
     21          1           0       -4.607962   -1.273199    0.000000
     22          1           0       -4.645653    1.214189    0.000000
     23          1           0       -2.491271    2.443097    0.000000
     24          1           0       -0.016000    2.146287   -0.860135
     25          1           0       -0.016000    2.146287    0.860135
 ---------------------------------------------------------------------
                    Distance matrix (angstroms):
                    1          2          3          4          5
     1  C    0.000000
     2  C    1.391372   0.000000
     3  C    2.399724   1.388870   0.000000
     4  C    2.772664   2.413194   1.394475   0.000000
     5  C    5.662331   6.488669   6.175106   4.926420   0.000000
     6  C    6.510571   7.507474   7.368332   6.197588   1.413670
     7  C    6.234717   7.403969   7.522708   6.524199   2.427836
     8  C    4.987210   6.232696   6.522954   5.692057   2.763286
     9  C    2.492971   3.781029   4.280646   3.788359   3.765548
    10  C    3.729070   4.237181   3.737479   2.458865   2.467745
    11  C    1.398922   2.429836   2.794695   2.416206   4.263416
    12  C    2.433904   2.822855   2.439614   1.404799   3.758214
    13  C    3.809548   4.954065   5.134946   4.274552   2.395727
    14  C    4.266296   5.120657   4.914141   3.765577   1.396078
    15  H    1.083116   2.146540   3.382145   3.855768   6.262961
    16  H    2.147633   1.080021   2.148953   3.394796   7.550425
    17  H    3.383115   2.146790   1.080735   2.144394   7.067470
    18  H    3.855022   3.390962   2.147846   1.082371   5.045917
    19  H    4.594650   4.864606   4.083714   2.693749   2.703765
    20  H    6.268995   6.918281   6.394090   5.050175   1.082653
    21  H    7.567762   8.525722   8.308225   7.080332   2.156471
    22  H    7.133907   8.357259   8.549306   7.585822   3.412817
    23  H    5.094400   6.434635   6.936577   6.283901   3.846352
    24  H    2.760649   4.084925   4.757378   4.425808   4.391878
    25  H    2.760649   4.084925   4.757378   4.425808   4.391878
                    6          7          8          9         10
     6  C    0.000000
     7  C    1.383673   0.000000
     8  C    2.383920   1.389975   0.000000
     9  C    4.270734   3.787053   2.497890   0.000000
    10  C    3.768310   4.276188   3.754015   2.884906   0.000000
    11  C    5.141601   4.974166   3.825142   1.486208   2.453539
    12  C    4.928786   5.148354   4.287264   2.517217   1.414329
    13  C    2.791861   2.449904   1.417514   1.479627   2.457642
    14  C    2.454288   2.848737   2.444567   2.506913   1.427458
    15  H    6.931491   6.444597   5.103906   2.680210   4.596068
    16  H    8.533474   8.356233   7.131065   4.639989   5.317187
    17  H    8.316512   8.546067   7.582962   5.361377   4.601326
    18  H    6.411417   6.946669   6.290643   4.661691   2.679691
    19  H    4.113507   4.898739   4.613751   3.965916   1.081027
    20  H    2.157501   3.397923   3.845715   4.645651   2.691905
    21  H    1.080957   2.145405   3.372600   5.351538   4.622798
    22  H    2.148339   1.079545   2.150136   4.647526   5.355704
    23  H    3.370269   2.147272   1.083305   2.675769   4.611154
    24  H    4.728616   4.068254   2.744242   1.103204   3.677686
    25  H    4.728616   4.068254   2.744242   1.103204   3.677686
                   11         12         13         14         15
    11  C    0.000000
    12  C    1.412335   0.000000
    13  C    2.524272   2.869767   0.000000
    14  C    2.867399   2.474542   1.403599   0.000000
    15  H    2.145433   3.410116   4.144481   4.889299   0.000000
    16  H    3.406146   3.902866   5.913574   6.173515   2.472522
    17  H    3.875382   3.411836   6.185271   5.868281   4.280344
    18  H    3.397163   2.149219   4.894703   4.102202   4.938132
    19  H    3.428298   2.163440   3.428125   2.171561   5.538091
    20  H    4.891144   4.100330   3.380443   2.144496   6.986286
    21  H    6.188535   5.875281   3.872406   3.419108   8.009600
    22  H    5.933620   6.201000   3.428291   3.928264   7.237891
    23  H    4.148133   4.900596   2.155825   3.413791   4.978342
    24  H    2.127306   3.256274   2.111379   3.239211   2.663374
    25  H    2.127306   3.256274   2.111379   3.239211   2.663374
                   16         17         18         19         20
    16  H    0.000000
    17  H    2.481254   0.000000
    18  H    4.285902   2.464065   0.000000
    19  H    5.928978   4.763192   2.459850   0.000000
    20  H    7.997117   7.177841   4.934808   2.475122   0.000000
    21  H    9.564520   9.218824   7.183602   4.782006   2.463296
    22  H    9.274658   9.584776   8.025103   5.963110   4.295340
    23  H    7.226526   8.015473   7.000363   5.549677   4.928883
    24  H    4.816165   5.817000   5.335045   4.735454   5.309115
    25  H    4.816165   5.817000   5.335045   4.735454   5.309115
                   21         22         23         24         25
    21  H    0.000000
    22  H    2.487674   0.000000
    23  H    4.276826   2.480237   0.000000
    24  H    5.789545   4.800242   2.637213   0.000000
    25  H    5.789545   4.800242   2.637213   1.720270   0.000000
 Stoichiometry    C14H11(1+)
 Framework group  CS[SG(C14H9),X(H2)]
 Deg. of freedom    46
 Full point group                 CS      NOp   2
 Largest Abelian subgroup         CS      NOp   2
 Largest concise Abelian subgroup CS      NOp   2
                         Standard orientation:                         
 ---------------------------------------------------------------------
 Center     Atomic      Atomic             Coordinates (Angstroms)
 Number     Number       Type             X           Y           Z
 ---------------------------------------------------------------------
      1          6           0       -2.371858   -1.552396    0.000000
      2          6           0       -2.330178   -2.943144    0.000000
      3          6           0       -1.099629   -3.587122    0.000000
      4          6           0        0.081023   -2.845083    0.000000
      5          6           0        2.394533    1.504318    0.000000
      6          6           0        2.361704    2.917607    0.000000
      7          6           0        1.152670    3.590502    0.000000
      8          6           0       -0.021142    2.846058    0.000000
      9          6           0       -1.281831    0.689644    0.000000
     10          6           0        1.254801   -0.684466    0.000000
     11          6           0       -1.196287   -0.794099    0.000000
     12          6           0        0.059469   -1.440449    0.000000
     13          6           0        0.000000    1.428702    0.000000
     14          6           0        1.224521    0.742671    0.000000
     15          1           0       -3.327319   -1.042264    0.000000
     16          1           0       -3.247320   -3.513491    0.000000
     17          1           0       -1.050355   -4.666733    0.000000
     18          1           0        1.035657   -3.355181    0.000000
     19          1           0        2.208718   -1.193054    0.000000
     20          1           0        3.353341    1.001500    0.000000
     21          1           0        3.294348    3.464089    0.000000
     22          1           0        1.118224    4.669497    0.000000
     23          1           0       -0.980914    3.348439    0.000000
     24          1           0       -1.885580    1.025371    0.860135
     25          1           0       -1.885580    1.025371   -0.860135
 ---------------------------------------------------------------------
 Rotational constants (GHZ):           2.1355323           0.4445143           0.3687299
 Standard basis: 6-311++G(d,p) (5D, 7F)
 There are   299 symmetry adapted cartesian basis functions of A'  symmetry.
 There are   100 symmetry adapted cartesian basis functions of A"  symmetry.
 There are   285 symmetry adapted basis functions of A'  symmetry.
 There are   100 symmetry adapted basis functions of A"  symmetry.
   385 basis functions,   603 primitive gaussians,   399 cartesian basis functions
    47 alpha electrons       47 beta electrons
       nuclear repulsion energy       781.1014338223 Hartrees.
 NAtoms=   25 NActive=   25 NUniq=   24 SFac= 1.09D+00 NAtFMM=   60 NAOKFM=F Big=F
 Integral buffers will be    131072 words long.
 Regular integral format.
 Two-electron integral symmetry is turned on.
 Nuclear repulsion after empirical dispersion term =      781.1004543254 Hartrees.
 One-electron integrals computed using PRISM.
 NBasis=   385 RedAO= T EigKep=  1.13D-06  NBF=   285   100
 NBsUse=   379 1.00D-06 EigRej=  8.40D-07 NBFU=   279   100
 ExpMin= 3.60D-02 ExpMax= 4.56D+03 ExpMxC= 6.82D+02 IAcc=3 IRadAn=         5 AccDes= 0.00D+00
 Harris functional with IExCor= 1009 and IRadAn=       5 diagonalized for initial guess.
 HarFok:  IExCor= 1009 AccDes= 0.00D+00 IRadAn=         5 IDoV= 1 UseB2=F ITyADJ=14
 ICtDFT=  3500011 ScaDFX=  1.000000  1.000000  1.000000  1.000000
 FoFCou: FMM=F IPFlag=           0 FMFlag=      100000 FMFlg1=           0
         NFxFlg=           0 DoJE=T BraDBF=F KetDBF=T FulRan=T
         wScrn=  0.000000 ICntrl=       500 IOpCl=  0 I1Cent=   200000004 NGrid=           0
         NMat0=    1 NMatS0=      1 NMatT0=    0 NMatD0=    1 NMtDS0=    0 NMtDT0=    0
 Petite list used in FoFCou.
 Initial guess orbital symmetries:
       Occupied  (A') (A') (A') (A') (A') (A') (A') (A') (A') (A')
                 (A') (A') (A') (A') (A') (A') (A') (A') (A') (A')
                 (A') (A') (A') (A') (A') (A') (A') (A') (A') (A')
                 (A') (A') (A") (A') (A') (A') (A') (A') (A') (A")
                 (A") (A') (A') (A") (A") (A") (A")
       Virtual   (A") (A") (A") (A") (A") (A') (A') (A') (A') (A")
                 (A") (A') (A') (A') (A") (A') (A') (A') (A') (A")
                 (A') (A") (A') (A') (A') (A") (A') (A") (A') (A')
                 (A') (A') (A') (A") (A') (A') (A") (A') (A') (A")
                 (A') (A') (A') (A") (A') (A') (A') (A') (A') (A")
                 (A') (A') (A") (A") (A') (A') (A') (A") (A") (A')
                 (A') (A') (A') (A') (A') (A') (A") (A') (A') (A")
                 (A') (A') (A') (A') (A') (A') (A') (A') (A') (A')
                 (A') (A') (A') (A') (A') (A') (A') (A') (A') (A')
                 (A') (A') (A') (A') (A') (A') (A') (A") (A') (A")
                 (A') (A') (A") (A") (A') (A") (A') (A") (A') (A")
                 (A") (A') (A') (A') (A") (A') (A') (A") (A") (A')
                 (A") (A") (A') (A') (A') (A") (A') (A') (A') (A")
                 (A') (A') (A') (A') (A') (A') (A") (A') (A') (A')
                 (A') (A') (A') (A') (A') (A') (A') (A') (A') (A")
                 (A") (A') (A") (A") (A') (A') (A') (A") (A") (A')
                 (A") (A') (A") (A") (A") (A') (A') (A') (A') (A')
                 (A') (A") (A") (A') (A') (A') (A') (A') (A') (A")
                 (A') (A') (A') (A') (A') (A") (A") (A') (A") (A")
                 (A') (A") (A') (A") (A') (A') (A') (A") (A') (A')
                 (A") (A") (A") (A') (A') (A") (A') (A") (A') (A')
                 (A") (A") (A') (A") (A') (A") (A') (A') (A') (A")
                 (A') (A') (A') (A') (A") (A') (A') (A') (A") (A")
                 (A') (A') (A') (A") (A') (A') (A") (A') (A") (A')
                 (A") (A') (A') (A') (A') (A") (A') (A') (A') (A")
                 (A') (A') (A") (A') (A") (A') (A') (A") (A') (A')
                 (A') (A") (A') (A") (A') (A') (A') (A") (A') (A")
                 (A') (A') (A') (A') (A") (A') (A") (A') (A") (A')
                 (A") (A') (A") (A") (A") (A') (A') (A') (A') (A')
                 (A') (A') (A') (A') (A') (A') (A') (A') (A') (A')
                 (A') (A') (A') (A') (A') (A") (A') (A') (A') (A')
                 (A') (A') (A') (A') (A') (A') (A') (A') (A') (A')
                 (A') (A') (A') (A') (A') (A') (A') (A') (A') (A')
                 (A') (A')
 The electronic state of the initial guess is 1-A'.
 Requested convergence on RMS density matrix=1.00D-08 within 128 cycles.
 Requested convergence on MAX density matrix=1.00D-06.
 Requested convergence on             energy=1.00D-06.
 No special actions if energy rises.
 SCF Done:  E(RM062X) =  -539.759800398     A.U. after   15 cycles
            NFock= 15  Conv=0.58D-08     -V/T= 2.0042
 DoSCS=F DFT=T ScalE2(SS,OS)=  1.000000  1.000000
 ExpMin= 3.60D-02 ExpMax= 4.56D+03 ExpMxC= 6.82D+02 IAcc=3 IRadAn=         5 AccDes= 0.00D+00
 HarFok:  IExCor=  205 AccDes= 0.00D+00 IRadAn=         5 IDoV=-2 UseB2=F ITyADJ=14
 ICtDFT= 12500011 ScaDFX=  1.000000  1.000000  1.000000  1.000000
 Range of M.O.s used for correlation:    15   379
 NBasis=   385 NAE=    47 NBE=    47 NFC=    14 NFV=     0
 NROrb=    365 NOA=    33 NOB=    33 NVA=   332 NVB=   332

 **** Warning!!: The largest alpha MO coefficient is  0.14566502D+03

 Orbital symmetries:
       Occupied  (A') (A') (A') (A') (A') (A') (A') (A') (A') (A')
                 (A') (A') (A') (A') (A') (A') (A') (A') (A') (A')
                 (A') (A') (A') (A') (A') (A') (A') (A') (A') (A')
                 (A') (A') (A") (A') (A') (A') (A') (A") (A") (A')
                 (A') (A') (A') (A") (A") (A") (A")
       Virtual   (A") (A") (A") (A") (A') (A') (A') (A') (A") (A')
                 (A') (A") (A') (A') (A") (A') (A") (A') (A') (A')
                 (A") (A") (A') (A') (A') (A") (A') (A") (A') (A')
                 (A") (A') (A") (A') (A') (A') (A') (A') (A") (A')
                 (A") (A') (A') (A") (A") (A') (A") (A') (A") (A')
                 (A') (A') (A') (A') (A') (A") (A') (A') (A') (A')
                 (A') (A") (A') (A') (A') (A') (A") (A') (A') (A')
                 (A') (A') (A') (A') (A') (A') (A') (A') (A') (A')
                 (A') (A') (A') (A') (A') (A') (A') (A') (A') (A')
                 (A') (A') (A') (A') (A") (A') (A") (A") (A') (A")
                 (A') (A') (A') (A') (A") (A") (A') (A") (A") (A')
                 (A') (A') (A") (A') (A') (A") (A') (A") (A') (A")
                 (A") (A') (A") (A') (A') (A') (A") (A') (A') (A')
                 (A') (A') (A') (A') (A') (A') (A') (A') (A') (A')
                 (A') (A') (A') (A") (A') (A') (A') (A') (A') (A')
                 (A') (A') (A") (A') (A") (A') (A") (A") (A') (A")
                 (A") (A') (A') (A") (A") (A") (A') (A") (A') (A')
                 (A') (A') (A') (A") (A") (A') (A') (A') (A') (A")
                 (A') (A') (A') (A") (A') (A") (A') (A') (A") (A")
                 (A") (A') (A') (A") (A") (A') (A') (A') (A') (A')
                 (A") (A") (A") (A') (A') (A") (A') (A") (A') (A')
                 (A') (A") (A') (A") (A") (A') (A") (A') (A') (A")
                 (A') (A') (A') (A') (A") (A') (A') (A') (A") (A")
                 (A') (A') (A') (A") (A') (A') (A') (A") (A") (A')
                 (A") (A') (A') (A") (A') (A') (A') (A') (A') (A')
                 (A") (A') (A') (A') (A') (A") (A") (A") (A') (A')
                 (A') (A') (A') (A') (A') (A') (A") (A') (A') (A')
                 (A') (A") (A') (A") (A") (A") (A') (A") (A') (A")
                 (A') (A") (A") (A') (A") (A") (A') (A') (A') (A')
                 (A') (A') (A') (A') (A') (A') (A') (A') (A') (A')
                 (A') (A') (A') (A") (A') (A') (A') (A') (A') (A')
                 (A') (A') (A') (A') (A') (A') (A') (A') (A') (A')
                 (A') (A') (A') (A') (A') (A') (A') (A') (A') (A')
                 (A') (A')
     4 initial guesses have been made.
 Convergence on wavefunction:    0.001000000000000
 Iteration     1 Dimension     4 NMult     0 NNew      4
 CISAX will form     4 AO SS matrices at one time.
 Iteration     2 Dimension     6 NMult     4 NNew      2
 Iteration     3 Dimension     8 NMult     6 NNew      2
 Iteration     4 Dimension    10 NMult     8 NNew      2
 Iteration     5 Dimension    12 NMult    10 NNew      2
 Iteration     6 Dimension    14 NMult    12 NNew      2
 ***********************************************************************
 Excited states from <AA,BB:AA,BB> singles matrix:
 ***********************************************************************
 
 Ground to excited state transition densities written to RWF  633
 Ground to excited state transition electric dipole moments (Au):
       state          X           Y           Z        Dip. S.      Osc.
         1        -0.5503      0.3078      0.0000      0.3976      0.0274
 Ground to excited state transition velocity dipole moments (Au):
       state          X           Y           Z        Dip. S.      Osc.
         1         0.0642     -0.0341     -0.0000      0.0053      0.0341
 Ground to excited state transition magnetic dipole moments (Au):
       state          X           Y           Z
         1         0.0000      0.0000     -0.0866
 Ground to excited state transition velocity quadrupole moments (Au):
       state          XX          YY          ZZ          XY          XZ          YZ
         1         0.1212      0.2036     -0.0097      0.1269      0.0000     -0.0000
 <0|del|b> * <b|rxdel|0> + <0|del|b> * <b|delr+rdel|0>
 Rotatory Strengths (R) in cgs (10**-40 erg-esu-cm/Gauss)
       state          XX          YY          ZZ    R(velocity)    E-M Angle
         1         0.0000      0.0000     -0.0000      0.0000       90.00
 1/2[<0|r|b>*<b|rxdel|0> + (<0|rxdel|b>*<b|r|0>)*]
 Rotatory Strengths (R) in cgs (10**-40 erg-esu-cm/Gauss)
       state          XX          YY          ZZ     R(length)
         1         0.0000     -0.0000      0.0000      0.0000
  1/2[<0|del|b>*<b|r|0> + (<0|r|b>*<b|del|0>)*] (Au)
       state          X           Y           Z        Dip. S.   Osc.(frdel)
         1        -0.0353     -0.0105     -0.0000      0.0458      0.0305

 Excitation energies and oscillator strengths:
 
 Excited State   1:      Singlet-A'     2.8087 eV  441.42 nm  f=0.0274  <S**2>=0.000
      47 -> 48         0.70410
 This state for optimization and/or second-order correction.
 Total Energy, E(TD-HF/TD-DFT) =  -539.656580823    
 Copying the excited state density for this state as the 1-particle RhoCI density.
 SavETr:  write IOETrn=   770 NScale= 10 NData=  16 NLR=1 NState=    1 LETran=      28.

 **********************************************************************

            Population analysis using the SCF Density.

 **********************************************************************

 Orbital symmetries:
       Occupied  (A') (A') (A') (A') (A') (A') (A') (A') (A') (A')
                 (A') (A') (A') (A') (A') (A') (A') (A') (A') (A')
                 (A') (A') (A') (A') (A') (A') (A') (A') (A') (A')
                 (A') (A') (A") (A') (A') (A') (A') (A") (A") (A')
                 (A') (A') (A') (A") (A") (A") (A")
       Virtual   (A") (A") (A") (A") (A') (A') (A') (A') (A") (A')
                 (A') (A") (A') (A') (A") (A') (A") (A') (A') (A')
                 (A") (A") (A') (A') (A') (A") (A') (A") (A') (A')
                 (A") (A') (A") (A') (A') (A') (A') (A') (A") (A')
                 (A") (A') (A') (A") (A") (A') (A") (A') (A") (A')
                 (A') (A') (A') (A') (A') (A") (A') (A') (A') (A')
                 (A') (A") (A') (A') (A') (A') (A") (A') (A') (A')
                 (A') (A') (A') (A') (A') (A') (A') (A') (A') (A')
                 (A') (A') (A') (A') (A') (A') (A') (A') (A') (A')
                 (A') (A') (A') (A') (A") (A') (A") (A") (A') (A")
                 (A') (A') (A') (A') (A") (A") (A') (A") (A") (A')
                 (A') (A') (A") (A') (A') (A") (A') (A") (A') (A")
                 (A") (A') (A") (A') (A') (A') (A") (A') (A') (A')
                 (A') (A') (A') (A') (A') (A') (A') (A') (A') (A')
                 (A') (A') (A') (A") (A') (A') (A') (A') (A') (A')
                 (A') (A') (A") (A') (A") (A') (A") (A") (A') (A")
                 (A") (A') (A') (A") (A") (A") (A') (A") (A') (A')
                 (A') (A') (A') (A") (A") (A') (A') (A') (A') (A")
                 (A') (A') (A') (A") (A') (A") (A') (A') (A") (A")
                 (A") (A') (A') (A") (A") (A') (A') (A') (A') (A')
                 (A") (A") (A") (A') (A') (A") (A') (A") (A') (A')
                 (A') (A") (A') (A") (A") (A') (A") (A') (A') (A")
                 (A') (A') (A') (A') (A") (A') (A') (A') (A") (A")
                 (A') (A') (A') (A") (A') (A') (A') (A") (A") (A')
                 (A") (A') (A') (A") (A') (A') (A') (A') (A') (A')
                 (A") (A') (A') (A') (A') (A") (A") (A") (A') (A')
                 (A') (A') (A') (A') (A') (A') (A") (A') (A') (A')
                 (A') (A") (A') (A") (A") (A") (A') (A") (A') (A")
                 (A') (A") (A") (A') (A") (A") (A') (A') (A') (A')
                 (A') (A') (A') (A') (A') (A') (A') (A') (A') (A')
                 (A') (A') (A') (A") (A') (A') (A') (A') (A') (A')
                 (A') (A') (A') (A') (A') (A') (A') (A') (A') (A')
                 (A') (A') (A') (A') (A') (A') (A') (A') (A') (A')
                 (A') (A')
 The electronic state is 1-A'.
 Alpha  occ. eigenvalues --  -10.77664 -10.73397 -10.73108 -10.72554 -10.72320
 Alpha  occ. eigenvalues --  -10.71505 -10.71263 -10.71231 -10.70986 -10.70748
 Alpha  occ. eigenvalues --  -10.70038 -10.69907 -10.69715 -10.69551  -1.16437
 Alpha  occ. eigenvalues --   -1.12458  -1.06945  -1.05718  -1.01311  -1.00187
 Alpha  occ. eigenvalues --   -0.95768  -0.91049  -0.86418  -0.85897  -0.83809
 Alpha  occ. eigenvalues --   -0.78393  -0.76024  -0.74413  -0.69584  -0.69248
 Alpha  occ. eigenvalues --   -0.68485  -0.68178  -0.68105  -0.64784  -0.64270
 Alpha  occ. eigenvalues --   -0.63017  -0.61846  -0.60075  -0.59618  -0.59101
 Alpha  occ. eigenvalues --   -0.56894  -0.55225  -0.54806  -0.52440  -0.46673
 Alpha  occ. eigenvalues --   -0.46067  -0.44445
 Alpha virt. eigenvalues --   -0.26094  -0.14667  -0.14097  -0.12773  -0.11178
 Alpha virt. eigenvalues --   -0.10085  -0.09232  -0.07981  -0.07969  -0.07476
 Alpha virt. eigenvalues --   -0.07202  -0.07143  -0.05644  -0.05580  -0.05333
 Alpha virt. eigenvalues --   -0.03828  -0.03648  -0.03279  -0.03134  -0.02165
 Alpha virt. eigenvalues --   -0.01365  -0.00931   0.00194   0.00593   0.00654
 Alpha virt. eigenvalues --    0.01058   0.01513   0.01942   0.02212   0.02292
 Alpha virt. eigenvalues --    0.02450   0.02669   0.02748   0.03320   0.03385
 Alpha virt. eigenvalues --    0.04240   0.04503   0.04699   0.05033   0.05367
 Alpha virt. eigenvalues --    0.06034   0.06293   0.06595   0.07041   0.07257
 Alpha virt. eigenvalues --    0.07892   0.08155   0.08359   0.08541   0.08927
 Alpha virt. eigenvalues --    0.09537   0.09565   0.10030   0.10861   0.11013
 Alpha virt. eigenvalues --    0.11119   0.12163   0.12243   0.12887   0.12981
 Alpha virt. eigenvalues --    0.13412   0.13525   0.14011   0.14382   0.16156
 Alpha virt. eigenvalues --    0.16332   0.16373   0.17344   0.17612   0.17798
 Alpha virt. eigenvalues --    0.18119   0.19076   0.19254   0.19626   0.19744
 Alpha virt. eigenvalues --    0.21538   0.21594   0.22718   0.23108   0.23555
 Alpha virt. eigenvalues --    0.23833   0.24582   0.25365   0.26921   0.27602
 Alpha virt. eigenvalues --    0.28840   0.29287   0.29855   0.31352   0.35800
 Alpha virt. eigenvalues --    0.36421   0.38186   0.39274   0.41147   0.41397
 Alpha virt. eigenvalues --    0.41955   0.42205   0.42984   0.43672   0.44299
 Alpha virt. eigenvalues --    0.44929   0.45039   0.46062   0.46195   0.47957
 Alpha virt. eigenvalues --    0.48518   0.48851   0.49031   0.50428   0.51121
 Alpha virt. eigenvalues --    0.51494   0.51739   0.52117   0.52883   0.53982
 Alpha virt. eigenvalues --    0.54093   0.54630   0.55681   0.55770   0.57513
 Alpha virt. eigenvalues --    0.58238   0.58823   0.61441   0.62209   0.62346
 Alpha virt. eigenvalues --    0.63204   0.63488   0.64942   0.65151   0.67240
 Alpha virt. eigenvalues --    0.70421   0.70603   0.71029   0.72412   0.72866
 Alpha virt. eigenvalues --    0.75761   0.76020   0.76291   0.76887   0.77096
 Alpha virt. eigenvalues --    0.77840   0.77873   0.78228   0.79890   0.80391
 Alpha virt. eigenvalues --    0.81235   0.81648   0.82161   0.83008   0.85177
 Alpha virt. eigenvalues --    0.87145   0.88158   0.88554   0.89140   0.90423
 Alpha virt. eigenvalues --    0.91060   0.91271   0.93197   0.94622   0.96419
 Alpha virt. eigenvalues --    0.96673   1.00391   1.01274   1.01681   1.02717
 Alpha virt. eigenvalues --    1.03199   1.03731   1.04744   1.05531   1.08764
 Alpha virt. eigenvalues --    1.19547   1.23252   1.24054   1.25166   1.28051
 Alpha virt. eigenvalues --    1.29683   1.31785   1.34324   1.35757   1.35997
 Alpha virt. eigenvalues --    1.39336   1.40114   1.40936   1.43034   1.43460
 Alpha virt. eigenvalues --    1.43515   1.44849   1.45684   1.46357   1.46668
 Alpha virt. eigenvalues --    1.47643   1.48012   1.51709   1.53624   1.55699
 Alpha virt. eigenvalues --    1.55823   1.56340   1.56582   1.57766   1.61426
 Alpha virt. eigenvalues --    1.63243   1.63473   1.63834   1.66097   1.68285
 Alpha virt. eigenvalues --    1.68354   1.68704   1.69750   1.74373   1.75983
 Alpha virt. eigenvalues --    1.77150   1.78050   1.79960   1.80109   1.80709
 Alpha virt. eigenvalues --    1.83122   1.83212   1.83595   1.83827   1.84176
 Alpha virt. eigenvalues --    1.84290   1.85805   1.86119   1.88226   1.91379
 Alpha virt. eigenvalues --    1.92062   1.94113   1.95192   1.97691   1.98143
 Alpha virt. eigenvalues --    1.99730   2.02353   2.04394   2.07263   2.11801
 Alpha virt. eigenvalues --    2.12048   2.14115   2.15225   2.19073   2.21209
 Alpha virt. eigenvalues --    2.22787   2.28639   2.30101   2.34608   2.34923
 Alpha virt. eigenvalues --    2.36230   2.38680   2.39600   2.42359   2.44759
 Alpha virt. eigenvalues --    2.46152   2.46420   2.49337   2.52894   2.53794
 Alpha virt. eigenvalues --    2.54187   2.56829   2.57841   2.58309   2.59611
 Alpha virt. eigenvalues --    2.59828   2.61589   2.62123   2.63530   2.63773
 Alpha virt. eigenvalues --    2.64779   2.65099   2.65191   2.65355   2.67904
 Alpha virt. eigenvalues --    2.68492   2.70946   2.71418   2.73342   2.74814
 Alpha virt. eigenvalues --    2.76302   2.78685   2.79704   2.82821   2.83061
 Alpha virt. eigenvalues --    2.84869   2.86264   2.92100   2.97020   2.99493
 Alpha virt. eigenvalues --    3.00051   3.04999   3.10858   3.11373   3.13167
 Alpha virt. eigenvalues --    3.20917   3.23390   3.26655   3.28237   3.30709
 Alpha virt. eigenvalues --    3.32796   3.33700   3.43446   3.45925   3.46528
 Alpha virt. eigenvalues --    3.48445   3.50085   3.56434   3.66104   3.66765
 Alpha virt. eigenvalues --    3.67441   3.94174   3.94492   3.95233   3.96221
 Alpha virt. eigenvalues --    4.03999   4.06844   4.07475   4.12552   4.35437
 Alpha virt. eigenvalues --    4.61191   4.69744   4.71579  23.45337  23.60466
 Alpha virt. eigenvalues --   23.82043  23.85145  23.87592  23.89128  23.90669
 Alpha virt. eigenvalues --   23.92768  23.97292  23.98807  24.00252  24.01221
 Alpha virt. eigenvalues --   24.10558  24.10818
          Condensed to atoms (all electrons):
               1          2          3          4          5          6
     1  C    8.535182   0.361098  -0.572890   1.941865  -0.025689  -0.092924
     2  C    0.361098   7.155971   0.373537  -1.064461  -0.023022  -0.014648
     3  C   -0.572890   0.373537   6.591983   0.754477  -0.121371   0.016917
     4  C    1.941865  -1.064461   0.754477  11.185324  -0.380369  -0.129060
     5  C   -0.025689  -0.023022  -0.121371  -0.380369  10.955959   0.785100
     6  C   -0.092924  -0.014648   0.016917  -0.129060   0.785100   6.588267
     7  C   -0.021120   0.000982  -0.014061  -0.008240  -1.123260   0.324734
     8  C    0.403588  -0.012379  -0.098778  -0.048751   2.086687  -0.499653
     9  C   -1.146501  -0.821940   0.296279  -0.142787  -0.269183   0.295769
    10  C   -1.268882   0.226487  -0.328219  -2.641874  -2.528775  -0.376580
    11  C    0.313419  -0.873912   0.973585  -0.288556  -1.483272  -0.157018
    12  C   -2.038574   1.271879  -1.384453  -1.637767  -0.301714  -0.222895
    13  C    0.213338  -0.231655  -0.189230  -1.533218  -0.289120   1.037364
    14  C   -1.098246  -0.223103  -0.175849  -0.370206  -1.637933  -1.430541
    15  H    0.367720  -0.106583  -0.001848   0.027016   0.005915   0.001140
    16  H   -0.019609   0.380505  -0.018264   0.014545  -0.001588  -0.000337
    17  H   -0.023708  -0.018193   0.376848  -0.068723   0.000270   0.000405
    18  H    0.049723   0.003111  -0.084482   0.460901   0.006019  -0.005076
    19  H   -0.045987  -0.007853   0.051234  -0.072782  -0.067358   0.051382
    20  H    0.007111   0.002054  -0.005147   0.006001   0.457525  -0.084631
    21  H   -0.001289  -0.000407   0.000397   0.000370  -0.067747   0.373141
    22  H    0.000628   0.000354  -0.000320  -0.001490   0.012565  -0.015573
    23  H    0.005942  -0.002559   0.001067   0.005404   0.028367  -0.000605
    24  H    0.034575   0.014963  -0.001499  -0.011961  -0.012485  -0.001637
    25  H    0.034575   0.014963  -0.001499  -0.011961  -0.012485  -0.001637
               7          8          9         10         11         12
     1  C   -0.021120   0.403588  -1.146501  -1.268882   0.313419  -2.038574
     2  C    0.000982  -0.012379  -0.821940   0.226487  -0.873912   1.271879
     3  C   -0.014061  -0.098778   0.296279  -0.328219   0.973585  -1.384453
     4  C   -0.008240  -0.048751  -0.142787  -2.641874  -0.288556  -1.637767
     5  C   -1.123260   2.086687  -0.269183  -2.528775  -1.483272  -0.301714
     6  C    0.324734  -0.499653   0.295769  -0.376580  -0.157018  -0.222895
     7  C    7.156685   0.215439  -0.798319   0.279719  -0.257121  -0.162730
     8  C    0.215439   8.700884  -1.139752  -1.322320   0.235524  -1.069326
     9  C   -0.798319  -1.139752   9.579638   0.261842   1.594866  -1.972712
    10  C    0.279719  -1.322320   0.261842   9.136469  -0.396082   2.415001
    11  C   -0.257121   0.235524   1.594866  -0.396082  14.477195  -3.852747
    12  C   -0.162730  -1.069326  -1.972712   2.415001  -3.852747  16.125746
    13  C   -0.929962   0.306340   1.553037  -0.444505   1.095829  -4.771913
    14  C    1.466340  -2.258341  -1.865968   2.439046  -4.801118   3.119654
    15  H   -0.002725   0.005434   0.090133  -0.009138  -0.029979  -0.021292
    16  H    0.000378   0.000808   0.002897  -0.009613   0.025931  -0.032091
    17  H   -0.000394  -0.001337  -0.005438   0.020329  -0.026814   0.090655
    18  H    0.002073   0.007145  -0.024175   0.010724  -0.007073  -0.052991
    19  H   -0.007598  -0.047360   0.075403   0.421884   0.077185  -0.071312
    20  H    0.002660   0.051613  -0.025144   0.012725  -0.011962  -0.012648
    21  H   -0.014063  -0.027303  -0.005908   0.020473  -0.006276   0.005341
    22  H    0.377929  -0.018685   0.003507  -0.008947   0.002901  -0.008692
    23  H   -0.107229   0.368646   0.092311  -0.010105   0.002982   0.006095
    24  H    0.014118   0.031787   0.355870   0.005296   0.016851  -0.060215
    25  H    0.014118   0.031787   0.355870   0.005296   0.016851  -0.060215
              13         14         15         16         17         18
     1  C    0.213338  -1.098246   0.367720  -0.019609  -0.023708   0.049723
     2  C   -0.231655  -0.223103  -0.106583   0.380505  -0.018193   0.003111
     3  C   -0.189230  -0.175849  -0.001848  -0.018264   0.376848  -0.084482
     4  C   -1.533218  -0.370206   0.027016   0.014545  -0.068723   0.460901
     5  C   -0.289120  -1.637933   0.005915  -0.001588   0.000270   0.006019
     6  C    1.037364  -1.430541   0.001140  -0.000337   0.000405  -0.005076
     7  C   -0.929962   1.466340  -0.002725   0.000378  -0.000394   0.002073
     8  C    0.306340  -2.258341   0.005434   0.000808  -0.001337   0.007145
     9  C    1.553037  -1.865968   0.090133   0.002897  -0.005438  -0.024175
    10  C   -0.444505   2.439046  -0.009138  -0.009613   0.020329   0.010724
    11  C    1.095829  -4.801118  -0.029979   0.025931  -0.026814  -0.007073
    12  C   -4.771913   3.119654  -0.021292  -0.032091   0.090655  -0.052991
    13  C   14.411378  -3.646076   0.000030   0.003158  -0.006286  -0.012052
    14  C   -3.646076  16.015862   0.006864  -0.009459   0.005295  -0.016283
    15  H    0.000030   0.006864   0.437731  -0.009025   0.001530   0.000192
    16  H    0.003158  -0.009459  -0.009025   0.418620  -0.006780   0.001938
    17  H   -0.006286   0.005295   0.001530  -0.006780   0.421736  -0.010245
    18  H   -0.012052  -0.016283   0.000192   0.001938  -0.010245   0.452312
    19  H    0.078778  -0.059933   0.000339  -0.000560   0.001504  -0.006082
    20  H   -0.005276  -0.058014  -0.000117   0.000016  -0.000150   0.001256
    21  H   -0.027410   0.094035   0.000015  -0.000007   0.000010  -0.000137
    22  H    0.026250  -0.033011  -0.000126   0.000008  -0.000007   0.000014
    23  H   -0.031197  -0.027863   0.000569  -0.000128   0.000013  -0.000110
    24  H    0.010493  -0.060423  -0.000923   0.000632  -0.000141   0.000172
    25  H    0.010493  -0.060423  -0.000923   0.000632  -0.000141   0.000172
              19         20         21         22         23         24
     1  C   -0.045987   0.007111  -0.001289   0.000628   0.005942   0.034575
     2  C   -0.007853   0.002054  -0.000407   0.000354  -0.002559   0.014963
     3  C    0.051234  -0.005147   0.000397  -0.000320   0.001067  -0.001499
     4  C   -0.072782   0.006001   0.000370  -0.001490   0.005404  -0.011961
     5  C   -0.067358   0.457525  -0.067747   0.012565   0.028367  -0.012485
     6  C    0.051382  -0.084631   0.373141  -0.015573  -0.000605  -0.001637
     7  C   -0.007598   0.002660  -0.014063   0.377929  -0.107229   0.014118
     8  C   -0.047360   0.051613  -0.027303  -0.018685   0.368646   0.031787
     9  C    0.075403  -0.025144  -0.005908   0.003507   0.092311   0.355870
    10  C    0.421884   0.012725   0.020473  -0.008947  -0.010105   0.005296
    11  C    0.077185  -0.011962  -0.006276   0.002901   0.002982   0.016851
    12  C   -0.071312  -0.012648   0.005341  -0.008692   0.006095  -0.060215
    13  C    0.078778  -0.005276  -0.027410   0.026250  -0.031197   0.010493
    14  C   -0.059933  -0.058014   0.094035  -0.033011  -0.027863  -0.060423
    15  H    0.000339  -0.000117   0.000015  -0.000126   0.000569  -0.000923
    16  H   -0.000560   0.000016  -0.000007   0.000008  -0.000128   0.000632
    17  H    0.001504  -0.000150   0.000010  -0.000007   0.000013  -0.000141
    18  H   -0.006082   0.001256  -0.000137   0.000014  -0.000110   0.000172
    19  H    0.442836  -0.006387   0.001337  -0.000524   0.000285   0.000588
    20  H   -0.006387   0.455300  -0.010343   0.001914   0.000141   0.000195
    21  H    0.001337  -0.010343   0.423156  -0.006466   0.001407  -0.000145
    22  H   -0.000524   0.001914  -0.006466   0.420402  -0.009030   0.000634
    23  H    0.000285   0.000141   0.001407  -0.009030   0.440651  -0.000906
    24  H    0.000588   0.000195  -0.000145   0.000634  -0.000906   0.493560
    25  H    0.000588   0.000195  -0.000145   0.000634  -0.000906  -0.079211
              25
     1  C    0.034575
     2  C    0.014963
     3  C   -0.001499
     4  C   -0.011961
     5  C   -0.012485
     6  C   -0.001637
     7  C    0.014118
     8  C    0.031787
     9  C    0.355870
    10  C    0.005296
    11  C    0.016851
    12  C   -0.060215
    13  C    0.010493
    14  C   -0.060423
    15  H   -0.000923
    16  H    0.000632
    17  H   -0.000141
    18  H    0.000172
    19  H    0.000588
    20  H    0.000195
    21  H   -0.000145
    22  H    0.000634
    23  H   -0.000906
    24  H   -0.079211
    25  H    0.493560
 Mulliken charges:
               1
     1  C    0.086653
     2  C   -0.405190
     3  C   -0.438414
     4  C    0.016301
     5  C    0.006964
     6  C   -0.441405
     7  C   -0.408352
     8  C    0.098305
     9  C   -0.339594
    10  C    0.089748
    11  C   -0.641188
    12  C    0.699915
    13  C   -0.628590
    14  C    0.685692
    15  H    0.238052
    16  H    0.257395
    17  H    0.249761
    18  H    0.222955
    19  H    0.190396
    20  H    0.221110
    21  H    0.247965
    22  H    0.255132
    23  H    0.236761
    24  H    0.249813
    25  H    0.249813
 Sum of Mulliken charges =   1.00000
 Mulliken charges with hydrogens summed into heavy atoms:
               1
     1  C    0.324706
     2  C   -0.147795
     3  C   -0.188653
     4  C    0.239256
     5  C    0.228075
     6  C   -0.193439
     7  C   -0.153220
     8  C    0.335065
     9  C    0.160032
    10  C    0.280144
    11  C   -0.641188
    12  C    0.699915
    13  C   -0.628590
    14  C    0.685692
 Electronic spatial extent (au):  <R**2>=           2856.6052
 Charge=              1.0000 electrons
 Dipole moment (field-independent basis, Debye):
    X=              0.0340    Y=             -0.3359    Z=              0.0000  Tot=              0.3376
 Quadrupole moment (field-independent basis, Debye-Ang):
   XX=            -50.7903   YY=            -36.5741   ZZ=            -84.1415
   XY=             10.3865   XZ=              0.0000   YZ=              0.0000
 Traceless Quadrupole moment (field-independent basis, Debye-Ang):
   XX=              6.3783   YY=             20.5946   ZZ=            -26.9729
   XY=             10.3865   XZ=              0.0000   YZ=              0.0000
 Octapole moment (field-independent basis, Debye-Ang**2):
  XXX=             -0.5336  YYY=              2.7467  ZZZ=              0.0000  XYY=             -1.1219
  XXY=             -5.9516  XXZ=              0.0000  XZZ=             -2.9233  YZZ=              1.1010
  YYZ=              0.0000  XYZ=             -0.0000
 Hexadecapole moment (field-independent basis, Debye-Ang**3):
 XXXX=           -997.1344 YYYY=          -1843.0243 ZZZZ=            -99.3333 XXXY=           -350.1796
 XXXZ=              0.0000 YYYX=           -277.0945 YYYZ=             -0.0000 ZZZX=              0.0000
 ZZZY=             -0.0000 XXYY=           -453.7954 XXZZ=           -243.8291 YYZZ=           -492.7930
 XXYZ=              0.0000 YYXZ=              0.0000 ZZXY=           -184.5209
 N-N= 7.811004543254D+02 E-N=-2.798540223315D+03  KE= 5.375020850054D+02
 Symmetry A'   KE= 5.228544567788D+02
 Symmetry A"   KE= 1.464762822671D+01
 Unable to Open any file for archive entry.
 1\1\GINC-GADI-CPU-CLX-1762\SP\RM062X TD-FC\6-311++G(d,p)\C14H11(1+)\TS
 1578\02-Aug-2022\0\\#n M062X/6-311++G(d,p) TD(NStates=1) EmpiricalDisp
 ersion=GD3 SP\\SP_50\\1,1\C,0,2.486755,1.360431,0.\C,0,3.693758,0.6682
 89,0.\C,0,3.681861,-0.72053,0.\C,0,2.471006,-1.412188,0.\C,0,-2.455406
 ,-1.403088,0.\C,0,-3.686461,-0.70813,0.\C,0,-3.710208,0.675339,0.\C,0,
 -2.500455,1.359831,0.\C,0,-0.0044,1.455569,0.\C,0,0.0122,-1.429289,0.\
 C,0,1.263955,0.680915,0.\C,0,1.242271,-0.731254,0.\C,0,-1.260305,0.673
 265,0.\C,0,-1.232271,-0.730054,0.\H,0,2.487071,2.443547,0.\H,0,4.62900
 3,1.208439,0.\H,0,4.610862,-1.272749,0.\H,0,2.47105,-2.494559,0.\H,0,0
 .01125,-2.510316,0.\H,0,-2.46375,-2.485709,0.\H,0,-4.607962,-1.273199,
 0.\H,0,-4.645653,1.214189,0.\H,0,-2.491271,2.443097,0.\H,0,-0.016,2.14
 6287,-0.860135\H,0,-0.016,2.146287,0.860135\\Version=ES64L-G16RevC.01\
 State=1-A'\HF=-539.7598004\RMSD=5.803e-09\PG=CS [SG(C14H9),X(H2)]\\@
 The archive entry for this job was punched.


 I HAVE NOT FAILED, I HAVE ONLY DISCOVERED 10,000
 WAYS THAT DIDN'T WORK.  -- THOMAS A. EDISON
 Job cpu time:       0 days  0 hours 51 minutes 44.7 seconds.
 Elapsed time:       0 days  0 hours  1 minutes  4.8 seconds.
 File lengths (MBytes):  RWF=    460 Int=      0 D2E=      0 Chk=     15 Scr=      1
 Normal termination of Gaussian 16 at Tue Aug  2 12:34:49 2022.
