 Entering Gaussian System, Link 0=g16
 Initial command:
 /apps/gaussian/g16c01/g16/l1.exe "/jobfs/53796104.gadi-pbs/Gau-3674153.inp" -scrdir="/jobfs/53796104.gadi-pbs/"
 Entering Link 1 = /apps/gaussian/g16c01/g16/l1.exe PID=   3674154.
  
 Copyright (c) 1988-2019, Gaussian, Inc.  All Rights Reserved.
  
 This is part of the Gaussian(R) 16 program.  It is based on
 the Gaussian(R) 09 system (copyright 2009, Gaussian, Inc.),
 the Gaussian(R) 03 system (copyright 2003, Gaussian, Inc.),
 the Gaussian(R) 98 system (copyright 1998, Gaussian, Inc.),
 the Gaussian(R) 94 system (copyright 1995, Gaussian, Inc.),
 the Gaussian 92(TM) system (copyright 1992, Gaussian, Inc.),
 the Gaussian 90(TM) system (copyright 1990, Gaussian, Inc.),
 the Gaussian 88(TM) system (copyright 1988, Gaussian, Inc.),
 the Gaussian 86(TM) system (copyright 1986, Carnegie Mellon
 University), and the Gaussian 82(TM) system (copyright 1983,
 Carnegie Mellon University). Gaussian is a federally registered
 trademark of Gaussian, Inc.
  
 This software contains proprietary and confidential information,
 including trade secrets, belonging to Gaussian, Inc.
  
 This software is provided under written license and may be
 used, copied, transmitted, or stored only in accord with that
 written license.
  
 The following legend is applicable only to US Government
 contracts under FAR:
  
                    RESTRICTED RIGHTS LEGEND
  
 Use, reproduction and disclosure by the US Government is
 subject to restrictions as set forth in subparagraphs (a)
 and (c) of the Commercial Computer Software - Restricted
 Rights clause in FAR 52.227-19.
  
 Gaussian, Inc.
 340 Quinnipiac St., Bldg. 40, Wallingford CT 06492
  
  
 ---------------------------------------------------------------
 Warning -- This program may not be used in any manner that
 competes with the business of Gaussian, Inc. or will provide
 assistance to any competitor of Gaussian, Inc.  The licensee
 of this program is prohibited from giving any competitor of
 Gaussian, Inc. access to this program.  By using this program,
 the user acknowledges that Gaussian, Inc. is engaged in the
 business of creating and licensing software in the field of
 computational chemistry and represents and warrants to the
 licensee that it is not a competitor of Gaussian, Inc. and that
 it will not use this program in any manner prohibited above.
 ---------------------------------------------------------------
  

 Cite this work as:
 Gaussian 16, Revision C.01,
 M. J. Frisch, G. W. Trucks, H. B. Schlegel, G. E. Scuseria, 
 M. A. Robb, J. R. Cheeseman, G. Scalmani, V. Barone, 
 G. A. Petersson, H. Nakatsuji, X. Li, M. Caricato, A. V. Marenich, 
 J. Bloino, B. G. Janesko, R. Gomperts, B. Mennucci, H. P. Hratchian, 
 J. V. Ortiz, A. F. Izmaylov, J. L. Sonnenberg, D. Williams-Young, 
 F. Ding, F. Lipparini, F. Egidi, J. Goings, B. Peng, A. Petrone, 
 T. Henderson, D. Ranasinghe, V. G. Zakrzewski, J. Gao, N. Rega, 
 G. Zheng, W. Liang, M. Hada, M. Ehara, K. Toyota, R. Fukuda, 
 J. Hasegawa, M. Ishida, T. Nakajima, Y. Honda, O. Kitao, H. Nakai, 
 T. Vreven, K. Throssell, J. A. Montgomery, Jr., J. E. Peralta, 
 F. Ogliaro, M. J. Bearpark, J. J. Heyd, E. N. Brothers, K. N. Kudin, 
 V. N. Staroverov, T. A. Keith, R. Kobayashi, J. Normand, 
 K. Raghavachari, A. P. Rendell, J. C. Burant, S. S. Iyengar, 
 J. Tomasi, M. Cossi, J. M. Millam, M. Klene, C. Adamo, R. Cammi, 
 J. W. Ochterski, R. L. Martin, K. Morokuma, O. Farkas, 
 J. B. Foresman, and D. J. Fox, Gaussian, Inc., Wallingford CT, 2019.
 
 ******************************************
 Gaussian 16:  ES64L-G16RevC.01  3-Jul-2019
                 2-Aug-2022 
 ******************************************
 %NProcShared=48
 Will use up to   48 processors via shared memory.
 %mem = 190GB
 ---------------------------------------------------------------
 #n M062X/6-311++G(d,p) TD(NStates=1) EmpiricalDispersion=GD3 SP
 ---------------------------------------------------------------
 1/38=1,172=1/1;
 2/12=2,17=6,18=5,40=1/2;
 3/5=4,6=6,7=1111,11=9,25=1,30=1,74=-55,124=31/1,2,3,8;
 4//1;
 5/5=2,38=5/2;
 8/6=1,10=2,108=1/1;
 9/41=1,42=1,70=2/14;
 6/7=2,8=2,9=2,10=2/1;
 99/5=1,9=1/99;
 ------
 SP_125
 ------
 Symbolic Z-matrix:
 Charge =  1 Multiplicity = 1
 C                     2.48181   1.36013   0. 
 C                     3.68648   0.66441   0. 
 C                     3.68016  -0.72773   0. 
 C                     2.47891  -1.41694   0. 
 C                    -2.44771  -1.39874   0. 
 C                    -3.68936  -0.70293   0. 
 C                    -3.71938   0.67851   0. 
 C                    -2.50921   1.35893   0. 
 C                    -0.00883   1.45997   0. 
 C                     0.0244   -1.42949   0. 
 C                     1.26593   0.68479   0. 
 C                     1.24687  -0.73155   0. 
 C                    -1.25863   0.66949   0. 
 C                    -1.22687  -0.72915   0. 
 H                     2.48717   2.44312   0. 
 H                     4.62183   1.20481   0. 
 H                     4.61261  -1.27377   0. 
 H                     2.4744   -2.49913   0. 
 H                     0.0225   -2.51042   0. 
 H                    -2.4598   -2.48143   0. 
 H                    -4.60681  -1.27467   0. 
 H                    -4.65513   1.21631   0. 
 H                    -2.49557   2.44222   0. 
 H                    -0.032     2.14729  -0.86124 
 H                    -0.032     2.14729   0.86124 
 
                          Input orientation:                          
 ---------------------------------------------------------------------
 Center     Atomic      Atomic             Coordinates (Angstroms)
 Number     Number       Type             X           Y           Z
 ---------------------------------------------------------------------
      1          6           0        2.481805    1.360131    0.000000
      2          6           0        3.686483    0.664414    0.000000
      3          6           0        3.680161   -0.727730    0.000000
      4          6           0        2.478906   -1.416938    0.000000
      5          6           0       -2.447706   -1.398738    0.000000
      6          6           0       -3.689361   -0.702930    0.000000
      7          6           0       -3.719383    0.678514    0.000000
      8          6           0       -2.509205    1.358931    0.000000
      9          6           0       -0.008825    1.459969    0.000000
     10          6           0        0.024400   -1.429489    0.000000
     11          6           0        1.265930    0.684790    0.000000
     12          6           0        1.246871   -0.731554    0.000000
     13          6           0       -1.258630    0.669490    0.000000
     14          6           0       -1.226871   -0.729154    0.000000
     15          1           0        2.487171    2.443122    0.000000
     16          1           0        4.621828    1.204814    0.000000
     17          1           0        4.612612   -1.273774    0.000000
     18          1           0        2.474400   -2.499134    0.000000
     19          1           0        0.022500   -2.510416    0.000000
     20          1           0       -2.459800   -2.481434    0.000000
     21          1           0       -4.606812   -1.274674    0.000000
     22          1           0       -4.655128    1.216314    0.000000
     23          1           0       -2.495571    2.442222    0.000000
     24          1           0       -0.032000    2.147287   -0.861235
     25          1           0       -0.032000    2.147287    0.861235
 ---------------------------------------------------------------------
                    Distance matrix (angstroms):
                    1          2          3          4          5
     1  C    0.000000
     2  C    1.391140   0.000000
     3  C    2.407326   1.392158   0.000000
     4  C    2.777071   2.406298   1.384926   0.000000
     5  C    5.649021   6.471852   6.164496   4.926646   0.000000
     6  C    6.506882   7.501513   7.369564   6.209455   1.423326
     7  C    6.238536   7.405879   7.531983   6.542913   2.435598
     8  C    4.991010   6.234493   6.531646   5.708476   2.758355
     9  C    2.492630   3.779975   4.288898   3.803341   3.757705
    10  C    3.717636   4.218445   3.722506   2.454538   2.472297
    11  C    1.390841   2.420639   2.797092   2.426638   4.258190
    12  C    2.429034   2.810771   2.433293   1.409844   3.754335
    13  C    3.803661   4.945116   5.132629   4.280462   2.385680
    14  C    4.256688   5.107160   4.907032   3.769062   1.392401
    15  H    1.083004   2.145263   3.387850   3.860069   6.254031
    16  H    2.145652   1.080233   2.149759   3.386104   7.533711
    17  H    3.387889   2.148089   1.080569   2.138504   7.061424
    18  H    3.859272   3.387799   2.142833   1.082205   5.043610
    19  H    4.585773   4.848125   4.068962   2.688796   2.708827
    20  H    6.259160   6.904575   6.385499   5.052125   1.082764
    21  H    7.562453   8.516972   8.305003   7.087146   2.162667
    22  H    7.138382   8.359849   8.558992   7.604502   3.422164
    23  H    5.093642   6.432604   6.941777   6.295914   3.841258
    24  H    2.771382   4.094845   4.773635   4.444106   4.376260
    25  H    2.771382   4.094845   4.773635   4.444106   4.376260
                    6          7          8          9         10
     6  C    0.000000
     7  C    1.381770   0.000000
     8  C    2.375719   1.388344   0.000000
     9  C    4.269014   3.791954   2.502421   0.000000
    10  C    3.784166   4.296462   3.767551   2.889649   0.000000
    11  C    5.145938   4.985317   3.834855   1.491946   2.451851
    12  C    4.936315   5.162555   4.298632   2.525776   1.407675
    13  C    2.791414   2.460770   1.428029   1.478807   2.460057
    14  C    2.462630   2.862542   2.450404   2.505174   1.433928
    15  H    6.931608   6.452531   5.112655   2.682645   4.589374
    16  H    8.527330   8.357798   7.132698   4.637677   5.298669
    17  H    8.321575   8.557661   7.592853   5.369453   4.590854
    18  H    6.420148   6.961350   6.302459   4.673425   2.673320
    19  H    4.128549   4.916397   4.624000   3.970509   1.080929
    20  H    2.162151   3.401738   3.840683   4.641329   2.697747
    21  H    1.081022   2.145338   3.366872   5.349744   4.633799
    22  H    2.148535   1.079281   2.150657   4.652687   5.375710
    23  H    3.364092   2.146714   1.083377   2.673710   4.619567
    24  H    4.716116   4.061504   2.738572   1.102120   3.679434
    25  H    4.716116   4.061504   2.738572   1.102120   3.679434
                   11         12         13         14         15
    11  C    0.000000
    12  C    1.416472   0.000000
    13  C    2.524606   2.870620   0.000000
    14  C    2.865885   2.473743   1.399005   0.000000
    15  H    2.140832   3.408359   4.144490   4.884408   0.000000
    16  H    3.395950   3.890997   5.904774   6.160155   2.467826
    17  H    3.877661   3.409137   6.184477   5.864825   4.281684
    18  H    3.405550   2.152015   4.896498   4.102711   4.942273
    19  H    3.428624   2.159499   3.428279   2.175735   5.532824
    20  H    4.889380   4.098962   3.372111   2.142568   6.980242
    21  H    6.191009   5.878825   3.871705   3.423681   8.009157
    22  H    5.944867   6.215125   3.440235   3.941801   7.246895
    23  H    4.151802   4.907008   2.161620   3.415732   4.982742
    24  H    2.136644   3.265725   2.104811   3.231618   2.678706
    25  H    2.136644   3.265725   2.104811   3.231618   2.678706
                   16         17         18         19         20
    16  H    0.000000
    17  H    2.478605   0.000000
    18  H    4.281434   2.464439   0.000000
    19  H    5.912424   4.753779   2.451926   0.000000
    20  H    7.983601   7.174779   4.934232   2.482469   0.000000
    21  H    9.555923   9.219424   7.186297   4.791408   2.462911
    22  H    9.276963   9.596434   8.039572   5.980696   4.300326
    23  H    7.224164   8.020903   7.008396   5.556015   4.923786
    24  H    4.825774   5.832478   5.349112   4.736971   5.297263
    25  H    4.825774   5.832478   5.349112   4.736971   5.297263
                   21         22         23         24         25
    21  H    0.000000
    22  H    2.491457   0.000000
    23  H    4.274653   2.483251   0.000000
    24  H    5.777581   4.793928   2.626384   0.000000
    25  H    5.777581   4.793928   2.626384   1.722470   0.000000
 Stoichiometry    C14H11(1+)
 Framework group  CS[SG(C14H9),X(H2)]
 Deg. of freedom    46
 Full point group                 CS      NOp   2
 Largest Abelian subgroup         CS      NOp   2
 Largest concise Abelian subgroup CS      NOp   2
                         Standard orientation:                         
 ---------------------------------------------------------------------
 Center     Atomic      Atomic             Coordinates (Angstroms)
 Number     Number       Type             X           Y           Z
 ---------------------------------------------------------------------
      1          6           0       -2.366684   -1.552409    0.000000
      2          6           0       -2.318364   -2.942709    0.000000
      3          6           0       -1.086392   -3.591054    0.000000
      4          6           0        0.086310   -2.854309    0.000000
      5          6           0        2.384397    1.503515    0.000000
      6          6           0        2.353366    2.926503    0.000000
      7          6           0        1.147912    3.601906    0.000000
      8          6           0       -0.021220    2.853154    0.000000
      9          6           0       -1.284910    0.693247    0.000000
     10          6           0        1.250333   -0.693336    0.000000
     11          6           0       -1.199357   -0.796244    0.000000
     12          6           0        0.059962   -1.444711    0.000000
     13          6           0        0.000000    1.425283    0.000000
     14          6           0        1.219823    0.740267    0.000000
     15          1           0       -3.325282   -1.048437    0.000000
     16          1           0       -3.234791   -3.514604    0.000000
     17          1           0       -1.042333   -4.670724    0.000000
     18          1           0        1.043802   -3.358666    0.000000
     19          1           0        2.205482   -1.199397    0.000000
     20          1           0        3.345895    1.005622    0.000000
     21          1           0        3.289058    3.467877    0.000000
     22          1           0        1.112678    4.680611    0.000000
     23          1           0       -0.983968    3.349967    0.000000
     24          1           0       -1.880797    1.036557    0.861235
     25          1           0       -1.880797    1.036557   -0.861235
 ---------------------------------------------------------------------
 Rotational constants (GHZ):           2.1341669           0.4442844           0.3685330
 Standard basis: 6-311++G(d,p) (5D, 7F)
 There are   299 symmetry adapted cartesian basis functions of A'  symmetry.
 There are   100 symmetry adapted cartesian basis functions of A"  symmetry.
 There are   285 symmetry adapted basis functions of A'  symmetry.
 There are   100 symmetry adapted basis functions of A"  symmetry.
   385 basis functions,   603 primitive gaussians,   399 cartesian basis functions
    47 alpha electrons       47 beta electrons
       nuclear repulsion energy       780.9126755275 Hartrees.
 NAtoms=   25 NActive=   25 NUniq=   24 SFac= 1.09D+00 NAtFMM=   60 NAOKFM=F Big=F
 Integral buffers will be    131072 words long.
 Regular integral format.
 Two-electron integral symmetry is turned on.
 Nuclear repulsion after empirical dispersion term =      780.9116960478 Hartrees.
 One-electron integrals computed using PRISM.
 NBasis=   385 RedAO= T EigKep=  1.13D-06  NBF=   285   100
 NBsUse=   379 1.00D-06 EigRej=  8.42D-07 NBFU=   279   100
 ExpMin= 3.60D-02 ExpMax= 4.56D+03 ExpMxC= 6.82D+02 IAcc=3 IRadAn=         5 AccDes= 0.00D+00
 Harris functional with IExCor= 1009 and IRadAn=       5 diagonalized for initial guess.
 HarFok:  IExCor= 1009 AccDes= 0.00D+00 IRadAn=         5 IDoV= 1 UseB2=F ITyADJ=14
 ICtDFT=  3500011 ScaDFX=  1.000000  1.000000  1.000000  1.000000
 FoFCou: FMM=F IPFlag=           0 FMFlag=      100000 FMFlg1=           0
         NFxFlg=           0 DoJE=T BraDBF=F KetDBF=T FulRan=T
         wScrn=  0.000000 ICntrl=       500 IOpCl=  0 I1Cent=   200000004 NGrid=           0
         NMat0=    1 NMatS0=      1 NMatT0=    0 NMatD0=    1 NMtDS0=    0 NMtDT0=    0
 Petite list used in FoFCou.
 Initial guess orbital symmetries:
       Occupied  (A') (A') (A') (A') (A') (A') (A') (A') (A') (A')
                 (A') (A') (A') (A') (A') (A') (A') (A') (A') (A')
                 (A') (A') (A') (A') (A') (A') (A') (A') (A') (A')
                 (A') (A') (A") (A') (A') (A') (A') (A') (A") (A')
                 (A") (A') (A') (A") (A") (A") (A")
       Virtual   (A") (A") (A") (A") (A") (A') (A') (A') (A') (A")
                 (A") (A') (A') (A') (A") (A') (A') (A') (A') (A")
                 (A') (A") (A') (A') (A') (A") (A') (A") (A') (A')
                 (A') (A') (A') (A') (A") (A') (A") (A') (A') (A')
                 (A") (A') (A') (A") (A') (A') (A') (A') (A') (A")
                 (A') (A') (A") (A") (A') (A') (A') (A") (A") (A')
                 (A') (A') (A') (A') (A') (A') (A") (A') (A') (A")
                 (A') (A') (A') (A') (A') (A') (A') (A') (A') (A')
                 (A') (A') (A') (A') (A') (A') (A') (A') (A') (A')
                 (A') (A') (A') (A') (A') (A') (A') (A") (A') (A")
                 (A') (A') (A") (A") (A') (A") (A') (A") (A') (A")
                 (A") (A') (A') (A') (A") (A') (A') (A") (A") (A')
                 (A") (A") (A') (A') (A') (A") (A') (A') (A') (A")
                 (A') (A') (A') (A') (A') (A') (A") (A') (A') (A')
                 (A') (A') (A') (A') (A') (A') (A') (A') (A') (A")
                 (A") (A') (A") (A") (A') (A') (A') (A") (A") (A')
                 (A") (A') (A") (A") (A") (A') (A') (A') (A') (A')
                 (A') (A") (A") (A') (A') (A') (A') (A') (A') (A")
                 (A') (A') (A') (A') (A') (A") (A") (A') (A") (A")
                 (A') (A") (A') (A") (A') (A') (A') (A") (A') (A')
                 (A") (A") (A") (A') (A') (A") (A') (A") (A') (A')
                 (A") (A") (A') (A") (A') (A") (A') (A') (A') (A")
                 (A') (A') (A') (A') (A") (A') (A') (A') (A") (A")
                 (A') (A') (A') (A") (A') (A') (A") (A') (A") (A')
                 (A") (A') (A') (A') (A') (A") (A') (A') (A') (A")
                 (A') (A') (A") (A') (A") (A') (A') (A") (A') (A')
                 (A') (A") (A') (A") (A') (A') (A') (A") (A') (A")
                 (A') (A') (A') (A') (A") (A') (A") (A') (A") (A')
                 (A") (A') (A") (A") (A") (A') (A') (A') (A') (A')
                 (A') (A') (A') (A') (A') (A') (A') (A') (A') (A')
                 (A') (A') (A') (A') (A') (A") (A') (A') (A') (A')
                 (A') (A') (A') (A') (A') (A') (A') (A') (A') (A')
                 (A') (A') (A') (A') (A') (A') (A') (A') (A') (A')
                 (A') (A')
 The electronic state of the initial guess is 1-A'.
 Requested convergence on RMS density matrix=1.00D-08 within 128 cycles.
 Requested convergence on MAX density matrix=1.00D-06.
 Requested convergence on             energy=1.00D-06.
 No special actions if energy rises.
 SCF Done:  E(RM062X) =  -539.758526760     A.U. after   15 cycles
            NFock= 15  Conv=0.77D-08     -V/T= 2.0042
 DoSCS=F DFT=T ScalE2(SS,OS)=  1.000000  1.000000
 ExpMin= 3.60D-02 ExpMax= 4.56D+03 ExpMxC= 6.82D+02 IAcc=3 IRadAn=         5 AccDes= 0.00D+00
 HarFok:  IExCor=  205 AccDes= 0.00D+00 IRadAn=         5 IDoV=-2 UseB2=F ITyADJ=14
 ICtDFT= 12500011 ScaDFX=  1.000000  1.000000  1.000000  1.000000
 Range of M.O.s used for correlation:    15   379
 NBasis=   385 NAE=    47 NBE=    47 NFC=    14 NFV=     0
 NROrb=    365 NOA=    33 NOB=    33 NVA=   332 NVB=   332

 **** Warning!!: The largest alpha MO coefficient is  0.13258122D+03

 Orbital symmetries:
       Occupied  (A') (A') (A') (A') (A') (A') (A') (A') (A') (A')
                 (A') (A') (A') (A') (A') (A') (A') (A') (A') (A')
                 (A') (A') (A') (A') (A') (A') (A') (A') (A') (A')
                 (A') (A') (A") (A') (A') (A') (A') (A") (A") (A')
                 (A') (A') (A') (A") (A") (A") (A")
       Virtual   (A") (A") (A") (A") (A') (A') (A') (A') (A") (A')
                 (A') (A") (A') (A') (A") (A') (A") (A') (A') (A')
                 (A") (A") (A') (A') (A') (A") (A') (A") (A') (A')
                 (A") (A') (A") (A') (A') (A') (A') (A') (A") (A')
                 (A") (A') (A') (A") (A") (A') (A") (A') (A") (A')
                 (A') (A') (A') (A') (A') (A") (A') (A') (A') (A')
                 (A') (A") (A') (A') (A') (A') (A") (A') (A') (A')
                 (A') (A') (A') (A') (A') (A') (A') (A') (A') (A')
                 (A') (A') (A') (A') (A') (A') (A') (A') (A') (A')
                 (A') (A') (A') (A') (A") (A') (A") (A") (A') (A")
                 (A') (A') (A') (A') (A") (A") (A') (A") (A") (A')
                 (A') (A') (A") (A') (A') (A") (A') (A") (A') (A")
                 (A") (A') (A") (A') (A') (A') (A") (A') (A') (A')
                 (A') (A') (A') (A') (A') (A') (A') (A') (A') (A')
                 (A') (A') (A') (A") (A') (A') (A') (A') (A') (A')
                 (A') (A') (A") (A') (A") (A') (A") (A") (A') (A")
                 (A") (A') (A') (A") (A") (A") (A') (A") (A') (A')
                 (A') (A') (A') (A") (A") (A') (A') (A') (A') (A")
                 (A') (A') (A') (A") (A') (A") (A') (A') (A") (A")
                 (A") (A') (A') (A") (A") (A') (A') (A') (A') (A')
                 (A") (A") (A") (A') (A') (A") (A') (A") (A') (A')
                 (A') (A") (A') (A") (A") (A') (A") (A') (A') (A")
                 (A') (A') (A') (A') (A") (A') (A') (A') (A") (A")
                 (A') (A') (A') (A") (A') (A') (A') (A") (A") (A')
                 (A") (A') (A') (A") (A') (A') (A') (A') (A') (A')
                 (A") (A') (A') (A') (A') (A") (A") (A") (A') (A')
                 (A') (A') (A') (A') (A') (A') (A") (A') (A') (A')
                 (A') (A") (A') (A") (A") (A") (A') (A") (A') (A")
                 (A') (A") (A") (A') (A") (A") (A') (A') (A') (A')
                 (A') (A') (A') (A') (A') (A') (A') (A') (A') (A')
                 (A') (A') (A') (A") (A') (A') (A') (A') (A') (A')
                 (A') (A') (A') (A') (A') (A') (A') (A') (A') (A')
                 (A') (A') (A') (A') (A') (A') (A') (A') (A') (A')
                 (A') (A')
     4 initial guesses have been made.
 Convergence on wavefunction:    0.001000000000000
 Iteration     1 Dimension     4 NMult     0 NNew      4
 CISAX will form     4 AO SS matrices at one time.
 Iteration     2 Dimension     6 NMult     4 NNew      2
 Iteration     3 Dimension     8 NMult     6 NNew      2
 Iteration     4 Dimension    10 NMult     8 NNew      2
 Iteration     5 Dimension    12 NMult    10 NNew      2
 Iteration     6 Dimension    14 NMult    12 NNew      2
 ***********************************************************************
 Excited states from <AA,BB:AA,BB> singles matrix:
 ***********************************************************************
 
 Ground to excited state transition densities written to RWF  633
 Ground to excited state transition electric dipole moments (Au):
       state          X           Y           Z        Dip. S.      Osc.
         1        -0.5169      0.3025     -0.0000      0.3586      0.0243
 Ground to excited state transition velocity dipole moments (Au):
       state          X           Y           Z        Dip. S.      Osc.
         1         0.0603     -0.0319     -0.0000      0.0047      0.0305
 Ground to excited state transition magnetic dipole moments (Au):
       state          X           Y           Z
         1         0.0000     -0.0000     -0.1491
 Ground to excited state transition velocity quadrupole moments (Au):
       state          XX          YY          ZZ          XY          XZ          YZ
         1         0.1374      0.1684     -0.0092      0.1362     -0.0000     -0.0000
 <0|del|b> * <b|rxdel|0> + <0|del|b> * <b|delr+rdel|0>
 Rotatory Strengths (R) in cgs (10**-40 erg-esu-cm/Gauss)
       state          XX          YY          ZZ    R(velocity)    E-M Angle
         1        -0.0000      0.0000      0.0000      0.0000       90.00
 1/2[<0|r|b>*<b|rxdel|0> + (<0|rxdel|b>*<b|r|0>)*]
 Rotatory Strengths (R) in cgs (10**-40 erg-esu-cm/Gauss)
       state          XX          YY          ZZ     R(length)
         1         0.0000      0.0000     -0.0000     -0.0000
  1/2[<0|del|b>*<b|r|0> + (<0|r|b>*<b|del|0>)*] (Au)
       state          X           Y           Z        Dip. S.   Osc.(frdel)
         1        -0.0312     -0.0097      0.0000      0.0408      0.0272

 Excitation energies and oscillator strengths:
 
 Excited State   1:      Singlet-A'     2.7701 eV  447.58 nm  f=0.0243  <S**2>=0.000
      47 -> 48         0.70382
 This state for optimization and/or second-order correction.
 Total Energy, E(TD-HF/TD-DFT) =  -539.656727408    
 Copying the excited state density for this state as the 1-particle RhoCI density.
 SavETr:  write IOETrn=   770 NScale= 10 NData=  16 NLR=1 NState=    1 LETran=      28.

 **********************************************************************

            Population analysis using the SCF Density.

 **********************************************************************

 Orbital symmetries:
       Occupied  (A') (A') (A') (A') (A') (A') (A') (A') (A') (A')
                 (A') (A') (A') (A') (A') (A') (A') (A') (A') (A')
                 (A') (A') (A') (A') (A') (A') (A') (A') (A') (A')
                 (A') (A') (A") (A') (A') (A') (A') (A") (A") (A')
                 (A') (A') (A') (A") (A") (A") (A")
       Virtual   (A") (A") (A") (A") (A') (A') (A') (A') (A") (A')
                 (A') (A") (A') (A') (A") (A') (A") (A') (A') (A')
                 (A") (A") (A') (A') (A') (A") (A') (A") (A') (A')
                 (A") (A') (A") (A') (A') (A') (A') (A') (A") (A')
                 (A") (A') (A') (A") (A") (A') (A") (A') (A") (A')
                 (A') (A') (A') (A') (A') (A") (A') (A') (A') (A')
                 (A') (A") (A') (A') (A') (A') (A") (A') (A') (A')
                 (A') (A') (A') (A') (A') (A') (A') (A') (A') (A')
                 (A') (A') (A') (A') (A') (A') (A') (A') (A') (A')
                 (A') (A') (A') (A') (A") (A') (A") (A") (A') (A")
                 (A') (A') (A') (A') (A") (A") (A') (A") (A") (A')
                 (A') (A') (A") (A') (A') (A") (A') (A") (A') (A")
                 (A") (A') (A") (A') (A') (A') (A") (A') (A') (A')
                 (A') (A') (A') (A') (A') (A') (A') (A') (A') (A')
                 (A') (A') (A') (A") (A') (A') (A') (A') (A') (A')
                 (A') (A') (A") (A') (A") (A') (A") (A") (A') (A")
                 (A") (A') (A') (A") (A") (A") (A') (A") (A') (A')
                 (A') (A') (A') (A") (A") (A') (A') (A') (A') (A")
                 (A') (A') (A') (A") (A') (A") (A') (A') (A") (A")
                 (A") (A') (A') (A") (A") (A') (A') (A') (A') (A')
                 (A") (A") (A") (A') (A') (A") (A') (A") (A') (A')
                 (A') (A") (A') (A") (A") (A') (A") (A') (A') (A")
                 (A') (A') (A') (A') (A") (A') (A') (A') (A") (A")
                 (A') (A') (A') (A") (A') (A') (A') (A") (A") (A')
                 (A") (A') (A') (A") (A') (A') (A') (A') (A') (A')
                 (A") (A') (A') (A') (A') (A") (A") (A") (A') (A')
                 (A') (A') (A') (A') (A') (A') (A") (A') (A') (A')
                 (A') (A") (A') (A") (A") (A") (A') (A") (A') (A")
                 (A') (A") (A") (A') (A") (A") (A') (A') (A') (A')
                 (A') (A') (A') (A') (A') (A') (A') (A') (A') (A')
                 (A') (A') (A') (A") (A') (A') (A') (A') (A') (A')
                 (A') (A') (A') (A') (A') (A') (A') (A') (A') (A')
                 (A') (A') (A') (A') (A') (A') (A') (A') (A') (A')
                 (A') (A')
 The electronic state is 1-A'.
 Alpha  occ. eigenvalues --  -10.77656 -10.73567 -10.72986 -10.72671 -10.72205
 Alpha  occ. eigenvalues --  -10.71639 -10.71523 -10.71092 -10.71001 -10.70494
 Alpha  occ. eigenvalues --  -10.70105 -10.69842 -10.69802 -10.69476  -1.16432
 Alpha  occ. eigenvalues --   -1.12443  -1.06943  -1.05703  -1.01305  -1.00208
 Alpha  occ. eigenvalues --   -0.95724  -0.91034  -0.86420  -0.85886  -0.83794
 Alpha  occ. eigenvalues --   -0.78375  -0.76025  -0.74399  -0.69644  -0.69260
 Alpha  occ. eigenvalues --   -0.68433  -0.68139  -0.68111  -0.64903  -0.64244
 Alpha  occ. eigenvalues --   -0.62907  -0.61782  -0.60215  -0.59500  -0.59121
 Alpha  occ. eigenvalues --   -0.56892  -0.55245  -0.54722  -0.52443  -0.46815
 Alpha  occ. eigenvalues --   -0.46090  -0.44287
 Alpha virt. eigenvalues --   -0.26107  -0.14665  -0.14094  -0.12773  -0.11180
 Alpha virt. eigenvalues --   -0.10083  -0.09238  -0.07976  -0.07966  -0.07477
 Alpha virt. eigenvalues --   -0.07200  -0.07140  -0.05646  -0.05577  -0.05335
 Alpha virt. eigenvalues --   -0.03833  -0.03650  -0.03277  -0.03136  -0.02165
 Alpha virt. eigenvalues --   -0.01360  -0.00936   0.00197   0.00593   0.00636
 Alpha virt. eigenvalues --    0.01059   0.01513   0.01943   0.02192   0.02304
 Alpha virt. eigenvalues --    0.02449   0.02668   0.02755   0.03313   0.03426
 Alpha virt. eigenvalues --    0.04237   0.04496   0.04708   0.05036   0.05373
 Alpha virt. eigenvalues --    0.06034   0.06288   0.06589   0.07034   0.07265
 Alpha virt. eigenvalues --    0.07893   0.08130   0.08351   0.08556   0.08923
 Alpha virt. eigenvalues --    0.09518   0.09574   0.10007   0.10836   0.10975
 Alpha virt. eigenvalues --    0.11126   0.12136   0.12242   0.12818   0.12992
 Alpha virt. eigenvalues --    0.13424   0.13527   0.13995   0.14373   0.16038
 Alpha virt. eigenvalues --    0.16371   0.16409   0.17338   0.17569   0.17796
 Alpha virt. eigenvalues --    0.18112   0.19083   0.19298   0.19608   0.19779
 Alpha virt. eigenvalues --    0.21496   0.21599   0.22694   0.23119   0.23545
 Alpha virt. eigenvalues --    0.23893   0.24591   0.25445   0.26926   0.27598
 Alpha virt. eigenvalues --    0.28826   0.29267   0.29851   0.31340   0.35761
 Alpha virt. eigenvalues --    0.36409   0.38197   0.39271   0.41117   0.41373
 Alpha virt. eigenvalues --    0.41934   0.42202   0.42984   0.43660   0.44319
 Alpha virt. eigenvalues --    0.44875   0.45069   0.45996   0.46260   0.47971
 Alpha virt. eigenvalues --    0.48486   0.48814   0.49044   0.50444   0.51043
 Alpha virt. eigenvalues --    0.51356   0.51819   0.52125   0.52826   0.54019
 Alpha virt. eigenvalues --    0.54102   0.54594   0.55672   0.55811   0.57606
 Alpha virt. eigenvalues --    0.58232   0.58852   0.61446   0.62245   0.62356
 Alpha virt. eigenvalues --    0.63184   0.63481   0.64890   0.65145   0.67228
 Alpha virt. eigenvalues --    0.70422   0.70584   0.71064   0.72424   0.72865
 Alpha virt. eigenvalues --    0.75710   0.76027   0.76316   0.76843   0.77105
 Alpha virt. eigenvalues --    0.77836   0.77886   0.78218   0.79911   0.80385
 Alpha virt. eigenvalues --    0.81218   0.81620   0.82239   0.82996   0.85168
 Alpha virt. eigenvalues --    0.87099   0.88123   0.88420   0.89191   0.90472
 Alpha virt. eigenvalues --    0.91011   0.91315   0.93220   0.94602   0.96349
 Alpha virt. eigenvalues --    0.96749   1.00359   1.01250   1.01644   1.02745
 Alpha virt. eigenvalues --    1.03212   1.03451   1.04772   1.05837   1.08769
 Alpha virt. eigenvalues --    1.19538   1.23177   1.24073   1.24876   1.28223
 Alpha virt. eigenvalues --    1.29601   1.31887   1.34354   1.35738   1.35982
 Alpha virt. eigenvalues --    1.39303   1.39968   1.40911   1.43052   1.43482
 Alpha virt. eigenvalues --    1.43483   1.44486   1.46110   1.46342   1.46642
 Alpha virt. eigenvalues --    1.47658   1.48029   1.51677   1.53624   1.55559
 Alpha virt. eigenvalues --    1.55817   1.56317   1.56595   1.57753   1.61397
 Alpha virt. eigenvalues --    1.63208   1.63419   1.63981   1.66068   1.68253
 Alpha virt. eigenvalues --    1.68339   1.68734   1.69793   1.74344   1.75975
 Alpha virt. eigenvalues --    1.77116   1.78056   1.79836   1.80047   1.80729
 Alpha virt. eigenvalues --    1.83020   1.83213   1.83561   1.83819   1.84198
 Alpha virt. eigenvalues --    1.84365   1.85675   1.86227   1.88249   1.91375
 Alpha virt. eigenvalues --    1.92057   1.94076   1.95202   1.97702   1.98124
 Alpha virt. eigenvalues --    1.99716   2.02209   2.04382   2.07276   2.11761
 Alpha virt. eigenvalues --    2.12046   2.14145   2.15239   2.19015   2.21128
 Alpha virt. eigenvalues --    2.22769   2.28648   2.30008   2.34519   2.34859
 Alpha virt. eigenvalues --    2.36260   2.38654   2.39622   2.42330   2.44922
 Alpha virt. eigenvalues --    2.46122   2.46245   2.49271   2.52879   2.53773
 Alpha virt. eigenvalues --    2.54096   2.56915   2.57850   2.58339   2.59538
 Alpha virt. eigenvalues --    2.59852   2.61557   2.62102   2.63519   2.63725
 Alpha virt. eigenvalues --    2.64784   2.65069   2.65123   2.65427   2.67807
 Alpha virt. eigenvalues --    2.68393   2.70925   2.71429   2.73342   2.74802
 Alpha virt. eigenvalues --    2.76298   2.78465   2.79664   2.82772   2.83082
 Alpha virt. eigenvalues --    2.84838   2.86209   2.92080   2.97062   2.99453
 Alpha virt. eigenvalues --    3.00050   3.04768   3.10318   3.11235   3.13438
 Alpha virt. eigenvalues --    3.20718   3.22708   3.26476   3.28288   3.30607
 Alpha virt. eigenvalues --    3.32769   3.34019   3.43558   3.45980   3.46459
 Alpha virt. eigenvalues --    3.48269   3.49975   3.56329   3.66525   3.66642
 Alpha virt. eigenvalues --    3.67520   3.94095   3.94270   3.95346   3.96261
 Alpha virt. eigenvalues --    4.03965   4.06692   4.07466   4.12556   4.35228
 Alpha virt. eigenvalues --    4.60804   4.69526   4.71440  23.45316  23.60302
 Alpha virt. eigenvalues --   23.81450  23.84155  23.86717  23.88983  23.91094
 Alpha virt. eigenvalues --   23.93773  23.96496  23.98016  24.01163  24.02707
 Alpha virt. eigenvalues --   24.10718  24.11288
          Condensed to atoms (all electrons):
               1          2          3          4          5          6
     1  C    8.504328   0.371483  -0.593052   1.945420  -0.030870  -0.090875
     2  C    0.371483   7.200993   0.384440  -1.071473  -0.024412  -0.014548
     3  C   -0.593052   0.384440   6.598533   0.750711  -0.119846   0.016910
     4  C    1.945420  -1.071473   0.750711  11.431318  -0.416530  -0.135948
     5  C   -0.030870  -0.024412  -0.119846  -0.416530  10.959576   0.814500
     6  C   -0.090875  -0.014548   0.016910  -0.135948   0.814500   6.594657
     7  C   -0.021331  -0.000496  -0.013425   0.006157  -1.190841   0.283891
     8  C    0.401706  -0.003791  -0.102197  -0.079757   2.230332  -0.440629
     9  C   -1.092811  -0.851685   0.300343  -0.046684  -0.301160   0.299817
    10  C   -1.270786   0.209449  -0.299774  -2.711336  -2.481736  -0.396799
    11  C    0.341395  -0.822387   0.932295  -0.340158  -1.463079  -0.137434
    12  C   -2.074501   1.213456  -1.383204  -1.723668  -0.275563  -0.246818
    13  C    0.233761  -0.222081  -0.201667  -1.562887  -0.332193   1.056259
    14  C   -1.120172  -0.246064  -0.151004  -0.408134  -1.716649  -1.477430
    15  H    0.369094  -0.108203  -0.002049   0.027006   0.005974   0.001177
    16  H   -0.019907   0.382526  -0.020097   0.015363  -0.001625  -0.000346
    17  H   -0.023335  -0.019719   0.379022  -0.070040   0.000227   0.000412
    18  H    0.049849   0.003301  -0.084009   0.465919   0.005255  -0.005126
    19  H   -0.045220  -0.008120   0.051545  -0.075638  -0.064668   0.051840
    20  H    0.006901   0.002100  -0.005259   0.005277   0.458817  -0.084400
    21  H   -0.001260  -0.000413   0.000395   0.000406  -0.067898   0.371450
    22  H    0.000558   0.000344  -0.000311  -0.001414   0.011488  -0.014826
    23  H    0.006044  -0.002413   0.001034   0.004889   0.029637   0.000525
    24  H    0.036577   0.015497  -0.001479  -0.011613  -0.012699  -0.001756
    25  H    0.036577   0.015497  -0.001479  -0.011613  -0.012699  -0.001756
               7          8          9         10         11         12
     1  C   -0.021331   0.401706  -1.092811  -1.270786   0.341395  -2.074501
     2  C   -0.000496  -0.003791  -0.851685   0.209449  -0.822387   1.213456
     3  C   -0.013425  -0.102197   0.300343  -0.299774   0.932295  -1.383204
     4  C    0.006157  -0.079757  -0.046684  -2.711336  -0.340158  -1.723668
     5  C   -1.190841   2.230332  -0.301160  -2.481736  -1.463079  -0.275563
     6  C    0.283891  -0.440629   0.299817  -0.396799  -0.137434  -0.246818
     7  C    7.209151   0.069708  -0.805076   0.315134  -0.275534  -0.123245
     8  C    0.069708   8.864692  -1.085175  -1.373902   0.287628  -1.072341
     9  C   -0.805076  -1.085175   9.548236   0.265537   1.516487  -1.979850
    10  C    0.315134  -1.373902   0.265537   9.069359  -0.301958   2.395226
    11  C   -0.275534   0.287628   1.516487  -0.301958  14.421691  -3.911900
    12  C   -0.123245  -1.072341  -1.979850   2.395226  -3.911900  16.201171
    13  C   -0.932349   0.321213   1.437310  -0.393385   1.099880  -4.708942
    14  C    1.609689  -2.522655  -1.765650   2.439128  -4.772219   3.192591
    15  H   -0.002762   0.005035   0.088627  -0.008675  -0.029954  -0.018087
    16  H    0.000393   0.000917   0.001870  -0.009643   0.024113  -0.029856
    17  H   -0.000387  -0.001359  -0.005039   0.020083  -0.025735   0.089605
    18  H    0.002151   0.006929  -0.023184   0.007284  -0.006319  -0.053054
    19  H   -0.007642  -0.047699   0.074715   0.421788   0.077103  -0.077278
    20  H    0.002197   0.053690  -0.025147   0.011503  -0.012060  -0.011831
    21  H   -0.011227  -0.030595  -0.005942   0.020181  -0.006208   0.005332
    22  H    0.377193  -0.017914   0.003133  -0.008274   0.002667  -0.008233
    23  H   -0.109556   0.371101   0.092881  -0.010541   0.004564   0.005399
    24  H    0.013821   0.031163   0.354882   0.005169   0.020096  -0.060523
    25  H    0.013821   0.031163   0.354882   0.005169   0.020096  -0.060523
              13         14         15         16         17         18
     1  C    0.233761  -1.120172   0.369094  -0.019907  -0.023335   0.049849
     2  C   -0.222081  -0.246064  -0.108203   0.382526  -0.019719   0.003301
     3  C   -0.201667  -0.151004  -0.002049  -0.020097   0.379022  -0.084009
     4  C   -1.562887  -0.408134   0.027006   0.015363  -0.070040   0.465919
     5  C   -0.332193  -1.716649   0.005974  -0.001625   0.000227   0.005255
     6  C    1.056259  -1.477430   0.001177  -0.000346   0.000412  -0.005126
     7  C   -0.932349   1.609689  -0.002762   0.000393  -0.000387   0.002151
     8  C    0.321213  -2.522655   0.005035   0.000917  -0.001359   0.006929
     9  C    1.437310  -1.765650   0.088627   0.001870  -0.005039  -0.023184
    10  C   -0.393385   2.439128  -0.008675  -0.009643   0.020083   0.007284
    11  C    1.099880  -4.772219  -0.029954   0.024113  -0.025735  -0.006319
    12  C   -4.708942   3.192591  -0.018087  -0.029856   0.089605  -0.053054
    13  C   14.257453  -3.478266  -0.001443   0.003232  -0.006257  -0.012256
    14  C   -3.478266  15.949169   0.007116  -0.009808   0.005302  -0.019142
    15  H   -0.001443   0.007116   0.436686  -0.009051   0.001592   0.000194
    16  H    0.003232  -0.009808  -0.009051   0.417847  -0.006909   0.001959
    17  H   -0.006257   0.005302   0.001592  -0.006909   0.421029  -0.010270
    18  H   -0.012256  -0.019142   0.000194   0.001959  -0.010270   0.451300
    19  H    0.079715  -0.054861   0.000376  -0.000585   0.001602  -0.006023
    20  H   -0.002686  -0.062954  -0.000121   0.000018  -0.000158   0.001240
    21  H   -0.026584   0.096031   0.000016  -0.000007   0.000010  -0.000132
    22  H    0.024650  -0.031605  -0.000126   0.000008  -0.000007   0.000013
    23  H   -0.032336  -0.031281   0.000548  -0.000130   0.000012  -0.000108
    24  H    0.007595  -0.060701  -0.000947   0.000633  -0.000139   0.000166
    25  H    0.007595  -0.060701  -0.000947   0.000633  -0.000139   0.000166
              19         20         21         22         23         24
     1  C   -0.045220   0.006901  -0.001260   0.000558   0.006044   0.036577
     2  C   -0.008120   0.002100  -0.000413   0.000344  -0.002413   0.015497
     3  C    0.051545  -0.005259   0.000395  -0.000311   0.001034  -0.001479
     4  C   -0.075638   0.005277   0.000406  -0.001414   0.004889  -0.011613
     5  C   -0.064668   0.458817  -0.067898   0.011488   0.029637  -0.012699
     6  C    0.051840  -0.084400   0.371450  -0.014826   0.000525  -0.001756
     7  C   -0.007642   0.002197  -0.011227   0.377193  -0.109556   0.013821
     8  C   -0.047699   0.053690  -0.030595  -0.017914   0.371101   0.031163
     9  C    0.074715  -0.025147  -0.005942   0.003133   0.092881   0.354882
    10  C    0.421788   0.011503   0.020181  -0.008274  -0.010541   0.005169
    11  C    0.077103  -0.012060  -0.006208   0.002667   0.004564   0.020096
    12  C   -0.077278  -0.011831   0.005332  -0.008233   0.005399  -0.060523
    13  C    0.079715  -0.002686  -0.026584   0.024650  -0.032336   0.007595
    14  C   -0.054861  -0.062954   0.096031  -0.031605  -0.031281  -0.060701
    15  H    0.000376  -0.000121   0.000016  -0.000126   0.000548  -0.000947
    16  H   -0.000585   0.000018  -0.000007   0.000008  -0.000130   0.000633
    17  H    0.001602  -0.000158   0.000010  -0.000007   0.000012  -0.000139
    18  H   -0.006023   0.001240  -0.000132   0.000013  -0.000108   0.000166
    19  H    0.443182  -0.006637   0.001267  -0.000514   0.000272   0.000570
    20  H   -0.006637   0.457235  -0.010439   0.001912   0.000092   0.000212
    21  H    0.001267  -0.010439   0.423820  -0.006269   0.001342  -0.000148
    22  H   -0.000514   0.001912  -0.006269   0.421386  -0.009052   0.000637
    23  H    0.000272   0.000092   0.001342  -0.009052   0.442535  -0.000908
    24  H    0.000570   0.000212  -0.000148   0.000637  -0.000908   0.492832
    25  H    0.000570   0.000212  -0.000148   0.000637  -0.000908  -0.078343
              25
     1  C    0.036577
     2  C    0.015497
     3  C   -0.001479
     4  C   -0.011613
     5  C   -0.012699
     6  C   -0.001756
     7  C    0.013821
     8  C    0.031163
     9  C    0.354882
    10  C    0.005169
    11  C    0.020096
    12  C   -0.060523
    13  C    0.007595
    14  C   -0.060701
    15  H   -0.000947
    16  H    0.000633
    17  H   -0.000139
    18  H    0.000166
    19  H    0.000570
    20  H    0.000212
    21  H   -0.000148
    22  H    0.000637
    23  H   -0.000908
    24  H   -0.078343
    25  H    0.492832
 Mulliken charges:
               1
     1  C    0.080430
     2  C   -0.403282
     3  C   -0.436378
     4  C    0.014425
     5  C   -0.003336
     6  C   -0.442748
     7  C   -0.409436
     8  C    0.102735
     9  C   -0.351318
    10  C    0.081800
    11  C   -0.643073
    12  C    0.716635
    13  C   -0.615329
    14  C    0.690271
    15  H    0.238923
    16  H    0.258453
    17  H    0.250596
    18  H    0.223896
    19  H    0.190340
    20  H    0.220287
    21  H    0.247019
    22  H    0.253922
    23  H    0.236357
    24  H    0.249405
    25  H    0.249405
 Sum of Mulliken charges =   1.00000
 Mulliken charges with hydrogens summed into heavy atoms:
               1
     1  C    0.319353
     2  C   -0.144829
     3  C   -0.185781
     4  C    0.238321
     5  C    0.216951
     6  C   -0.195729
     7  C   -0.155515
     8  C    0.339093
     9  C    0.147493
    10  C    0.272140
    11  C   -0.643073
    12  C    0.716635
    13  C   -0.615329
    14  C    0.690271
 Electronic spatial extent (au):  <R**2>=           2857.9970
 Charge=              1.0000 electrons
 Dipole moment (field-independent basis, Debye):
    X=             -0.0967    Y=             -0.5829    Z=             -0.0000  Tot=              0.5909
 Quadrupole moment (field-independent basis, Debye-Ang):
   XX=            -50.9360   YY=            -36.3934   ZZ=            -84.1403
   XY=             10.3094   XZ=              0.0000   YZ=             -0.0000
 Traceless Quadrupole moment (field-independent basis, Debye-Ang):
   XX=              6.2205   YY=             20.7632   ZZ=            -26.9837
   XY=             10.3094   XZ=              0.0000   YZ=             -0.0000
 Octapole moment (field-independent basis, Debye-Ang**2):
  XXX=             -1.5581  YYY=              0.3588  ZZZ=             -0.0000  XYY=             -1.7637
  XXY=             -6.7533  XXZ=             -0.0000  XZZ=             -3.1317  YZZ=              0.7455
  YYZ=             -0.0000  XYZ=              0.0000
 Hexadecapole moment (field-independent basis, Debye-Ang**3):
 XXXX=           -992.5312 YYYY=          -1847.3720 ZZZZ=            -99.3408 XXXY=           -348.9225
 XXXZ=              0.0000 YYYX=           -275.1359 YYYZ=              0.0000 ZZZX=              0.0000
 ZZZY=              0.0000 XXYY=           -454.5309 XXZZ=           -242.5429 YYZZ=           -494.4093
 XXYZ=             -0.0000 YYXZ=              0.0000 ZZXY=           -183.6764
 N-N= 7.809116960478D+02 E-N=-2.798159178151D+03  KE= 5.374969226304D+02
 Symmetry A'   KE= 5.228479205715D+02
 Symmetry A"   KE= 1.464900205879D+01
 Unable to Open any file for archive entry.
 1\1\GINC-GADI-CPU-CLX-1762\SP\RM062X TD-FC\6-311++G(d,p)\C14H11(1+)\TS
 1578\02-Aug-2022\0\\#n M062X/6-311++G(d,p) TD(NStates=1) EmpiricalDisp
 ersion=GD3 SP\\SP_125\\1,1\C,0,2.481805,1.360131,0.\C,0,3.686483,0.664
 414,0.\C,0,3.680161,-0.72773,0.\C,0,2.478906,-1.416938,0.\C,0,-2.44770
 6,-1.398738,0.\C,0,-3.689361,-0.70293,0.\C,0,-3.719383,0.678514,0.\C,0
 ,-2.509205,1.358931,0.\C,0,-0.008825,1.459969,0.\C,0,0.0244,-1.429489,
 0.\C,0,1.26593,0.68479,0.\C,0,1.246871,-0.731554,0.\C,0,-1.25863,0.669
 49,0.\C,0,-1.226871,-0.729154,0.\H,0,2.487171,2.443122,0.\H,0,4.621828
 ,1.204814,0.\H,0,4.612612,-1.273774,0.\H,0,2.4744,-2.499134,0.\H,0,0.0
 225,-2.510416,0.\H,0,-2.4598,-2.481434,0.\H,0,-4.606812,-1.274674,0.\H
 ,0,-4.655128,1.216314,0.\H,0,-2.495571,2.442222,0.\H,0,-0.032,2.147287
 ,-0.861235\H,0,-0.032,2.147287,0.861235\\Version=ES64L-G16RevC.01\Stat
 e=1-A'\HF=-539.7585268\RMSD=7.709e-09\PG=CS [SG(C14H9),X(H2)]\\@
 The archive entry for this job was punched.


 THE RARE EARTHS PERPLEX US IN OUR RESEARCHES,
 BAFFLE US IN OUR SPECULATIONS, AND HAUNT US IN OUR
 VERY DREAMS.  THEY STRETCH LIKE AN UNKNOWN BEFORE US,
 MOCKING, MYSTIFYING, AND MURMURING STRANGE REVELATIONS
 AND POSSIBILITIES.  -- SIR WILLIAM CROOKE, 1832-1919
 Job cpu time:       0 days  0 hours 52 minutes 26.2 seconds.
 Elapsed time:       0 days  0 hours  1 minutes  6.0 seconds.
 File lengths (MBytes):  RWF=    460 Int=      0 D2E=      0 Chk=     15 Scr=      1
 Normal termination of Gaussian 16 at Tue Aug  2 13:19:04 2022.
