 Entering Gaussian System, Link 0=g16
 Initial command:
 /apps/gaussian/g16c01/g16/l1.exe "/jobfs/53796104.gadi-pbs/Gau-3643218.inp" -scrdir="/jobfs/53796104.gadi-pbs/"
 Entering Link 1 = /apps/gaussian/g16c01/g16/l1.exe PID=   3643219.
  
 Copyright (c) 1988-2019, Gaussian, Inc.  All Rights Reserved.
  
 This is part of the Gaussian(R) 16 program.  It is based on
 the Gaussian(R) 09 system (copyright 2009, Gaussian, Inc.),
 the Gaussian(R) 03 system (copyright 2003, Gaussian, Inc.),
 the Gaussian(R) 98 system (copyright 1998, Gaussian, Inc.),
 the Gaussian(R) 94 system (copyright 1995, Gaussian, Inc.),
 the Gaussian 92(TM) system (copyright 1992, Gaussian, Inc.),
 the Gaussian 90(TM) system (copyright 1990, Gaussian, Inc.),
 the Gaussian 88(TM) system (copyright 1988, Gaussian, Inc.),
 the Gaussian 86(TM) system (copyright 1986, Carnegie Mellon
 University), and the Gaussian 82(TM) system (copyright 1983,
 Carnegie Mellon University). Gaussian is a federally registered
 trademark of Gaussian, Inc.
  
 This software contains proprietary and confidential information,
 including trade secrets, belonging to Gaussian, Inc.
  
 This software is provided under written license and may be
 used, copied, transmitted, or stored only in accord with that
 written license.
  
 The following legend is applicable only to US Government
 contracts under FAR:
  
                    RESTRICTED RIGHTS LEGEND
  
 Use, reproduction and disclosure by the US Government is
 subject to restrictions as set forth in subparagraphs (a)
 and (c) of the Commercial Computer Software - Restricted
 Rights clause in FAR 52.227-19.
  
 Gaussian, Inc.
 340 Quinnipiac St., Bldg. 40, Wallingford CT 06492
  
  
 ---------------------------------------------------------------
 Warning -- This program may not be used in any manner that
 competes with the business of Gaussian, Inc. or will provide
 assistance to any competitor of Gaussian, Inc.  The licensee
 of this program is prohibited from giving any competitor of
 Gaussian, Inc. access to this program.  By using this program,
 the user acknowledges that Gaussian, Inc. is engaged in the
 business of creating and licensing software in the field of
 computational chemistry and represents and warrants to the
 licensee that it is not a competitor of Gaussian, Inc. and that
 it will not use this program in any manner prohibited above.
 ---------------------------------------------------------------
  

 Cite this work as:
 Gaussian 16, Revision C.01,
 M. J. Frisch, G. W. Trucks, H. B. Schlegel, G. E. Scuseria, 
 M. A. Robb, J. R. Cheeseman, G. Scalmani, V. Barone, 
 G. A. Petersson, H. Nakatsuji, X. Li, M. Caricato, A. V. Marenich, 
 J. Bloino, B. G. Janesko, R. Gomperts, B. Mennucci, H. P. Hratchian, 
 J. V. Ortiz, A. F. Izmaylov, J. L. Sonnenberg, D. Williams-Young, 
 F. Ding, F. Lipparini, F. Egidi, J. Goings, B. Peng, A. Petrone, 
 T. Henderson, D. Ranasinghe, V. G. Zakrzewski, J. Gao, N. Rega, 
 G. Zheng, W. Liang, M. Hada, M. Ehara, K. Toyota, R. Fukuda, 
 J. Hasegawa, M. Ishida, T. Nakajima, Y. Honda, O. Kitao, H. Nakai, 
 T. Vreven, K. Throssell, J. A. Montgomery, Jr., J. E. Peralta, 
 F. Ogliaro, M. J. Bearpark, J. J. Heyd, E. N. Brothers, K. N. Kudin, 
 V. N. Staroverov, T. A. Keith, R. Kobayashi, J. Normand, 
 K. Raghavachari, A. P. Rendell, J. C. Burant, S. S. Iyengar, 
 J. Tomasi, M. Cossi, J. M. Millam, M. Klene, C. Adamo, R. Cammi, 
 J. W. Ochterski, R. L. Martin, K. Morokuma, O. Farkas, 
 J. B. Foresman, and D. J. Fox, Gaussian, Inc., Wallingford CT, 2019.
 
 ******************************************
 Gaussian 16:  ES64L-G16RevC.01  3-Jul-2019
                 2-Aug-2022 
 ******************************************
 %NProcShared=48
 Will use up to   48 processors via shared memory.
 %mem = 190GB
 ---------------------------------------------------------------
 #n M062X/6-311++G(d,p) TD(NStates=1) EmpiricalDispersion=GD3 SP
 ---------------------------------------------------------------
 1/38=1,172=1/1;
 2/12=2,17=6,18=5,40=1/2;
 3/5=4,6=6,7=1111,11=9,25=1,30=1,74=-55,124=31/1,2,3,8;
 4//1;
 5/5=2,38=5/2;
 8/6=1,10=2,108=1/1;
 9/41=1,42=1,70=2/14;
 6/7=2,8=2,9=2,10=2/1;
 99/5=1,9=1/99;
 -----
 SP_25
 -----
 Symbolic Z-matrix:
 Charge =  1 Multiplicity = 1
 C                     2.50141   1.35953   0. 
 C                     3.71068   0.67516   0. 
 C                     3.68676  -0.70863   0. 
 C                     2.45546  -1.40319   0. 
 C                    -2.47106  -1.41229   0. 
 C                    -3.68216  -0.72103   0. 
 C                    -3.69423   0.66811   0. 
 C                    -2.48771   1.36013   0. 
 C                     0.00433   1.45777   0. 
 C                    -0.0122   -1.42939   0. 
 C                     1.26038   0.67329   0. 
 C                     1.23207  -0.7299    0. 
 C                    -1.26403   0.68094   0. 
 C                    -1.24207  -0.7311    0. 
 H                     2.49237   2.44277   0. 
 H                     4.64623   1.21381   0. 
 H                     4.60811  -1.27382   0. 
 H                     2.4636   -2.48578   0. 
 H                    -0.01125  -2.51037   0. 
 H                    -2.4709   -2.49463   0. 
 H                    -4.61101  -1.27337   0. 
 H                    -4.62958   1.20806   0. 
 H                    -2.48817   2.44322   0. 
 H                     0.016     2.14679  -0.86069 
 H                     0.016     2.14679   0.86069 
 
                          Input orientation:                          
 ---------------------------------------------------------------------
 Center     Atomic      Atomic             Coordinates (Angstroms)
 Number     Number       Type             X           Y           Z
 ---------------------------------------------------------------------
      1          6           0        2.501405    1.359531    0.000000
      2          6           0        3.710683    0.675164    0.000000
      3          6           0        3.686761   -0.708630    0.000000
      4          6           0        2.455456   -1.403188    0.000000
      5          6           0       -2.471056   -1.412288    0.000000
      6          6           0       -3.682161   -0.721030    0.000000
      7          6           0       -3.694233    0.668114    0.000000
      8          6           0       -2.487705    1.360131    0.000000
      9          6           0        0.004325    1.457769    0.000000
     10          6           0       -0.012200   -1.429389    0.000000
     11          6           0        1.260380    0.673290    0.000000
     12          6           0        1.232071   -0.729904    0.000000
     13          6           0       -1.264030    0.680940    0.000000
     14          6           0       -1.242071   -0.731104    0.000000
     15          1           0        2.492371    2.442772    0.000000
     16          1           0        4.646228    1.213814    0.000000
     17          1           0        4.608112   -1.273824    0.000000
     18          1           0        2.463600   -2.485784    0.000000
     19          1           0       -0.011250   -2.510366    0.000000
     20          1           0       -2.470900   -2.494634    0.000000
     21          1           0       -4.611012   -1.273374    0.000000
     22          1           0       -4.629578    1.208064    0.000000
     23          1           0       -2.488171    2.443222    0.000000
     24          1           0        0.016000    2.146787   -0.860685
     25          1           0        0.016000    2.146787    0.860685
 ---------------------------------------------------------------------
                    Distance matrix (angstroms):
                    1          2          3          4          5
     1  C    0.000000
     2  C    1.389500   0.000000
     3  C    2.383770   1.384001   0.000000
     4  C    2.763101   2.427991   1.413691   0.000000
     5  C    5.692833   6.524673   6.197890   4.926520   0.000000
     6  C    6.524203   7.523530   7.368932   6.175409   1.394494
     7  C    6.234099   7.404919   7.508295   6.489142   2.413345
     8  C    4.989110   6.236120   6.511820   5.663106   2.772469
     9  C    2.499012   3.788081   4.272425   3.767375   3.790084
    10  C    3.754502   4.276564   3.768528   2.467795   2.458915
    11  C    1.418122   2.450304   2.792316   2.395823   4.274722
    12  C    2.444780   2.849164   2.454782   1.396418   3.765474
    13  C    3.826093   4.974716   5.142104   4.263586   2.416302
    14  C    4.287700   5.148530   4.928883   3.758112   1.405139
    15  H    1.083279   2.146793   3.370149   3.846137   6.284671
    16  H    2.149767   1.079532   2.148573   3.412943   7.586313
    17  H    3.372354   2.145678   1.080894   2.156540   7.080522
    18  H    3.845501   3.398059   2.157406   1.082627   5.050072
    19  H    4.614059   4.899019   4.113580   2.703790   2.693774
    20  H    6.291137   6.946912   6.411443   5.045814   1.082346
    21  H    7.584106   8.546778   8.316969   7.067660   2.144460
    22  H    7.132591   8.357268   8.534355   7.550917   3.394917
    23  H    5.105904   6.446070   6.932817   6.263730   3.855548
    24  H    2.745503   4.069046   4.729553   4.392499   4.426425
    25  H    2.745503   4.069046   4.729553   4.392499   4.426425
                    6          7          8          9         10
     6  C    0.000000
     7  C    1.389196   0.000000
     8  C    2.399574   1.390898   0.000000
     9  C    4.282213   3.781916   2.493942   0.000000
    10  C    3.737698   4.237557   3.729550   2.887205   0.000000
    11  C    5.135449   4.954616   3.810498   1.480906   2.457787
    12  C    4.914240   5.120832   4.266729   2.508640   1.427407
    13  C    2.795152   2.430237   1.399529   1.487342   2.453684
    14  C    2.440111   2.823280   2.434105   2.518862   1.414279
    15  H    6.937902   6.436108   5.096398   2.675930   4.611562
    16  H    8.550186   8.358294   7.135433   4.648309   5.356069
    17  H    8.308683   8.526433   7.568906   5.353172   4.622930
    18  H    6.394117   6.918524   6.269488   4.647542   2.691757
    19  H    4.083786   4.864884   4.594951   3.968166   1.080977
    20  H    2.147749   3.391094   3.854802   4.663500   2.679543
    21  H    1.080670   2.147058   3.382866   5.362880   4.601458
    22  H    2.149187   1.080008   2.147264   4.640626   5.317550
    23  H    3.382026   2.146065   1.083091   2.680234   4.596471
    24  H    4.758314   4.085717   2.761910   1.102570   3.678398
    25  H    4.758314   4.085717   2.761910   1.102570   3.678398
                   11         12         13         14         15
    11  C    0.000000
    12  C    1.403480   0.000000
    13  C    2.524422   2.867229   0.000000
    14  C    2.869596   2.474142   1.412215   0.000000
    15  H    2.156123   3.413829   4.149048   4.900974   0.000000
    16  H    3.428722   3.928678   5.934232   6.201191   2.479806
    17  H    3.872798   3.419576   6.188954   5.875303   4.276616
    18  H    3.380457   2.144709   4.891152   4.100110   4.928640
    19  H    3.428222   2.171610   3.428395   2.163491   5.549927
    20  H    4.894711   4.101983   3.397176   2.149432   7.000860
    21  H    6.185689   5.868303   3.875775   3.412304   8.016719
    22  H    5.914185   6.173706   3.406578   3.903278   7.228185
    23  H    4.145394   4.889676   2.145730   3.410148   4.980542
    24  H    2.111979   3.239592   2.127901   3.256651   2.638333
    25  H    2.111979   3.239592   2.127901   3.256651   2.638333
                   16         17         18         19         20
    16  H    0.000000
    17  H    2.487930   0.000000
    18  H    4.295450   2.463286   0.000000
    19  H    5.963356   4.782002   2.474972   0.000000
    20  H    8.025341   7.183508   4.934508   2.459700   0.000000
    21  H    9.585541   9.219124   7.177748   4.763188   2.464053
    22  H    9.275808   9.565285   7.997355   5.929222   4.286008
    23  H    7.239551   8.010847   6.986783   5.538337   4.937886
    24  H    4.801065   5.790410   5.309636   4.736095   5.335564
    25  H    4.801065   5.790410   5.309636   4.736095   5.335564
                   21         22         23         24         25
    21  H    0.000000
    22  H    2.481507   0.000000
    23  H    4.280133   2.472092   0.000000
    24  H    5.817862   4.816988   2.664493   0.000000
    25  H    5.817862   4.816988   2.664493   1.721370   0.000000
 Stoichiometry    C14H11(1+)
 Framework group  CS[SG(C14H9),X(H2)]
 Deg. of freedom    46
 Full point group                 CS      NOp   2
 Largest Abelian subgroup         CS      NOp   2
 Largest concise Abelian subgroup CS      NOp   2
                         Standard orientation:                         
 ---------------------------------------------------------------------
 Center     Atomic      Atomic             Coordinates (Angstroms)
 Number     Number       Type             X           Y           Z
 ---------------------------------------------------------------------
      1          6           0        0.020458    2.846758    0.000000
      2          6           0       -1.153012    3.590855    0.000000
      3          6           0       -2.362257    2.917665    0.000000
      4          6           0       -2.394631    1.504345    0.000000
      5          6           0       -0.081119   -2.845169    0.000000
      6          6           0        1.099290   -3.587629    0.000000
      7          6           0        2.330215   -2.943666    0.000000
      8          6           0        2.372023   -1.553396    0.000000
      9          6           0        1.283812    0.690606    0.000000
     10          6           0       -1.254898   -0.684495    0.000000
     11          6           0        0.000000    1.428784    0.000000
     12          6           0       -1.224289    0.742583    0.000000
     13          6           0        1.196334   -0.794162    0.000000
     14          6           0       -0.059448   -1.440197    0.000000
     15          1           0        0.980142    3.349250    0.000000
     16          1           0       -1.118779    4.669843    0.000000
     17          1           0       -3.294935    3.463966    0.000000
     18          1           0       -3.353328    1.001372    0.000000
     19          1           0       -2.208777   -1.193050    0.000000
     20          1           0       -1.035831   -3.355069    0.000000
     21          1           0        1.049823   -4.667167    0.000000
     22          1           0        3.247221   -3.514205    0.000000
     23          1           0        3.327538   -1.043418    0.000000
     24          1           0        1.886030    1.025592    0.860685
     25          1           0        1.886030    1.025592   -0.860685
 ---------------------------------------------------------------------
 Rotational constants (GHZ):           2.1348104           0.4444069           0.3686355
 Standard basis: 6-311++G(d,p) (5D, 7F)
 There are   299 symmetry adapted cartesian basis functions of A'  symmetry.
 There are   100 symmetry adapted cartesian basis functions of A"  symmetry.
 There are   285 symmetry adapted basis functions of A'  symmetry.
 There are   100 symmetry adapted basis functions of A"  symmetry.
   385 basis functions,   603 primitive gaussians,   399 cartesian basis functions
    47 alpha electrons       47 beta electrons
       nuclear repulsion energy       781.0019597373 Hartrees.
 NAtoms=   25 NActive=   25 NUniq=   24 SFac= 1.09D+00 NAtFMM=   60 NAOKFM=F Big=F
 Integral buffers will be    131072 words long.
 Regular integral format.
 Two-electron integral symmetry is turned on.
 Nuclear repulsion after empirical dispersion term =      781.0009802083 Hartrees.
 One-electron integrals computed using PRISM.
 NBasis=   385 RedAO= T EigKep=  1.13D-06  NBF=   285   100
 NBsUse=   379 1.00D-06 EigRej=  8.41D-07 NBFU=   279   100
 ExpMin= 3.60D-02 ExpMax= 4.56D+03 ExpMxC= 6.82D+02 IAcc=3 IRadAn=         5 AccDes= 0.00D+00
 Harris functional with IExCor= 1009 and IRadAn=       5 diagonalized for initial guess.
 HarFok:  IExCor= 1009 AccDes= 0.00D+00 IRadAn=         5 IDoV= 1 UseB2=F ITyADJ=14
 ICtDFT=  3500011 ScaDFX=  1.000000  1.000000  1.000000  1.000000
 FoFCou: FMM=F IPFlag=           0 FMFlag=      100000 FMFlg1=           0
         NFxFlg=           0 DoJE=T BraDBF=F KetDBF=T FulRan=T
         wScrn=  0.000000 ICntrl=       500 IOpCl=  0 I1Cent=   200000004 NGrid=           0
         NMat0=    1 NMatS0=      1 NMatT0=    0 NMatD0=    1 NMtDS0=    0 NMtDT0=    0
 Petite list used in FoFCou.
 Initial guess orbital symmetries:
       Occupied  (A') (A') (A') (A') (A') (A') (A') (A') (A') (A')
                 (A') (A') (A') (A') (A') (A') (A') (A') (A') (A')
                 (A') (A') (A') (A') (A') (A') (A') (A') (A') (A')
                 (A') (A') (A") (A') (A') (A') (A') (A') (A') (A")
                 (A") (A') (A') (A") (A") (A") (A")
       Virtual   (A") (A") (A") (A") (A") (A') (A') (A') (A') (A")
                 (A") (A') (A') (A') (A") (A') (A') (A') (A') (A")
                 (A') (A") (A') (A') (A') (A") (A') (A") (A') (A')
                 (A') (A') (A') (A") (A') (A') (A") (A') (A') (A")
                 (A') (A') (A') (A") (A') (A') (A') (A') (A') (A")
                 (A') (A') (A") (A") (A') (A') (A') (A") (A") (A')
                 (A') (A') (A') (A') (A') (A') (A") (A') (A') (A")
                 (A') (A') (A') (A') (A') (A') (A') (A') (A') (A')
                 (A') (A') (A') (A') (A') (A') (A') (A') (A') (A')
                 (A') (A') (A') (A') (A') (A') (A') (A") (A') (A")
                 (A') (A') (A") (A") (A') (A") (A') (A") (A') (A")
                 (A") (A') (A') (A') (A") (A') (A') (A") (A") (A')
                 (A") (A") (A') (A') (A') (A") (A') (A') (A') (A")
                 (A') (A') (A') (A') (A') (A') (A") (A') (A') (A')
                 (A') (A') (A') (A') (A') (A') (A') (A') (A') (A")
                 (A") (A') (A") (A") (A') (A') (A') (A") (A") (A')
                 (A") (A') (A") (A") (A") (A') (A') (A') (A') (A')
                 (A') (A") (A") (A') (A') (A') (A') (A') (A') (A")
                 (A') (A') (A') (A') (A') (A") (A") (A') (A") (A")
                 (A') (A") (A') (A") (A') (A') (A') (A") (A') (A')
                 (A") (A") (A") (A') (A') (A") (A') (A") (A') (A')
                 (A") (A") (A') (A") (A') (A") (A') (A') (A') (A")
                 (A') (A') (A') (A') (A") (A') (A') (A') (A") (A")
                 (A') (A') (A') (A") (A') (A') (A") (A') (A") (A')
                 (A") (A') (A') (A') (A') (A") (A') (A') (A') (A")
                 (A') (A') (A") (A') (A") (A') (A') (A") (A') (A')
                 (A') (A") (A') (A") (A') (A') (A') (A") (A') (A")
                 (A') (A') (A') (A') (A") (A') (A") (A') (A") (A')
                 (A") (A') (A") (A") (A") (A') (A') (A') (A') (A')
                 (A') (A') (A') (A') (A') (A') (A') (A') (A') (A')
                 (A') (A') (A') (A') (A') (A") (A') (A') (A') (A')
                 (A') (A') (A') (A') (A') (A') (A') (A') (A') (A')
                 (A') (A') (A') (A') (A') (A') (A') (A') (A') (A')
                 (A') (A')
 The electronic state of the initial guess is 1-A'.
 Requested convergence on RMS density matrix=1.00D-08 within 128 cycles.
 Requested convergence on MAX density matrix=1.00D-06.
 Requested convergence on             energy=1.00D-06.
 No special actions if energy rises.
 SCF Done:  E(RM062X) =  -539.759814872     A.U. after   15 cycles
            NFock= 15  Conv=0.57D-08     -V/T= 2.0042
 DoSCS=F DFT=T ScalE2(SS,OS)=  1.000000  1.000000
 ExpMin= 3.60D-02 ExpMax= 4.56D+03 ExpMxC= 6.82D+02 IAcc=3 IRadAn=         5 AccDes= 0.00D+00
 HarFok:  IExCor=  205 AccDes= 0.00D+00 IRadAn=         5 IDoV=-2 UseB2=F ITyADJ=14
 ICtDFT= 12500011 ScaDFX=  1.000000  1.000000  1.000000  1.000000
 Range of M.O.s used for correlation:    15   379
 NBasis=   385 NAE=    47 NBE=    47 NFC=    14 NFV=     0
 NROrb=    365 NOA=    33 NOB=    33 NVA=   332 NVB=   332

 **** Warning!!: The largest alpha MO coefficient is  0.14351262D+03

 Orbital symmetries:
       Occupied  (A') (A') (A') (A') (A') (A') (A') (A') (A') (A')
                 (A') (A') (A') (A') (A') (A') (A') (A') (A') (A')
                 (A') (A') (A') (A') (A') (A') (A') (A') (A') (A')
                 (A') (A') (A") (A') (A') (A') (A') (A") (A") (A')
                 (A') (A') (A') (A") (A") (A") (A")
       Virtual   (A") (A") (A") (A") (A') (A') (A') (A') (A") (A')
                 (A') (A") (A') (A') (A") (A') (A") (A') (A') (A')
                 (A") (A") (A') (A') (A') (A") (A') (A") (A') (A')
                 (A") (A') (A") (A') (A') (A') (A') (A') (A") (A')
                 (A") (A') (A') (A") (A") (A') (A") (A') (A") (A')
                 (A') (A') (A') (A') (A') (A") (A') (A') (A') (A')
                 (A') (A") (A') (A') (A') (A') (A") (A') (A') (A')
                 (A') (A') (A') (A') (A') (A') (A') (A') (A') (A')
                 (A') (A') (A') (A') (A') (A') (A') (A') (A') (A')
                 (A') (A') (A') (A') (A") (A') (A") (A") (A') (A")
                 (A') (A') (A') (A') (A") (A") (A') (A") (A") (A')
                 (A') (A') (A") (A') (A') (A") (A') (A") (A') (A")
                 (A") (A') (A") (A') (A') (A') (A") (A') (A') (A')
                 (A') (A') (A') (A') (A') (A') (A') (A') (A') (A')
                 (A') (A') (A') (A") (A') (A') (A') (A') (A') (A')
                 (A') (A') (A") (A') (A") (A') (A") (A") (A') (A")
                 (A") (A') (A') (A") (A") (A") (A') (A") (A') (A')
                 (A') (A') (A') (A") (A") (A') (A') (A') (A') (A")
                 (A') (A') (A') (A") (A') (A") (A') (A') (A") (A")
                 (A") (A') (A') (A") (A") (A') (A') (A') (A') (A')
                 (A") (A") (A") (A') (A') (A") (A') (A") (A') (A')
                 (A') (A") (A') (A") (A") (A') (A") (A') (A') (A")
                 (A') (A') (A') (A') (A") (A') (A') (A') (A") (A")
                 (A') (A') (A') (A") (A') (A') (A') (A") (A") (A')
                 (A") (A') (A') (A") (A') (A') (A') (A') (A') (A')
                 (A") (A') (A') (A') (A') (A") (A") (A") (A') (A')
                 (A') (A') (A') (A') (A') (A') (A") (A') (A') (A')
                 (A') (A") (A') (A") (A") (A") (A') (A") (A') (A")
                 (A') (A") (A") (A') (A") (A") (A') (A') (A') (A')
                 (A') (A') (A') (A') (A') (A') (A') (A') (A') (A')
                 (A') (A') (A') (A") (A') (A') (A') (A') (A') (A')
                 (A') (A') (A') (A') (A') (A') (A') (A') (A') (A')
                 (A') (A') (A') (A') (A') (A') (A') (A') (A') (A')
                 (A') (A')
     4 initial guesses have been made.
 Convergence on wavefunction:    0.001000000000000
 Iteration     1 Dimension     4 NMult     0 NNew      4
 CISAX will form     4 AO SS matrices at one time.
 Iteration     2 Dimension     6 NMult     4 NNew      2
 Iteration     3 Dimension     8 NMult     6 NNew      2
 Iteration     4 Dimension    10 NMult     8 NNew      2
 Iteration     5 Dimension    12 NMult    10 NNew      2
 Iteration     6 Dimension    14 NMult    12 NNew      2
 ***********************************************************************
 Excited states from <AA,BB:AA,BB> singles matrix:
 ***********************************************************************
 
 Ground to excited state transition densities written to RWF  633
 Ground to excited state transition electric dipole moments (Au):
       state          X           Y           Z        Dip. S.      Osc.
         1         0.5492      0.3069     -0.0000      0.3959      0.0272
 Ground to excited state transition velocity dipole moments (Au):
       state          X           Y           Z        Dip. S.      Osc.
         1        -0.0641     -0.0340     -0.0000      0.0053      0.0340
 Ground to excited state transition magnetic dipole moments (Au):
       state          X           Y           Z
         1        -0.0000      0.0000      0.0882
 Ground to excited state transition velocity quadrupole moments (Au):
       state          XX          YY          ZZ          XY          XZ          YZ
         1         0.1217      0.2038     -0.0097     -0.1273     -0.0000     -0.0000
 <0|del|b> * <b|rxdel|0> + <0|del|b> * <b|delr+rdel|0>
 Rotatory Strengths (R) in cgs (10**-40 erg-esu-cm/Gauss)
       state          XX          YY          ZZ    R(velocity)    E-M Angle
         1        -0.0000      0.0000      0.0000      0.0000       90.00
 1/2[<0|r|b>*<b|rxdel|0> + (<0|rxdel|b>*<b|r|0>)*]
 Rotatory Strengths (R) in cgs (10**-40 erg-esu-cm/Gauss)
       state          XX          YY          ZZ     R(length)
         1         0.0000     -0.0000      0.0000      0.0000
  1/2[<0|del|b>*<b|r|0> + (<0|r|b>*<b|del|0>)*] (Au)
       state          X           Y           Z        Dip. S.   Osc.(frdel)
         1        -0.0352     -0.0104      0.0000      0.0456      0.0304

 Excitation energies and oscillator strengths:
 
 Excited State   1:      Singlet-A'     2.8088 eV  441.41 nm  f=0.0272  <S**2>=0.000
      47 -> 48         0.70410
 This state for optimization and/or second-order correction.
 Total Energy, E(TD-HF/TD-DFT) =  -539.656592438    
 Copying the excited state density for this state as the 1-particle RhoCI density.
 SavETr:  write IOETrn=   770 NScale= 10 NData=  16 NLR=1 NState=    1 LETran=      28.

 **********************************************************************

            Population analysis using the SCF Density.

 **********************************************************************

 Orbital symmetries:
       Occupied  (A') (A') (A') (A') (A') (A') (A') (A') (A') (A')
                 (A') (A') (A') (A') (A') (A') (A') (A') (A') (A')
                 (A') (A') (A') (A') (A') (A') (A') (A') (A') (A')
                 (A') (A') (A") (A') (A') (A') (A') (A") (A") (A')
                 (A') (A') (A') (A") (A") (A") (A")
       Virtual   (A") (A") (A") (A") (A') (A') (A') (A') (A") (A')
                 (A') (A") (A') (A') (A") (A') (A") (A') (A') (A')
                 (A") (A") (A') (A') (A') (A") (A') (A") (A') (A')
                 (A") (A') (A") (A') (A') (A') (A') (A') (A") (A')
                 (A") (A') (A') (A") (A") (A') (A") (A') (A") (A')
                 (A') (A') (A') (A') (A') (A") (A') (A') (A') (A')
                 (A') (A") (A') (A') (A') (A') (A") (A') (A') (A')
                 (A') (A') (A') (A') (A') (A') (A') (A') (A') (A')
                 (A') (A') (A') (A') (A') (A') (A') (A') (A') (A')
                 (A') (A') (A') (A') (A") (A') (A") (A") (A') (A")
                 (A') (A') (A') (A') (A") (A") (A') (A") (A") (A')
                 (A') (A') (A") (A') (A') (A") (A') (A") (A') (A")
                 (A") (A') (A") (A') (A') (A') (A") (A') (A') (A')
                 (A') (A') (A') (A') (A') (A') (A') (A') (A') (A')
                 (A') (A') (A') (A") (A') (A') (A') (A') (A') (A')
                 (A') (A') (A") (A') (A") (A') (A") (A") (A') (A")
                 (A") (A') (A') (A") (A") (A") (A') (A") (A') (A')
                 (A') (A') (A') (A") (A") (A') (A') (A') (A') (A")
                 (A') (A') (A') (A") (A') (A") (A') (A') (A") (A")
                 (A") (A') (A') (A") (A") (A') (A') (A') (A') (A')
                 (A") (A") (A") (A') (A') (A") (A') (A") (A') (A')
                 (A') (A") (A') (A") (A") (A') (A") (A') (A') (A")
                 (A') (A') (A') (A') (A") (A') (A') (A') (A") (A")
                 (A') (A') (A') (A") (A') (A') (A') (A") (A") (A')
                 (A") (A') (A') (A") (A') (A') (A') (A') (A') (A')
                 (A") (A') (A') (A') (A') (A") (A") (A") (A') (A')
                 (A') (A') (A') (A') (A') (A') (A") (A') (A') (A')
                 (A') (A") (A') (A") (A") (A") (A') (A") (A') (A")
                 (A') (A") (A") (A') (A") (A") (A') (A') (A') (A')
                 (A') (A') (A') (A') (A') (A') (A') (A') (A') (A')
                 (A') (A') (A') (A") (A') (A') (A') (A') (A') (A')
                 (A') (A') (A') (A') (A') (A') (A') (A') (A') (A')
                 (A') (A') (A') (A') (A') (A') (A') (A') (A') (A')
                 (A') (A')
 The electronic state is 1-A'.
 Alpha  occ. eigenvalues --  -10.77669 -10.73411 -10.73121 -10.72558 -10.72325
 Alpha  occ. eigenvalues --  -10.71507 -10.71260 -10.71232 -10.70993 -10.70746
 Alpha  occ. eigenvalues --  -10.70039 -10.69908 -10.69718 -10.69554  -1.16424
 Alpha  occ. eigenvalues --   -1.12449  -1.06945  -1.05698  -1.01311  -1.00172
 Alpha  occ. eigenvalues --   -0.95769  -0.91044  -0.86417  -0.85892  -0.83805
 Alpha  occ. eigenvalues --   -0.78391  -0.76012  -0.74412  -0.69590  -0.69245
 Alpha  occ. eigenvalues --   -0.68480  -0.68173  -0.68109  -0.64781  -0.64265
 Alpha  occ. eigenvalues --   -0.62999  -0.61844  -0.60087  -0.59614  -0.59104
 Alpha  occ. eigenvalues --   -0.56887  -0.55228  -0.54797  -0.52441  -0.46665
 Alpha  occ. eigenvalues --   -0.46067  -0.44452
 Alpha virt. eigenvalues --   -0.26099  -0.14666  -0.14097  -0.12774  -0.11178
 Alpha virt. eigenvalues --   -0.10083  -0.09232  -0.07981  -0.07972  -0.07476
 Alpha virt. eigenvalues --   -0.07200  -0.07142  -0.05645  -0.05579  -0.05332
 Alpha virt. eigenvalues --   -0.03828  -0.03647  -0.03278  -0.03135  -0.02166
 Alpha virt. eigenvalues --   -0.01364  -0.00931   0.00196   0.00593   0.00647
 Alpha virt. eigenvalues --    0.01058   0.01514   0.01944   0.02210   0.02296
 Alpha virt. eigenvalues --    0.02450   0.02668   0.02746   0.03332   0.03390
 Alpha virt. eigenvalues --    0.04241   0.04501   0.04700   0.05034   0.05367
 Alpha virt. eigenvalues --    0.06035   0.06291   0.06594   0.07036   0.07259
 Alpha virt. eigenvalues --    0.07891   0.08152   0.08356   0.08536   0.08927
 Alpha virt. eigenvalues --    0.09535   0.09565   0.10026   0.10854   0.11000
 Alpha virt. eigenvalues --    0.11121   0.12157   0.12241   0.12883   0.12974
 Alpha virt. eigenvalues --    0.13410   0.13526   0.14007   0.14384   0.16144
 Alpha virt. eigenvalues --    0.16322   0.16391   0.17344   0.17609   0.17797
 Alpha virt. eigenvalues --    0.18115   0.19083   0.19255   0.19620   0.19738
 Alpha virt. eigenvalues --    0.21526   0.21589   0.22714   0.23102   0.23549
 Alpha virt. eigenvalues --    0.23851   0.24592   0.25395   0.26921   0.27598
 Alpha virt. eigenvalues --    0.28832   0.29281   0.29845   0.31346   0.35784
 Alpha virt. eigenvalues --    0.36411   0.38188   0.39272   0.41143   0.41397
 Alpha virt. eigenvalues --    0.41943   0.42215   0.42985   0.43660   0.44298
 Alpha virt. eigenvalues --    0.44931   0.45035   0.46060   0.46192   0.47971
 Alpha virt. eigenvalues --    0.48516   0.48841   0.49036   0.50424   0.51087
 Alpha virt. eigenvalues --    0.51473   0.51724   0.52118   0.52870   0.53980
 Alpha virt. eigenvalues --    0.54094   0.54617   0.55682   0.55768   0.57551
 Alpha virt. eigenvalues --    0.58237   0.58821   0.61436   0.62220   0.62342
 Alpha virt. eigenvalues --    0.63199   0.63487   0.64919   0.65147   0.67208
 Alpha virt. eigenvalues --    0.70429   0.70616   0.71020   0.72406   0.72860
 Alpha virt. eigenvalues --    0.75764   0.76017   0.76283   0.76887   0.77094
 Alpha virt. eigenvalues --    0.77835   0.77861   0.78217   0.79897   0.80388
 Alpha virt. eigenvalues --    0.81224   0.81656   0.82163   0.83005   0.85165
 Alpha virt. eigenvalues --    0.87135   0.88141   0.88542   0.89143   0.90416
 Alpha virt. eigenvalues --    0.91038   0.91275   0.93196   0.94616   0.96410
 Alpha virt. eigenvalues --    0.96674   1.00399   1.01263   1.01684   1.02714
 Alpha virt. eigenvalues --    1.03196   1.03719   1.04742   1.05541   1.08753
 Alpha virt. eigenvalues --    1.19539   1.23257   1.24043   1.25150   1.28011
 Alpha virt. eigenvalues --    1.29700   1.31769   1.34344   1.35748   1.35994
 Alpha virt. eigenvalues --    1.39321   1.40107   1.40928   1.43054   1.43446
 Alpha virt. eigenvalues --    1.43510   1.44837   1.45673   1.46349   1.46665
 Alpha virt. eigenvalues --    1.47642   1.48000   1.51686   1.53618   1.55625
 Alpha virt. eigenvalues --    1.55827   1.56334   1.56589   1.57753   1.61406
 Alpha virt. eigenvalues --    1.63256   1.63479   1.63842   1.66084   1.68260
 Alpha virt. eigenvalues --    1.68354   1.68716   1.69759   1.74354   1.75974
 Alpha virt. eigenvalues --    1.77131   1.78050   1.79915   1.80093   1.80697
 Alpha virt. eigenvalues --    1.83110   1.83215   1.83577   1.83829   1.84186
 Alpha virt. eigenvalues --    1.84283   1.85807   1.86114   1.88219   1.91371
 Alpha virt. eigenvalues --    1.92048   1.94103   1.95178   1.97684   1.98132
 Alpha virt. eigenvalues --    1.99714   2.02278   2.04371   2.07263   2.11792
 Alpha virt. eigenvalues --    2.12031   2.14112   2.15227   2.19046   2.21170
 Alpha virt. eigenvalues --    2.22785   2.28667   2.30031   2.34581   2.34908
 Alpha virt. eigenvalues --    2.36228   2.38679   2.39599   2.42348   2.44858
 Alpha virt. eigenvalues --    2.46142   2.46328   2.49323   2.52880   2.53786
 Alpha virt. eigenvalues --    2.54134   2.56867   2.57837   2.58310   2.59604
 Alpha virt. eigenvalues --    2.59823   2.61580   2.62111   2.63520   2.63755
 Alpha virt. eigenvalues --    2.64775   2.65088   2.65188   2.65346   2.67854
 Alpha virt. eigenvalues --    2.68456   2.70938   2.71417   2.73338   2.74809
 Alpha virt. eigenvalues --    2.76302   2.78613   2.79692   2.82763   2.83052
 Alpha virt. eigenvalues --    2.84856   2.86237   2.92088   2.97029   2.99484
 Alpha virt. eigenvalues --    3.00038   3.04891   3.10798   3.11325   3.13141
 Alpha virt. eigenvalues --    3.20858   3.23213   3.26606   3.28203   3.30698
 Alpha virt. eigenvalues --    3.32791   3.33687   3.43445   3.45918   3.46457
 Alpha virt. eigenvalues --    3.48382   3.50038   3.56384   3.66335   3.66686
 Alpha virt. eigenvalues --    3.67422   3.94173   3.94490   3.95242   3.96206
 Alpha virt. eigenvalues --    4.03991   4.06823   4.07439   4.12556   4.35356
 Alpha virt. eigenvalues --    4.61039   4.69709   4.71558  23.45340  23.60434
 Alpha virt. eigenvalues --   23.82006  23.85029  23.87523  23.89093  23.90688
 Alpha virt. eigenvalues --   23.92744  23.97231  23.98777  24.00227  24.01183
 Alpha virt. eigenvalues --   24.10544  24.10798
          Condensed to atoms (all electrons):
               1          2          3          4          5          6
     1  C    8.727680   0.186600  -0.492196   2.120650  -0.056738  -0.099075
     2  C    0.186600   7.176239   0.319218  -1.140658  -0.005378  -0.013911
     3  C   -0.492196   0.319218   6.590101   0.791104  -0.130262   0.016918
     4  C    2.120650  -1.140658   0.791104  11.009950  -0.397468  -0.122421
     5  C   -0.056738  -0.005378  -0.130262  -0.397468  11.242484   0.760042
     6  C   -0.099075  -0.013911   0.016918  -0.122421   0.760042   6.593036
     7  C   -0.010338   0.000379  -0.014487  -0.020356  -1.081439   0.368641
     8  C    0.402321  -0.019131  -0.093320  -0.032911   1.976825  -0.566656
     9  C   -1.114831  -0.805804   0.298008  -0.255556  -0.129159   0.298406
    10  C   -1.334707   0.283887  -0.374873  -2.534091  -2.648237  -0.326582
    11  C    0.316192  -0.919567   1.032539  -0.305330  -1.535717  -0.188011
    12  C   -2.324936   1.484469  -1.439580  -1.676774  -0.371991  -0.175224
    13  C    0.252075  -0.257961  -0.155862  -1.485515  -0.306977   0.969502
    14  C   -1.074446  -0.159318  -0.222669  -0.304732  -1.677516  -1.393110
    15  H    0.369511  -0.108139  -0.000411   0.028674   0.005311   0.001068
    16  H   -0.018624   0.378310  -0.015859   0.012519  -0.001483  -0.000320
    17  H   -0.027930  -0.013847   0.373280  -0.068104   0.000369   0.000398
    18  H    0.052128   0.002597  -0.084540   0.458830   0.005647  -0.005181
    19  H   -0.047294  -0.007661   0.051553  -0.067223  -0.072657   0.051405
    20  H    0.007053   0.002102  -0.005112   0.005654   0.462275  -0.084365
    21  H   -0.001334  -0.000394   0.000406   0.000273  -0.069115   0.377030
    22  H    0.000816   0.000380  -0.000337  -0.001584   0.014478  -0.018519
    23  H    0.005357  -0.002706   0.001141   0.005835   0.027339  -0.001673
    24  H    0.032169   0.014186  -0.001662  -0.012454  -0.011925  -0.001524
    25  H    0.032169   0.014186  -0.001662  -0.012454  -0.011925  -0.001524
               7          8          9         10         11         12
     1  C   -0.010338   0.402321  -1.114831  -1.334707   0.316192  -2.324936
     2  C    0.000379  -0.019131  -0.805804   0.283887  -0.919567   1.484469
     3  C   -0.014487  -0.093320   0.298008  -0.374873   1.032539  -1.439580
     4  C   -0.020356  -0.032911  -0.255556  -2.534091  -0.305330  -1.676774
     5  C   -1.081439   1.976825  -0.129159  -2.648237  -1.535717  -0.371991
     6  C    0.368641  -0.566656   0.298406  -0.326582  -0.188011  -0.175224
     7  C    7.174572   0.334484  -0.829465   0.230881  -0.232080  -0.220197
     8  C    0.334484   8.556142  -1.120741  -1.282193   0.227487  -1.101394
     9  C   -0.829465  -1.120741   9.559753   0.264684   1.510520  -1.844678
    10  C    0.230881  -1.282193   0.264684   9.106814  -0.411476   2.435155
    11  C   -0.232080   0.227487   1.510520  -0.411476  14.359745  -3.623138
    12  C   -0.220197  -1.101394  -1.844678   2.435155  -3.623138  16.013516
    13  C   -0.864073   0.324703   1.551598  -0.364403   1.100478  -4.782576
    14  C    1.288343  -2.102770  -1.951444   2.411784  -4.752686   3.156127
    15  H   -0.002537   0.005864   0.092062  -0.010101  -0.031340  -0.027921
    16  H    0.000356   0.000637   0.003217  -0.008801   0.025501  -0.032265
    17  H   -0.000407  -0.001286  -0.005829   0.020353  -0.027021   0.094333
    18  H    0.002081   0.007031  -0.024949   0.011708  -0.004490  -0.059052
    19  H   -0.007912  -0.045985   0.075142   0.421775   0.078729  -0.060106
    20  H    0.003091   0.050226  -0.023981   0.009666  -0.012102  -0.016740
    21  H   -0.018032  -0.024317  -0.005366   0.020249  -0.006267   0.005307
    22  H    0.380936  -0.019594   0.002587  -0.009475   0.003137  -0.009444
    23  H   -0.107493   0.368534   0.089915  -0.009150   0.000002   0.006817
    24  H    0.015032   0.034926   0.355340   0.005217   0.010624  -0.060570
    25  H    0.015032   0.034926   0.355340   0.005217   0.010624  -0.060570
              13         14         15         16         17         18
     1  C    0.252075  -1.074446   0.369511  -0.018624  -0.027930   0.052128
     2  C   -0.257961  -0.159318  -0.108139   0.378310  -0.013847   0.002597
     3  C   -0.155862  -0.222669  -0.000411  -0.015859   0.373280  -0.084540
     4  C   -1.485515  -0.304732   0.028674   0.012519  -0.068104   0.458830
     5  C   -0.306977  -1.677516   0.005311  -0.001483   0.000369   0.005647
     6  C    0.969502  -1.393110   0.001068  -0.000320   0.000398  -0.005181
     7  C   -0.864073   1.288343  -0.002537   0.000356  -0.000407   0.002081
     8  C    0.324703  -2.102770   0.005864   0.000637  -0.001286   0.007031
     9  C    1.551598  -1.951444   0.092062   0.003217  -0.005829  -0.024949
    10  C   -0.364403   2.411784  -0.010101  -0.008801   0.020353   0.011708
    11  C    1.100478  -4.752686  -0.031340   0.025501  -0.027021  -0.004490
    12  C   -4.782576   3.156127  -0.027921  -0.032265   0.094333  -0.059052
    13  C   14.431669  -3.834131   0.002973   0.002870  -0.006251  -0.012002
    14  C   -3.834131  16.129617   0.006011  -0.008669   0.005340  -0.013100
    15  H    0.002973   0.006011   0.440830  -0.009055   0.001408   0.000132
    16  H    0.002870  -0.008669  -0.009055   0.420487  -0.006461   0.001919
    17  H   -0.006251   0.005340   0.001408  -0.006461   0.423160  -0.010376
    18  H   -0.012002  -0.013100   0.000132   0.001919  -0.010376   0.455515
    19  H    0.077275  -0.071395   0.000290  -0.000528   0.001342  -0.006425
    20  H   -0.006310  -0.054037  -0.000110   0.000014  -0.000138   0.001248
    21  H   -0.026502   0.091018   0.000013  -0.000007   0.000010  -0.000151
    22  H    0.025190  -0.031338  -0.000129   0.000008  -0.000007   0.000017
    23  H   -0.030117  -0.021337   0.000560  -0.000127   0.000015  -0.000117
    24  H    0.016943  -0.060411  -0.000913   0.000635  -0.000146   0.000198
    25  H    0.016943  -0.060411  -0.000913   0.000635  -0.000146   0.000198
              19         20         21         22         23         24
     1  C   -0.047294   0.007053  -0.001334   0.000816   0.005357   0.032169
     2  C   -0.007661   0.002102  -0.000394   0.000380  -0.002706   0.014186
     3  C    0.051553  -0.005112   0.000406  -0.000337   0.001141  -0.001662
     4  C   -0.067223   0.005654   0.000273  -0.001584   0.005835  -0.012454
     5  C   -0.072657   0.462275  -0.069115   0.014478   0.027339  -0.011925
     6  C    0.051405  -0.084365   0.377030  -0.018519  -0.001673  -0.001524
     7  C   -0.007912   0.003091  -0.018032   0.380936  -0.107493   0.015032
     8  C   -0.045985   0.050226  -0.024317  -0.019594   0.368534   0.034926
     9  C    0.075142  -0.023981  -0.005366   0.002587   0.089915   0.355340
    10  C    0.421775   0.009666   0.020249  -0.009475  -0.009150   0.005217
    11  C    0.078729  -0.012102  -0.006267   0.003137   0.000002   0.010624
    12  C   -0.060106  -0.016740   0.005307  -0.009444   0.006817  -0.060570
    13  C    0.077275  -0.006310  -0.026502   0.025190  -0.030117   0.016943
    14  C   -0.071395  -0.054037   0.091018  -0.031338  -0.021337  -0.060411
    15  H    0.000290  -0.000110   0.000013  -0.000129   0.000560  -0.000913
    16  H   -0.000528   0.000014  -0.000007   0.000008  -0.000127   0.000635
    17  H    0.001342  -0.000138   0.000010  -0.000007   0.000015  -0.000146
    18  H   -0.006425   0.001248  -0.000151   0.000017  -0.000117   0.000198
    19  H    0.442891  -0.006117   0.001509  -0.000564   0.000343   0.000579
    20  H   -0.006117   0.452531  -0.010283   0.001942   0.000183   0.000175
    21  H    0.001509  -0.010283   0.421750  -0.006778   0.001532  -0.000141
    22  H   -0.000564   0.001942  -0.006778   0.418707  -0.009052   0.000633
    23  H    0.000343   0.000183   0.001532  -0.009052   0.437904  -0.000930
    24  H    0.000579   0.000175  -0.000141   0.000633  -0.000930   0.493240
    25  H    0.000579   0.000175  -0.000141   0.000633  -0.000930  -0.078803
              25
     1  C    0.032169
     2  C    0.014186
     3  C   -0.001662
     4  C   -0.012454
     5  C   -0.011925
     6  C   -0.001524
     7  C    0.015032
     8  C    0.034926
     9  C    0.355340
    10  C    0.005217
    11  C    0.010624
    12  C   -0.060570
    13  C    0.016943
    14  C   -0.060411
    15  H   -0.000913
    16  H    0.000635
    17  H   -0.000146
    18  H    0.000198
    19  H    0.000579
    20  H    0.000175
    21  H   -0.000141
    22  H    0.000633
    23  H   -0.000930
    24  H   -0.078803
    25  H    0.493240
 Mulliken charges:
               1
     1  C    0.097730
     2  C   -0.408080
     3  C   -0.441435
     4  C    0.004142
     5  C    0.013217
     6  C   -0.438350
     7  C   -0.405012
     8  C    0.086194
     9  C   -0.344771
    10  C    0.086700
    11  C   -0.626355
    12  C    0.691432
    13  C   -0.639541
    14  C    0.705279
    15  H    0.236861
    16  H    0.255092
    17  H    0.247937
    18  H    0.221134
    19  H    0.190457
    20  H    0.222961
    21  H    0.249731
    22  H    0.257358
    23  H    0.238154
    24  H    0.249582
    25  H    0.249582
 Sum of Mulliken charges =   1.00000
 Mulliken charges with hydrogens summed into heavy atoms:
               1
     1  C    0.334592
     2  C   -0.152987
     3  C   -0.193497
     4  C    0.225275
     5  C    0.236178
     6  C   -0.188620
     7  C   -0.147654
     8  C    0.324348
     9  C    0.154393
    10  C    0.277157
    11  C   -0.626355
    12  C    0.691432
    13  C   -0.639541
    14  C    0.705279
 Electronic spatial extent (au):  <R**2>=           2857.2796
 Charge=              1.0000 electrons
 Dipole moment (field-independent basis, Debye):
    X=             -0.0356    Y=             -0.3368    Z=              0.0000  Tot=              0.3386
 Quadrupole moment (field-independent basis, Debye-Ang):
   XX=            -50.7905   YY=            -36.5657   ZZ=            -84.1419
   XY=            -10.3924   XZ=             -0.0000   YZ=             -0.0000
 Traceless Quadrupole moment (field-independent basis, Debye-Ang):
   XX=              6.3756   YY=             20.6003   ZZ=            -26.9759
   XY=            -10.3924   XZ=             -0.0000   YZ=             -0.0000
 Octapole moment (field-independent basis, Debye-Ang**2):
  XXX=              0.5198  YYY=              2.7466  ZZZ=             -0.0000  XYY=              1.1184
  XXY=             -5.9599  XXZ=             -0.0000  XZZ=              2.9311  YZZ=              1.1049
  YYZ=             -0.0000  XYZ=              0.0000
 Hexadecapole moment (field-independent basis, Debye-Ang**3):
 XXXX=           -997.4187 YYYY=          -1843.3206 ZZZZ=            -99.3387 XXXY=            350.2197
 XXXZ=             -0.0000 YYYX=            277.0418 YYYZ=              0.0000 ZZZX=              0.0000
 ZZZY=              0.0000 XXYY=           -453.8687 XXZZ=           -243.8770 YYZZ=           -492.9166
 XXYZ=              0.0000 YYXZ=              0.0000 ZZXY=            184.5706
 N-N= 7.810009802083D+02 E-N=-2.798337882630D+03  KE= 5.374968188247D+02
 Symmetry A'   KE= 5.228491847765D+02
 Symmetry A"   KE= 1.464763404813D+01
 Unable to Open any file for archive entry.
 1\1\GINC-GADI-CPU-CLX-1762\SP\RM062X TD-FC\6-311++G(d,p)\C14H11(1+)\TS
 1578\02-Aug-2022\0\\#n M062X/6-311++G(d,p) TD(NStates=1) EmpiricalDisp
 ersion=GD3 SP\\SP_25\\1,1\C,0,2.501405,1.359531,0.\C,0,3.710683,0.6751
 64,0.\C,0,3.686761,-0.70863,0.\C,0,2.455456,-1.403188,0.\C,0,-2.471056
 ,-1.412288,0.\C,0,-3.682161,-0.72103,0.\C,0,-3.694233,0.668114,0.\C,0,
 -2.487705,1.360131,0.\C,0,0.004325,1.457769,0.\C,0,-0.0122,-1.429389,0
 .\C,0,1.26038,0.67329,0.\C,0,1.232071,-0.729904,0.\C,0,-1.26403,0.6809
 4,0.\C,0,-1.242071,-0.731104,0.\H,0,2.492371,2.442772,0.\H,0,4.646228,
 1.213814,0.\H,0,4.608112,-1.273824,0.\H,0,2.4636,-2.485784,0.\H,0,-0.0
 1125,-2.510366,0.\H,0,-2.4709,-2.494634,0.\H,0,-4.611012,-1.273374,0.\
 H,0,-4.629578,1.208064,0.\H,0,-2.488171,2.443222,0.\H,0,0.016,2.146787
 ,-0.860685\H,0,0.016,2.146787,0.860685\\Version=ES64L-G16RevC.01\State
 =1-A'\HF=-539.7598149\RMSD=5.691e-09\PG=CS [SG(C14H9),X(H2)]\\@
 The archive entry for this job was punched.


 MAN IS A SINGULAR CREATURE.  HE HAS A SET OF GIFTS
 WHICH MAKE HIM UNIQUE AMONG THE ANIMALS: SO THAT, 
 UNLIKE THEM, HE IS NOT A FIGURE IN THE LANDSCAPE --
 HE IS A SHAPER OF THE LANDSCAPE.

                       -- JACOB BRONOWSKI
 Job cpu time:       0 days  0 hours 51 minutes 45.4 seconds.
 Elapsed time:       0 days  0 hours  1 minutes  4.8 seconds.
 File lengths (MBytes):  RWF=    460 Int=      0 D2E=      0 Chk=     15 Scr=      1
 Normal termination of Gaussian 16 at Tue Aug  2 12:23:48 2022.
