 Entering Gaussian System, Link 0=g16
 Initial command:
 /apps/gaussian/g16c01/g16/l1.exe "/jobfs/53796104.gadi-pbs/Gau-3604674.inp" -scrdir="/jobfs/53796104.gadi-pbs/"
 Entering Link 1 = /apps/gaussian/g16c01/g16/l1.exe PID=   3604675.
  
 Copyright (c) 1988-2019, Gaussian, Inc.  All Rights Reserved.
  
 This is part of the Gaussian(R) 16 program.  It is based on
 the Gaussian(R) 09 system (copyright 2009, Gaussian, Inc.),
 the Gaussian(R) 03 system (copyright 2003, Gaussian, Inc.),
 the Gaussian(R) 98 system (copyright 1998, Gaussian, Inc.),
 the Gaussian(R) 94 system (copyright 1995, Gaussian, Inc.),
 the Gaussian 92(TM) system (copyright 1992, Gaussian, Inc.),
 the Gaussian 90(TM) system (copyright 1990, Gaussian, Inc.),
 the Gaussian 88(TM) system (copyright 1988, Gaussian, Inc.),
 the Gaussian 86(TM) system (copyright 1986, Carnegie Mellon
 University), and the Gaussian 82(TM) system (copyright 1983,
 Carnegie Mellon University). Gaussian is a federally registered
 trademark of Gaussian, Inc.
  
 This software contains proprietary and confidential information,
 including trade secrets, belonging to Gaussian, Inc.
  
 This software is provided under written license and may be
 used, copied, transmitted, or stored only in accord with that
 written license.
  
 The following legend is applicable only to US Government
 contracts under FAR:
  
                    RESTRICTED RIGHTS LEGEND
  
 Use, reproduction and disclosure by the US Government is
 subject to restrictions as set forth in subparagraphs (a)
 and (c) of the Commercial Computer Software - Restricted
 Rights clause in FAR 52.227-19.
  
 Gaussian, Inc.
 340 Quinnipiac St., Bldg. 40, Wallingford CT 06492
  
  
 ---------------------------------------------------------------
 Warning -- This program may not be used in any manner that
 competes with the business of Gaussian, Inc. or will provide
 assistance to any competitor of Gaussian, Inc.  The licensee
 of this program is prohibited from giving any competitor of
 Gaussian, Inc. access to this program.  By using this program,
 the user acknowledges that Gaussian, Inc. is engaged in the
 business of creating and licensing software in the field of
 computational chemistry and represents and warrants to the
 licensee that it is not a competitor of Gaussian, Inc. and that
 it will not use this program in any manner prohibited above.
 ---------------------------------------------------------------
  

 Cite this work as:
 Gaussian 16, Revision C.01,
 M. J. Frisch, G. W. Trucks, H. B. Schlegel, G. E. Scuseria, 
 M. A. Robb, J. R. Cheeseman, G. Scalmani, V. Barone, 
 G. A. Petersson, H. Nakatsuji, X. Li, M. Caricato, A. V. Marenich, 
 J. Bloino, B. G. Janesko, R. Gomperts, B. Mennucci, H. P. Hratchian, 
 J. V. Ortiz, A. F. Izmaylov, J. L. Sonnenberg, D. Williams-Young, 
 F. Ding, F. Lipparini, F. Egidi, J. Goings, B. Peng, A. Petrone, 
 T. Henderson, D. Ranasinghe, V. G. Zakrzewski, J. Gao, N. Rega, 
 G. Zheng, W. Liang, M. Hada, M. Ehara, K. Toyota, R. Fukuda, 
 J. Hasegawa, M. Ishida, T. Nakajima, Y. Honda, O. Kitao, H. Nakai, 
 T. Vreven, K. Throssell, J. A. Montgomery, Jr., J. E. Peralta, 
 F. Ogliaro, M. J. Bearpark, J. J. Heyd, E. N. Brothers, K. N. Kudin, 
 V. N. Staroverov, T. A. Keith, R. Kobayashi, J. Normand, 
 K. Raghavachari, A. P. Rendell, J. C. Burant, S. S. Iyengar, 
 J. Tomasi, M. Cossi, J. M. Millam, M. Klene, C. Adamo, R. Cammi, 
 J. W. Ochterski, R. L. Martin, K. Morokuma, O. Farkas, 
 J. B. Foresman, and D. J. Fox, Gaussian, Inc., Wallingford CT, 2019.
 
 ******************************************
 Gaussian 16:  ES64L-G16RevC.01  3-Jul-2019
                 2-Aug-2022 
 ******************************************
 %NProcShared=48
 Will use up to   48 processors via shared memory.
 %mem = 190GB
 ---------------------------------------------------------------
 #n M062X/6-311++G(d,p) TD(NStates=1) EmpiricalDispersion=GD3 SP
 ---------------------------------------------------------------
 1/38=1,172=1/1;
 2/12=2,17=6,18=5,40=1/2;
 3/5=4,6=6,7=1111,11=9,25=1,30=1,74=-55,124=31/1,2,3,8;
 4//1;
 5/5=2,38=5/2;
 8/6=1,10=2,108=1/1;
 9/41=1,42=1,70=2/14;
 6/7=2,8=2,9=2,10=2/1;
 99/5=1,9=1/99;
 -------
 SP_-100
 -------
 Symbolic Z-matrix:
 Charge =  1 Multiplicity = 1
 C                     2.52786   1.35863   0. 
 C                     3.74311   0.68944   0. 
 C                     3.69566  -0.68333   0. 
 C                     2.42421  -1.38489   0. 
 C                    -2.50221  -1.43039   0. 
 C                    -3.67266  -0.74533   0. 
 C                    -3.66086   0.65419   0. 
 C                    -2.45936   1.36163   0. 
 C                     0.02185   1.45557   0. 
 C                    -0.061    -1.42929   0. 
 C                     1.25301   0.65797   0. 
 C                     1.21227  -0.72765   0. 
 C                    -1.27126   0.69622   0. 
 C                    -1.26227  -0.73365   0. 
 H                     2.49967   2.4422    0. 
 H                     4.67895   1.22569   0. 
 H                     4.60216  -1.2741    0. 
 H                     2.44915  -2.46801   0. 
 H                    -0.05625  -2.51032   0. 
 H                    -2.48565  -2.51226   0. 
 H                    -4.61666  -1.27185   0. 
 H                    -4.5957    1.19694   0. 
 H                    -2.47867   2.44445   0. 
 H                     0.08      2.14629  -0.86014 
 H                     0.08      2.14629   0.86014 
 
                          Input orientation:                          
 ---------------------------------------------------------------------
 Center     Atomic      Atomic             Coordinates (Angstroms)
 Number     Number       Type             X           Y           Z
 ---------------------------------------------------------------------
      1          6           0        2.527855    1.358631    0.000000
      2          6           0        3.743108    0.689439    0.000000
      3          6           0        3.695661   -0.683330    0.000000
      4          6           0        2.424206   -1.384888    0.000000
      5          6           0       -2.502206   -1.430388    0.000000
      6          6           0       -3.672661   -0.745330    0.000000
      7          6           0       -3.660858    0.654189    0.000000
      8          6           0       -2.459355    1.361631    0.000000
      9          6           0        0.021850    1.455569    0.000000
     10          6           0       -0.061000   -1.429289    0.000000
     11          6           0        1.253005    0.657965    0.000000
     12          6           0        1.212271   -0.727654    0.000000
     13          6           0       -1.271255    0.696215    0.000000
     14          6           0       -1.262271   -0.733654    0.000000
     15          1           0        2.499671    2.442197    0.000000
     16          1           0        4.678953    1.225689    0.000000
     17          1           0        4.602162   -1.274099    0.000000
     18          1           0        2.449150   -2.468009    0.000000
     19          1           0       -0.056250   -2.510316    0.000000
     20          1           0       -2.485650   -2.512259    0.000000
     21          1           0       -4.616662   -1.271849    0.000000
     22          1           0       -4.595703    1.196939    0.000000
     23          1           0       -2.478671    2.444447    0.000000
     24          1           0        0.080000    2.146287   -0.860135
     25          1           0        0.080000    2.146287    0.860135
 ---------------------------------------------------------------------
                    Distance matrix (angstroms):
                    1          2          3          4          5
     1  C    0.000000
     2  C    1.387320   0.000000
     3  C    2.352313   1.373589   0.000000
     4  C    2.745476   2.458116   1.452164   0.000000
     5  C    5.751534   6.595272   6.242728   4.926622   0.000000
     6  C    6.547752   7.553290   7.368583   6.130320   1.356197
     7  C    6.228676   7.404050   7.477120   6.417619   2.384939
     8  C    4.987211   6.238781   6.485837   5.602904   2.792348
     9  C    2.507879   3.799305   4.251091   3.720149   3.834007
    10  C    3.804559   4.354336   3.830007   2.485603   2.441206
    11  C    1.454708   2.490302   2.786690   2.354774   4.296839
    12  C    2.466444   2.900567   2.483786   1.378674   3.780367
    13  C    3.856427   5.014368   5.154939   4.241158   2.457169
    14  C    4.329285   5.203750   4.958187   3.743557   1.422279
    15  H    1.083932   2.149022   3.346537   3.827829   6.325795
    16  H    2.155202   1.078596   2.147374   3.449492   7.656617
    17  H    3.351718   2.143235   1.082013   2.180772   7.106087
    18  H    3.827449   3.412302   2.176894   1.083408   5.058911
    19  H    4.652564   4.967248   4.173094   2.723830   2.673751
    20  H    6.333958   7.003449   6.446207   5.037624   1.081998
    21  H    7.613380   8.586758   8.333131   7.041775   2.120391
    22  H    7.125393   8.354240   8.501890   7.479636   3.359401
    23  H    5.122919   6.464564   6.921370   6.221094   3.874906
    24  H    2.711499   4.034922   4.671142   4.324850   4.494466
    25  H    2.711499   4.034922   4.671142   4.324850   4.494466
                    6          7          8          9         10
     6  C    0.000000
     7  C    1.399569   0.000000
     8  C    2.431336   1.394304   0.000000
     9  C    4.300392   3.768892   2.482983   0.000000
    10  C    3.675853   4.159310   3.679856   2.886047   0.000000
    11  C    5.121662   4.913864   3.778460   1.466941   2.466422
    12  C    4.884964   5.065262   4.224447   2.486677   1.453792
    13  C    2.800858   2.389973   1.361749   1.499580   2.445912
    14  C    2.410418   2.771160   2.413137   2.538043   1.388150
    15  H    6.946799   6.414756   5.075388   2.667027   4.641707
    16  H    8.581047   8.359370   7.139602   4.662773   5.432869
    17  H    8.291700   8.485034   7.537380   5.332011   4.665744
    18  H    6.359575   6.861510   6.225718   4.613702   2.716577
    19  H    4.024128   4.796592   4.557070   3.966654   1.081037
    20  H    2.128622   3.377500   3.873979   4.693742   2.655513
    21  H    1.080907   2.150159   3.404290   5.380948   4.558382
    22  H    2.150445   1.080978   2.142687   4.624790   5.240287
    23  H    3.405920   2.145365   1.082988   2.688956   4.566286
    24  H    4.814950   4.118277   2.793536   1.104674   3.680279
    25  H    4.814950   4.118277   2.793536   1.104674   3.680279
                   11         12         13         14         15
    11  C    0.000000
    12  C    1.386218   0.000000
    13  C    2.524550   2.862744   0.000000
    14  C    2.874581   2.474549   1.429897   0.000000
    15  H    2.176617   3.421309   4.155519   4.923234   0.000000
    16  H    3.472669   3.979125   5.973719   6.255971   2.495829
    17  H    3.866487   3.433652   6.195092   5.889283   4.269815
    18  H    3.347010   2.135112   4.884028   4.096661   4.910466
    19  H    3.428141   2.187928   3.429005   2.147327   5.573160
    20  H    4.901822   4.106024   3.430606   2.158725   7.028518
    21  H    6.178768   5.854281   3.881369   3.397292   8.027224
    22  H    5.873489   6.118547   3.361946   3.852137   7.203818
    23  H    4.137260   4.866752   2.124657   3.402933   4.978343
    24  H    2.081076   3.206463   2.160655   3.291745   2.584996
    25  H    2.081076   3.206463   2.160655   3.291745   2.584996
                   16         17         18         19         20
    16  H    0.000000
    17  H    2.500967   0.000000
    18  H    4.314560   2.461886   0.000000
    19  H    6.031574   4.819651   2.505757   0.000000
    20  H    8.081076   7.195146   4.934998   2.429401   0.000000
    21  H    9.625287   9.218824   7.166345   4.725585   2.465731
    22  H    9.274701   9.524009   7.941146   5.860919   4.267373
    23  H    7.260644   7.997861   6.958135   5.515233   4.956711
    24  H    4.768407   5.734878   5.257797   4.737336   5.387434
    25  H    4.768407   5.734878   5.257797   4.737336   5.387434
                   21         22         23         24         25
    21  H    0.000000
    22  H    2.468877   0.000000
    23  H    4.287407   2.457255   0.000000
    24  H    5.872148   4.848019   2.715792   0.000000
    25  H    5.872148   4.848019   2.715792   1.720270   0.000000
 Stoichiometry    C14H11(1+)
 Framework group  CS[SG(C14H9),X(H2)]
 Deg. of freedom    46
 Full point group                 CS      NOp   2
 Largest Abelian subgroup         CS      NOp   2
 Largest concise Abelian subgroup CS      NOp   2
                         Standard orientation:                         
 ---------------------------------------------------------------------
 Center     Atomic      Atomic             Coordinates (Angstroms)
 Number     Number       Type             X           Y           Z
 ---------------------------------------------------------------------
      1          6           0        2.465865    1.466563    0.000000
      2          6           0        2.517987    2.852904    0.000000
      3          6           0        1.316776    3.519116    0.000000
      4          6           0        0.060665    2.790441    0.000000
      5          6           0       -2.515113   -1.409199    0.000000
      6          6           0       -2.530566   -2.765307    0.000000
      7          6           0       -1.324779   -3.475848    0.000000
      8          6           0       -0.099644   -2.810169    0.000000
      9          6           0        1.258537   -0.731577    0.000000
     10          6           0       -1.257112    0.682911    0.000000
     11          6           0        1.208770    0.734520    0.000000
     12          6           0        0.000000    1.413102    0.000000
     13          6           0       -0.058267   -1.449049    0.000000
     14          6           0       -1.279367   -0.705060    0.000000
     15          1           0        3.380217    0.884439    0.000000
     16          1           0        3.459575    3.379006    0.000000
     17          1           0        1.277139    4.600402    0.000000
     18          1           0       -0.854975    3.369559    0.000000
     19          1           0       -2.181355    1.243640    0.000000
     20          1           0       -3.434000   -0.837915    0.000000
     21          1           0       -3.468012   -3.303411    0.000000
     22          1           0       -1.340900   -4.556706    0.000000
     23          1           0        0.818632   -3.384305    0.000000
     24          1           0        1.880585   -1.037402    0.860135
     25          1           0        1.880585   -1.037402   -0.860135
 ---------------------------------------------------------------------
 Rotational constants (GHZ):           2.1361654           0.4443932           0.3686654
 Standard basis: 6-311++G(d,p) (5D, 7F)
 There are   299 symmetry adapted cartesian basis functions of A'  symmetry.
 There are   100 symmetry adapted cartesian basis functions of A"  symmetry.
 There are   285 symmetry adapted basis functions of A'  symmetry.
 There are   100 symmetry adapted basis functions of A"  symmetry.
   385 basis functions,   603 primitive gaussians,   399 cartesian basis functions
    47 alpha electrons       47 beta electrons
       nuclear repulsion energy       781.1829564243 Hartrees.
 NAtoms=   25 NActive=   25 NUniq=   24 SFac= 1.09D+00 NAtFMM=   60 NAOKFM=F Big=F
 Integral buffers will be    131072 words long.
 Regular integral format.
 Two-electron integral symmetry is turned on.
 Nuclear repulsion after empirical dispersion term =      781.1819775818 Hartrees.
 One-electron integrals computed using PRISM.
 NBasis=   385 RedAO= T EigKep=  1.12D-06  NBF=   285   100
 NBsUse=   379 1.00D-06 EigRej=  8.35D-07 NBFU=   279   100
 ExpMin= 3.60D-02 ExpMax= 4.56D+03 ExpMxC= 6.82D+02 IAcc=3 IRadAn=         5 AccDes= 0.00D+00
 Harris functional with IExCor= 1009 and IRadAn=       5 diagonalized for initial guess.
 HarFok:  IExCor= 1009 AccDes= 0.00D+00 IRadAn=         5 IDoV= 1 UseB2=F ITyADJ=14
 ICtDFT=  3500011 ScaDFX=  1.000000  1.000000  1.000000  1.000000
 FoFCou: FMM=F IPFlag=           0 FMFlag=      100000 FMFlg1=           0
         NFxFlg=           0 DoJE=T BraDBF=F KetDBF=T FulRan=T
         wScrn=  0.000000 ICntrl=       500 IOpCl=  0 I1Cent=   200000004 NGrid=           0
         NMat0=    1 NMatS0=      1 NMatT0=    0 NMatD0=    1 NMtDS0=    0 NMtDT0=    0
 Petite list used in FoFCou.
 Initial guess orbital symmetries:
       Occupied  (A') (A') (A') (A') (A') (A') (A') (A') (A') (A')
                 (A') (A') (A') (A') (A') (A') (A') (A') (A') (A')
                 (A') (A') (A') (A') (A') (A') (A') (A') (A') (A')
                 (A') (A') (A") (A') (A') (A') (A') (A') (A") (A')
                 (A") (A') (A') (A") (A") (A") (A")
       Virtual   (A") (A") (A") (A") (A") (A') (A') (A') (A') (A")
                 (A") (A') (A') (A') (A") (A') (A') (A') (A') (A")
                 (A') (A") (A') (A') (A') (A") (A') (A') (A") (A')
                 (A') (A') (A') (A') (A") (A') (A") (A') (A') (A')
                 (A") (A') (A") (A') (A') (A') (A') (A') (A") (A')
                 (A') (A') (A") (A") (A') (A') (A') (A") (A") (A')
                 (A') (A') (A') (A') (A') (A') (A") (A') (A') (A")
                 (A') (A') (A') (A') (A') (A') (A') (A') (A') (A')
                 (A') (A') (A') (A') (A') (A') (A') (A') (A') (A')
                 (A') (A') (A') (A') (A') (A') (A') (A") (A') (A")
                 (A') (A") (A') (A") (A') (A") (A') (A") (A") (A')
                 (A") (A') (A') (A') (A") (A') (A') (A") (A") (A')
                 (A") (A") (A') (A') (A') (A") (A') (A') (A') (A")
                 (A') (A') (A') (A') (A') (A') (A") (A') (A') (A')
                 (A') (A') (A') (A') (A') (A') (A') (A') (A') (A")
                 (A") (A') (A") (A") (A') (A') (A') (A") (A') (A")
                 (A") (A') (A") (A") (A") (A') (A') (A') (A') (A')
                 (A') (A") (A') (A') (A") (A') (A') (A') (A') (A")
                 (A') (A') (A') (A') (A") (A") (A') (A') (A") (A")
                 (A") (A') (A') (A") (A') (A') (A') (A") (A') (A')
                 (A") (A") (A") (A') (A') (A") (A') (A") (A') (A')
                 (A") (A") (A') (A") (A') (A') (A") (A') (A') (A')
                 (A") (A') (A') (A') (A") (A') (A') (A') (A") (A")
                 (A') (A') (A') (A") (A') (A') (A") (A') (A") (A')
                 (A") (A') (A') (A') (A') (A") (A') (A') (A') (A")
                 (A') (A') (A') (A") (A") (A') (A') (A") (A') (A')
                 (A') (A") (A') (A") (A') (A') (A') (A") (A') (A")
                 (A') (A') (A') (A') (A") (A') (A") (A') (A") (A")
                 (A') (A') (A") (A") (A") (A') (A') (A') (A') (A')
                 (A') (A') (A') (A') (A') (A') (A') (A') (A') (A')
                 (A') (A') (A') (A') (A") (A') (A') (A') (A') (A')
                 (A') (A') (A') (A') (A') (A') (A') (A') (A') (A')
                 (A') (A') (A') (A') (A') (A') (A') (A') (A') (A')
                 (A') (A')
 The electronic state of the initial guess is 1-A'.
 Requested convergence on RMS density matrix=1.00D-08 within 128 cycles.
 Requested convergence on MAX density matrix=1.00D-06.
 Requested convergence on             energy=1.00D-06.
 No special actions if energy rises.
 SCF Done:  E(RM062X) =  -539.749373117     A.U. after   16 cycles
            NFock= 16  Conv=0.35D-08     -V/T= 2.0041
 DoSCS=F DFT=T ScalE2(SS,OS)=  1.000000  1.000000
 ExpMin= 3.60D-02 ExpMax= 4.56D+03 ExpMxC= 6.82D+02 IAcc=3 IRadAn=         5 AccDes= 0.00D+00
 HarFok:  IExCor=  205 AccDes= 0.00D+00 IRadAn=         5 IDoV=-2 UseB2=F ITyADJ=14
 ICtDFT= 12500011 ScaDFX=  1.000000  1.000000  1.000000  1.000000
 Range of M.O.s used for correlation:    15   379
 NBasis=   385 NAE=    47 NBE=    47 NFC=    14 NFV=     0
 NROrb=    365 NOA=    33 NOB=    33 NVA=   332 NVB=   332

 **** Warning!!: The largest alpha MO coefficient is  0.14009976D+03

 Orbital symmetries:
       Occupied  (A') (A') (A') (A') (A') (A') (A') (A') (A') (A')
                 (A') (A') (A') (A') (A') (A') (A') (A') (A') (A')
                 (A') (A') (A') (A') (A') (A') (A') (A') (A') (A')
                 (A') (A") (A') (A') (A') (A') (A') (A") (A') (A")
                 (A') (A') (A') (A") (A") (A") (A")
       Virtual   (A") (A") (A") (A") (A') (A') (A') (A') (A") (A')
                 (A') (A") (A') (A') (A") (A') (A") (A') (A') (A')
                 (A") (A") (A') (A') (A') (A") (A') (A") (A') (A')
                 (A") (A') (A") (A') (A') (A') (A') (A') (A") (A')
                 (A") (A') (A') (A") (A") (A') (A") (A') (A") (A')
                 (A') (A') (A') (A') (A') (A") (A') (A') (A') (A')
                 (A') (A") (A') (A') (A') (A") (A') (A') (A') (A')
                 (A') (A') (A') (A') (A') (A') (A') (A') (A') (A')
                 (A') (A') (A') (A') (A') (A') (A') (A') (A') (A')
                 (A') (A') (A') (A') (A") (A') (A") (A") (A') (A")
                 (A') (A') (A') (A') (A") (A") (A') (A") (A") (A')
                 (A') (A") (A') (A') (A") (A') (A') (A") (A') (A")
                 (A") (A') (A") (A') (A') (A') (A") (A') (A') (A')
                 (A') (A') (A') (A') (A') (A') (A') (A') (A') (A')
                 (A') (A') (A') (A") (A') (A') (A') (A') (A') (A')
                 (A') (A") (A') (A') (A") (A') (A") (A") (A') (A")
                 (A") (A') (A') (A") (A') (A") (A") (A") (A') (A')
                 (A') (A') (A") (A') (A') (A") (A') (A') (A') (A")
                 (A') (A') (A') (A") (A") (A') (A') (A") (A") (A')
                 (A") (A') (A') (A") (A') (A") (A') (A') (A') (A')
                 (A") (A") (A") (A') (A") (A') (A') (A") (A') (A')
                 (A') (A") (A') (A") (A") (A') (A") (A') (A') (A")
                 (A') (A') (A') (A') (A") (A') (A') (A') (A") (A")
                 (A') (A') (A') (A") (A') (A') (A') (A") (A") (A')
                 (A") (A') (A') (A") (A') (A') (A') (A') (A') (A')
                 (A") (A') (A') (A') (A') (A") (A") (A") (A') (A')
                 (A') (A') (A') (A') (A') (A') (A') (A") (A') (A')
                 (A') (A") (A') (A") (A") (A") (A') (A") (A') (A")
                 (A') (A") (A") (A') (A") (A") (A') (A') (A') (A')
                 (A') (A') (A') (A') (A') (A') (A') (A') (A') (A')
                 (A') (A') (A') (A") (A') (A') (A') (A') (A') (A')
                 (A') (A') (A') (A') (A') (A') (A') (A') (A') (A')
                 (A') (A') (A') (A') (A') (A') (A') (A') (A') (A')
                 (A') (A')
     4 initial guesses have been made.
 Convergence on wavefunction:    0.001000000000000
 Iteration     1 Dimension     4 NMult     0 NNew      4
 CISAX will form     4 AO SS matrices at one time.
 Iteration     2 Dimension     6 NMult     4 NNew      2
 Iteration     3 Dimension     8 NMult     6 NNew      2
 Iteration     4 Dimension    10 NMult     8 NNew      2
 Iteration     5 Dimension    12 NMult    10 NNew      2
 Iteration     6 Dimension    14 NMult    12 NNew      2
 ***********************************************************************
 Excited states from <AA,BB:AA,BB> singles matrix:
 ***********************************************************************
 
 Ground to excited state transition densities written to RWF  633
 Ground to excited state transition electric dipole moments (Au):
       state          X           Y           Z        Dip. S.      Osc.
         1         0.4818     -0.2002      0.0000      0.2722      0.0173
 Ground to excited state transition velocity dipole moments (Au):
       state          X           Y           Z        Dip. S.      Osc.
         1        -0.0493      0.0261     -0.0000      0.0031      0.0218
 Ground to excited state transition magnetic dipole moments (Au):
       state          X           Y           Z
         1        -0.0000      0.0000      0.1670
 Ground to excited state transition velocity quadrupole moments (Au):
       state          XX          YY          ZZ          XY          XZ          YZ
         1        -0.0037      0.2448     -0.0077      0.0468      0.0000     -0.0000
 <0|del|b> * <b|rxdel|0> + <0|del|b> * <b|delr+rdel|0>
 Rotatory Strengths (R) in cgs (10**-40 erg-esu-cm/Gauss)
       state          XX          YY          ZZ    R(velocity)    E-M Angle
         1        -0.0000     -0.0000      0.0000     -0.0000       90.00
 1/2[<0|r|b>*<b|rxdel|0> + (<0|rxdel|b>*<b|r|0>)*]
 Rotatory Strengths (R) in cgs (10**-40 erg-esu-cm/Gauss)
       state          XX          YY          ZZ     R(length)
         1         0.0000      0.0000     -0.0000      0.0000
  1/2[<0|del|b>*<b|r|0> + (<0|r|b>*<b|del|0>)*] (Au)
       state          X           Y           Z        Dip. S.   Osc.(frdel)
         1        -0.0237     -0.0052     -0.0000      0.0290      0.0193

 Excitation energies and oscillator strengths:
 
 Excited State   1:      Singlet-A'     2.5869 eV  479.28 nm  f=0.0173  <S**2>=0.000
      47 -> 48         0.70344
 This state for optimization and/or second-order correction.
 Total Energy, E(TD-HF/TD-DFT) =  -539.654306599    
 Copying the excited state density for this state as the 1-particle RhoCI density.
 SavETr:  write IOETrn=   770 NScale= 10 NData=  16 NLR=1 NState=    1 LETran=      28.

 **********************************************************************

            Population analysis using the SCF Density.

 **********************************************************************

 Orbital symmetries:
       Occupied  (A') (A') (A') (A') (A') (A') (A') (A') (A') (A')
                 (A') (A') (A') (A') (A') (A') (A') (A') (A') (A')
                 (A') (A') (A') (A') (A') (A') (A') (A') (A') (A')
                 (A') (A") (A') (A') (A') (A') (A') (A") (A') (A")
                 (A') (A') (A') (A") (A") (A") (A")
       Virtual   (A") (A") (A") (A") (A') (A') (A') (A') (A") (A')
                 (A') (A") (A') (A') (A") (A') (A") (A') (A') (A')
                 (A") (A") (A') (A') (A') (A") (A') (A") (A') (A')
                 (A") (A') (A") (A') (A') (A') (A') (A') (A") (A')
                 (A") (A') (A') (A") (A") (A') (A") (A') (A") (A')
                 (A') (A') (A') (A') (A') (A") (A') (A') (A') (A')
                 (A') (A") (A') (A') (A') (A") (A') (A') (A') (A')
                 (A') (A') (A') (A') (A') (A') (A') (A') (A') (A')
                 (A') (A') (A') (A') (A') (A') (A') (A') (A') (A')
                 (A') (A') (A') (A') (A") (A') (A") (A") (A') (A")
                 (A') (A') (A') (A') (A") (A") (A') (A") (A") (A')
                 (A') (A") (A') (A') (A") (A') (A') (A") (A') (A")
                 (A") (A') (A") (A') (A') (A') (A") (A') (A') (A')
                 (A') (A') (A') (A') (A') (A') (A') (A') (A') (A')
                 (A') (A') (A') (A") (A') (A') (A') (A') (A') (A')
                 (A') (A") (A') (A') (A") (A') (A") (A") (A') (A")
                 (A") (A') (A') (A") (A') (A") (A") (A") (A') (A')
                 (A') (A') (A") (A') (A') (A") (A') (A') (A') (A")
                 (A') (A') (A') (A") (A") (A') (A') (A") (A") (A')
                 (A") (A') (A') (A") (A') (A") (A') (A') (A') (A')
                 (A") (A") (A") (A') (A") (A') (A') (A") (A') (A')
                 (A') (A") (A') (A") (A") (A') (A") (A') (A') (A")
                 (A') (A') (A') (A') (A") (A') (A') (A') (A") (A")
                 (A') (A') (A') (A") (A') (A') (A') (A") (A") (A')
                 (A") (A') (A') (A") (A') (A') (A') (A') (A') (A')
                 (A") (A') (A') (A') (A') (A") (A") (A") (A') (A')
                 (A') (A') (A') (A') (A') (A') (A') (A") (A') (A')
                 (A') (A") (A') (A") (A") (A") (A') (A") (A') (A")
                 (A') (A") (A") (A') (A") (A") (A') (A') (A') (A')
                 (A') (A') (A') (A') (A') (A') (A') (A') (A') (A')
                 (A') (A') (A') (A") (A') (A') (A') (A') (A') (A')
                 (A') (A') (A') (A') (A') (A') (A') (A') (A') (A')
                 (A') (A') (A') (A') (A') (A') (A') (A') (A') (A')
                 (A') (A')
 The electronic state is 1-A'.
 Alpha  occ. eigenvalues --  -10.77525 -10.73947 -10.72947 -10.72518 -10.72346
 Alpha  occ. eigenvalues --  -10.71998 -10.71793 -10.70994 -10.70646 -10.70298
 Alpha  occ. eigenvalues --  -10.70032 -10.69797 -10.69646 -10.69224  -1.16603
 Alpha  occ. eigenvalues --   -1.12471  -1.06934  -1.05928  -1.01268  -1.00545
 Alpha  occ. eigenvalues --   -0.95441  -0.91004  -0.86456  -0.85882  -0.83749
 Alpha  occ. eigenvalues --   -0.78288  -0.76204  -0.74338  -0.69906  -0.69360
 Alpha  occ. eigenvalues --   -0.68201  -0.68086  -0.67995  -0.65499  -0.64220
 Alpha  occ. eigenvalues --   -0.62620  -0.61405  -0.60634  -0.59197  -0.59102
 Alpha  occ. eigenvalues --   -0.56963  -0.55265  -0.54389  -0.52442  -0.47647
 Alpha  occ. eigenvalues --   -0.46142  -0.43458
 Alpha virt. eigenvalues --   -0.26119  -0.14665  -0.14063  -0.12752  -0.11199
 Alpha virt. eigenvalues --   -0.10098  -0.09277  -0.07946  -0.07900  -0.07490
 Alpha virt. eigenvalues --   -0.07217  -0.07127  -0.05649  -0.05569  -0.05366
 Alpha virt. eigenvalues --   -0.03865  -0.03677  -0.03269  -0.03132  -0.02150
 Alpha virt. eigenvalues --   -0.01336  -0.00974   0.00184   0.00591   0.00629
 Alpha virt. eigenvalues --    0.01070   0.01497   0.01927   0.02105   0.02304
 Alpha virt. eigenvalues --    0.02447   0.02676   0.02827   0.03221   0.03481
 Alpha virt. eigenvalues --    0.04206   0.04492   0.04742   0.05047   0.05407
 Alpha virt. eigenvalues --    0.06017   0.06284   0.06565   0.07060   0.07284
 Alpha virt. eigenvalues --    0.07913   0.08034   0.08342   0.08697   0.08895
 Alpha virt. eigenvalues --    0.09447   0.09589   0.09921   0.10777   0.10916
 Alpha virt. eigenvalues --    0.11137   0.12049   0.12243   0.12589   0.13047
 Alpha virt. eigenvalues --    0.13490   0.13525   0.13953   0.14282   0.15727
 Alpha virt. eigenvalues --    0.16381   0.16529   0.17319   0.17340   0.17748
 Alpha virt. eigenvalues --    0.18134   0.19076   0.19374   0.19730   0.20047
 Alpha virt. eigenvalues --    0.21442   0.21678   0.22619   0.23251   0.23583
 Alpha virt. eigenvalues --    0.24020   0.24505   0.25504   0.26966   0.27626
 Alpha virt. eigenvalues --    0.28868   0.29228   0.29971   0.31349   0.35734
 Alpha virt. eigenvalues --    0.36498   0.38237   0.39284   0.40967   0.41198
 Alpha virt. eigenvalues --    0.41990   0.42047   0.42983   0.43714   0.44460
 Alpha virt. eigenvalues --    0.44721   0.45149   0.45804   0.46494   0.47849
 Alpha virt. eigenvalues --    0.48310   0.48722   0.49050   0.50597   0.51025
 Alpha virt. eigenvalues --    0.51144   0.52164   0.52208   0.52699   0.54147
 Alpha virt. eigenvalues --    0.54252   0.54581   0.55598   0.56093   0.57646
 Alpha virt. eigenvalues --    0.58209   0.59081   0.61552   0.62310   0.62482
 Alpha virt. eigenvalues --    0.63137   0.63462   0.64899   0.65177   0.67615
 Alpha virt. eigenvalues --    0.70235   0.70425   0.71343   0.72598   0.72945
 Alpha virt. eigenvalues --    0.75459   0.76067   0.76487   0.76693   0.77123
 Alpha virt. eigenvalues --    0.77887   0.78101   0.78338   0.79948   0.80382
 Alpha virt. eigenvalues --    0.81221   0.81527   0.82583   0.82980   0.85289
 Alpha virt. eigenvalues --    0.86963   0.87857   0.88170   0.89456   0.90722
 Alpha virt. eigenvalues --    0.91022   0.91577   0.93397   0.94574   0.96204
 Alpha virt. eigenvalues --    0.97067   0.99904   1.01312   1.01408   1.02656
 Alpha virt. eigenvalues --    1.02925   1.03343   1.04993   1.06860   1.09014
 Alpha virt. eigenvalues --    1.19606   1.22742   1.23699   1.24194   1.29072
 Alpha virt. eigenvalues --    1.29469   1.32560   1.34256   1.35728   1.35931
 Alpha virt. eigenvalues --    1.39208   1.39403   1.40666   1.42865   1.43334
 Alpha virt. eigenvalues --    1.43372   1.44362   1.46369   1.46529   1.47424
 Alpha virt. eigenvalues --    1.47753   1.48402   1.51830   1.53724   1.55720
 Alpha virt. eigenvalues --    1.55743   1.56235   1.56603   1.57860   1.61507
 Alpha virt. eigenvalues --    1.62764   1.63427   1.64384   1.66067   1.68248
 Alpha virt. eigenvalues --    1.68425   1.68744   1.69929   1.74447   1.76064
 Alpha virt. eigenvalues --    1.77178   1.78117   1.79692   1.79917   1.80995
 Alpha virt. eigenvalues --    1.82636   1.83176   1.83615   1.83775   1.84195
 Alpha virt. eigenvalues --    1.84769   1.85323   1.86573   1.88473   1.91464
 Alpha virt. eigenvalues --    1.92226   1.94020   1.95467   1.97881   1.98164
 Alpha virt. eigenvalues --    1.99871   2.02391   2.04663   2.07369   2.11663
 Alpha virt. eigenvalues --    2.12268   2.14394   2.15314   2.19044   2.21182
 Alpha virt. eigenvalues --    2.22691   2.28355   2.30394   2.34329   2.34672
 Alpha virt. eigenvalues --    2.36460   2.38537   2.39747   2.42308   2.44475
 Alpha virt. eigenvalues --    2.46073   2.46480   2.49058   2.52984   2.53773
 Alpha virt. eigenvalues --    2.54309   2.56915   2.57985   2.58521   2.59307
 Alpha virt. eigenvalues --    2.59962   2.61479   2.62150   2.63595   2.63674
 Alpha virt. eigenvalues --    2.64881   2.65027   2.65042   2.65739   2.67929
 Alpha virt. eigenvalues --    2.68291   2.70907   2.71518   2.73403   2.74804
 Alpha virt. eigenvalues --    2.76263   2.78130   2.79587   2.83279   2.83348
 Alpha virt. eigenvalues --    2.84848   2.86259   2.92130   2.97203   2.99353
 Alpha virt. eigenvalues --    3.00217   3.04873   3.08632   3.11032   3.14603
 Alpha virt. eigenvalues --    3.20211   3.21345   3.25728   3.28969   3.31063
 Alpha virt. eigenvalues --    3.32850   3.35188   3.44362   3.46509   3.46829
 Alpha virt. eigenvalues --    3.48334   3.49985   3.56417   3.65771   3.67103
 Alpha virt. eigenvalues --    3.68255   3.93209   3.93857   3.95272   3.96721
 Alpha virt. eigenvalues --    4.03843   4.06221   4.07750   4.12523   4.35079
 Alpha virt. eigenvalues --    4.60530   4.68611   4.70785  23.45130  23.59716
 Alpha virt. eigenvalues --   23.78563  23.80679  23.83801  23.89242  23.92232
 Alpha virt. eigenvalues --   23.95196  23.96058  23.98633  24.05264  24.08703
 Alpha virt. eigenvalues --   24.12007  24.15136
          Condensed to atoms (all electrons):
               1          2          3          4          5          6
     1  C    9.211225  -0.192980  -0.297190   2.409607  -0.121190  -0.110091
     2  C   -0.192980   7.260804   0.182852  -1.268130   0.030890  -0.012464
     3  C   -0.297190   0.182852   6.615264   0.861862  -0.149091   0.016867
     4  C    2.409607  -1.268130   0.861862  10.605881  -0.401253  -0.108871
     5  C   -0.121190   0.030890  -0.149091  -0.401253  11.775822   0.700491
     6  C   -0.110091  -0.012464   0.016867  -0.108871   0.700491   6.621390
     7  C    0.006994  -0.001199  -0.015327  -0.045747  -0.970232   0.439843
     8  C    0.412201  -0.037743  -0.081538   0.000208   1.695574  -0.682018
     9  C   -1.090851  -0.785539   0.296097  -0.475632   0.151981   0.294493
    10  C   -1.439936   0.392410  -0.468602  -2.303629  -2.871381  -0.223650
    11  C    0.293347  -1.001113   1.139569  -0.368680  -1.622593  -0.243459
    12  C   -2.883231   1.933723  -1.568294  -1.675143  -0.515264  -0.082817
    13  C    0.344985  -0.338077  -0.083272  -1.387625  -0.384243   0.836749
    14  C   -1.058116  -0.022817  -0.322275  -0.182375  -1.695174  -1.335078
    15  H    0.372724  -0.110423   0.002804   0.030983   0.003865   0.000931
    16  H   -0.015184   0.371253  -0.010373   0.008612  -0.001206  -0.000282
    17  H   -0.036330  -0.003507   0.365055  -0.065577   0.000496   0.000377
    18  H    0.056120   0.001173  -0.083952   0.454049   0.005800  -0.005369
    19  H   -0.048675  -0.007467   0.052100  -0.058807  -0.086528   0.051376
    20  H    0.006842   0.002186  -0.005049   0.005645   0.472268  -0.082772
    21  H   -0.001448  -0.000360   0.000419   0.000065  -0.071076   0.383725
    22  H    0.001186   0.000416  -0.000370  -0.001740   0.018359  -0.023520
    23  H    0.004508  -0.002986   0.001292   0.006590   0.024280  -0.003700
    24  H    0.026008   0.012357  -0.001918  -0.013622  -0.010757  -0.001208
    25  H    0.026008   0.012357  -0.001918  -0.013622  -0.010757  -0.001208
               7          8          9         10         11         12
     1  C    0.006994   0.412201  -1.090851  -1.439936   0.293347  -2.883231
     2  C   -0.001199  -0.037743  -0.785539   0.392410  -1.001113   1.933723
     3  C   -0.015327  -0.081538   0.296097  -0.468602   1.139569  -1.568294
     4  C   -0.045747   0.000208  -0.475632  -2.303629  -0.368680  -1.675143
     5  C   -0.970232   1.695574   0.151981  -2.871381  -1.622593  -0.515264
     6  C    0.439843  -0.682018   0.294493  -0.223650  -0.243459  -0.082817
     7  C    7.227427   0.575266  -0.895718   0.126242  -0.204826  -0.331438
     8  C    0.575266   8.299483  -1.120103  -1.180314   0.202076  -1.175873
     9  C   -0.895718  -1.120103   9.649269   0.244210   1.380632  -1.633436
    10  C    0.126242  -1.180314   0.244210   9.073214  -0.469686   2.471577
    11  C   -0.204826   0.202076   1.380632  -0.469686  14.154575  -3.094761
    12  C   -0.331438  -1.175873  -1.633436   2.471577  -3.094761  15.793269
    13  C   -0.736511   0.359739   1.579039  -0.242400   1.037355  -4.803299
    14  C    0.943186  -1.758924  -2.159607   2.361127  -4.636375   3.132786
    15  H   -0.002095   0.007104   0.097366  -0.011807  -0.036145  -0.041672
    16  H    0.000294   0.000285   0.003870  -0.007203   0.024633  -0.031904
    17  H   -0.000423  -0.001204  -0.006573   0.019959  -0.026088   0.098958
    18  H    0.002042   0.006753  -0.026212   0.014561  -0.000255  -0.071033
    19  H   -0.008619  -0.042454   0.074184   0.422967   0.083806  -0.038753
    20  H    0.003972   0.046432  -0.021344   0.003868  -0.012646  -0.024754
    21  H   -0.024347  -0.018507  -0.004319   0.019820  -0.006319   0.005250
    22  H    0.384474  -0.020082   0.000796  -0.010699   0.003538  -0.010929
    23  H   -0.106484   0.367454   0.085751  -0.007034  -0.005286   0.007925
    24  H    0.016412   0.039639   0.356467   0.005514  -0.002526  -0.059943
    25  H    0.016412   0.039639   0.356467   0.005514  -0.002526  -0.059943
              13         14         15         16         17         18
     1  C    0.344985  -1.058116   0.372724  -0.015184  -0.036330   0.056120
     2  C   -0.338077  -0.022817  -0.110423   0.371253  -0.003507   0.001173
     3  C   -0.083272  -0.322275   0.002804  -0.010373   0.365055  -0.083952
     4  C   -1.387625  -0.182375   0.030983   0.008612  -0.065577   0.454049
     5  C   -0.384243  -1.695174   0.003865  -0.001206   0.000496   0.005800
     6  C    0.836749  -1.335078   0.000931  -0.000282   0.000377  -0.005369
     7  C   -0.736511   0.943186  -0.002095   0.000294  -0.000423   0.002042
     8  C    0.359739  -1.758924   0.007104   0.000285  -0.001204   0.006753
     9  C    1.579039  -2.159607   0.097366   0.003870  -0.006573  -0.026212
    10  C   -0.242400   2.361127  -0.011807  -0.007203   0.019959   0.014561
    11  C    1.037355  -4.636375  -0.036145   0.024633  -0.026088  -0.000255
    12  C   -4.803299   3.132786  -0.041672  -0.031904   0.098958  -0.071033
    13  C   14.585180  -4.198170   0.010067   0.002070  -0.006176  -0.012289
    14  C   -4.198170  16.426033   0.003557  -0.006948   0.005236  -0.006299
    15  H    0.010067   0.003557   0.447065  -0.008817   0.001118  -0.000011
    16  H    0.002070  -0.006948  -0.008817   0.423292  -0.005623   0.001871
    17  H   -0.006176   0.005236   0.001118  -0.005623   0.425657  -0.010424
    18  H   -0.012289  -0.006299  -0.000011   0.001871  -0.010424   0.461419
    19  H    0.077571  -0.095221   0.000203  -0.000458   0.001028  -0.007179
    20  H   -0.009203  -0.046685  -0.000099   0.000010  -0.000112   0.001251
    21  H   -0.024222   0.083380   0.000009  -0.000007   0.000010  -0.000176
    22  H    0.023414  -0.027869  -0.000133   0.000007  -0.000007   0.000022
    23  H   -0.029705  -0.007971   0.000551  -0.000123   0.000019  -0.000132
    24  H    0.028797  -0.059628  -0.000858   0.000633  -0.000152   0.000242
    25  H    0.028797  -0.059628  -0.000858   0.000633  -0.000152   0.000242
              19         20         21         22         23         24
     1  C   -0.048675   0.006842  -0.001448   0.001186   0.004508   0.026008
     2  C   -0.007467   0.002186  -0.000360   0.000416  -0.002986   0.012357
     3  C    0.052100  -0.005049   0.000419  -0.000370   0.001292  -0.001918
     4  C   -0.058807   0.005645   0.000065  -0.001740   0.006590  -0.013622
     5  C   -0.086528   0.472268  -0.071076   0.018359   0.024280  -0.010757
     6  C    0.051376  -0.082772   0.383725  -0.023520  -0.003700  -0.001208
     7  C   -0.008619   0.003972  -0.024347   0.384474  -0.106484   0.016412
     8  C   -0.042454   0.046432  -0.018507  -0.020082   0.367454   0.039639
     9  C    0.074184  -0.021344  -0.004319   0.000796   0.085751   0.356467
    10  C    0.422967   0.003868   0.019820  -0.010699  -0.007034   0.005514
    11  C    0.083806  -0.012646  -0.006319   0.003538  -0.005286  -0.002526
    12  C   -0.038753  -0.024754   0.005250  -0.010929   0.007925  -0.059943
    13  C    0.077571  -0.009203  -0.024222   0.023414  -0.029705   0.028797
    14  C   -0.095221  -0.046685   0.083380  -0.027869  -0.007971  -0.059628
    15  H    0.000203  -0.000099   0.000009  -0.000133   0.000551  -0.000858
    16  H   -0.000458   0.000010  -0.000007   0.000007  -0.000123   0.000633
    17  H    0.001028  -0.000112   0.000010  -0.000007   0.000019  -0.000152
    18  H   -0.007179   0.001251  -0.000176   0.000022  -0.000132   0.000242
    19  H    0.444765  -0.005676   0.001859  -0.000634   0.000460   0.000590
    20  H   -0.005676   0.446693  -0.010034   0.001995   0.000242   0.000130
    21  H    0.001859  -0.010034   0.418671  -0.007189   0.001734  -0.000130
    22  H   -0.000634   0.001995  -0.007189   0.414672  -0.008801   0.000624
    23  H    0.000460   0.000242   0.001734  -0.008801   0.432501  -0.000949
    24  H    0.000590   0.000130  -0.000130   0.000624  -0.000949   0.492835
    25  H    0.000590   0.000130  -0.000130   0.000624  -0.000949  -0.078809
              25
     1  C    0.026008
     2  C    0.012357
     3  C   -0.001918
     4  C   -0.013622
     5  C   -0.010757
     6  C   -0.001208
     7  C    0.016412
     8  C    0.039639
     9  C    0.356467
    10  C    0.005514
    11  C   -0.002526
    12  C   -0.059943
    13  C    0.028797
    14  C   -0.059628
    15  H   -0.000858
    16  H    0.000633
    17  H   -0.000152
    18  H    0.000242
    19  H    0.000590
    20  H    0.000130
    21  H   -0.000130
    22  H    0.000624
    23  H   -0.000949
    24  H   -0.078809
    25  H    0.492835
 Mulliken charges:
               1
     1  C    0.123466
     2  C   -0.415616
     3  C   -0.445013
     4  C   -0.013051
     5  C    0.030920
     6  C   -0.429735
     7  C   -0.399599
     8  C    0.066907
     9  C   -0.351286
    10  C    0.075356
    11  C   -0.586244
    12  C    0.658997
    13  C   -0.658571
    14  C    0.723856
    15  H    0.234570
    16  H    0.250663
    17  H    0.244435
    18  H    0.217786
    19  H    0.188972
    20  H    0.226710
    21  H    0.253320
    22  H    0.261846
    23  H    0.240815
    24  H    0.250249
    25  H    0.250249
 Sum of Mulliken charges =   1.00000
 Mulliken charges with hydrogens summed into heavy atoms:
               1
     1  C    0.358036
     2  C   -0.164953
     3  C   -0.200579
     4  C    0.204735
     5  C    0.257630
     6  C   -0.176415
     7  C   -0.137753
     8  C    0.307721
     9  C    0.149212
    10  C    0.264328
    11  C   -0.586244
    12  C    0.658997
    13  C   -0.658571
    14  C    0.723856
 Electronic spatial extent (au):  <R**2>=           2856.9464
 Charge=              1.0000 electrons
 Dipole moment (field-independent basis, Debye):
    X=             -0.8535    Y=             -1.1081    Z=             -0.0000  Tot=              1.3987
 Quadrupole moment (field-independent basis, Debye-Ang):
   XX=            -48.9702   YY=            -38.2447   ZZ=            -84.1245
   XY=             11.5197   XZ=             -0.0000   YZ=             -0.0000
 Traceless Quadrupole moment (field-independent basis, Debye-Ang):
   XX=              8.1429   YY=             18.8685   ZZ=            -27.0114
   XY=             11.5197   XZ=             -0.0000   YZ=             -0.0000
 Octapole moment (field-independent basis, Debye-Ang**2):
  XXX=             -5.5961  YYY=            -16.7823  ZZZ=              0.0000  XYY=             -3.5228
  XXY=              1.4278  XXZ=              0.0000  XZZ=              1.6143  YZZ=             -3.3291
  YYZ=              0.0000  XYZ=              0.0000
 Hexadecapole moment (field-independent basis, Debye-Ang**3):
 XXXX=          -1086.4132 YYYY=          -1770.4371 ZZZZ=            -99.3071 XXXY=           -368.4011
 XXXZ=             -0.0000 YYYX=           -305.2658 YYYZ=             -0.0000 ZZZX=             -0.0000
 ZZZY=             -0.0000 XXYY=           -444.4979 XXZZ=           -267.7816 YYZZ=           -468.7371
 XXYZ=             -0.0000 YYXZ=              0.0000 ZZXY=           -198.5552
 N-N= 7.811819775818D+02 E-N=-2.798729602797D+03  KE= 5.375452775337D+02
 Symmetry A'   KE= 5.228868777004D+02
 Symmetry A"   KE= 1.465839983329D+01
 Unable to Open any file for archive entry.
 1\1\GINC-GADI-CPU-CLX-1762\SP\RM062X TD-FC\6-311++G(d,p)\C14H11(1+)\TS
 1578\02-Aug-2022\0\\#n M062X/6-311++G(d,p) TD(NStates=1) EmpiricalDisp
 ersion=GD3 SP\\SP_-100\\1,1\C,0,2.527855,1.358631,0.\C,0,3.743108,0.68
 9439,0.\C,0,3.695661,-0.68333,0.\C,0,2.424206,-1.384888,0.\C,0,-2.5022
 06,-1.430388,0.\C,0,-3.672661,-0.74533,0.\C,0,-3.660858,0.654189,0.\C,
 0,-2.459355,1.361631,0.\C,0,0.02185,1.455569,0.\C,0,-0.061,-1.429289,0
 .\C,0,1.253005,0.657965,0.\C,0,1.212271,-0.727654,0.\C,0,-1.271255,0.6
 96215,0.\C,0,-1.262271,-0.733654,0.\H,0,2.499671,2.442197,0.\H,0,4.678
 953,1.225689,0.\H,0,4.602162,-1.274099,0.\H,0,2.44915,-2.468009,0.\H,0
 ,-0.05625,-2.510316,0.\H,0,-2.48565,-2.512259,0.\H,0,-4.616662,-1.2718
 49,0.\H,0,-4.595703,1.196939,0.\H,0,-2.478671,2.444447,0.\H,0,0.08,2.1
 46287,-0.860135\H,0,0.08,2.146287,0.860135\\Version=ES64L-G16RevC.01\S
 tate=1-A'\HF=-539.7493731\RMSD=3.522e-09\PG=CS [SG(C14H9),X(H2)]\\@
 The archive entry for this job was punched.


 MEMORIES ARE LIKE AN ENGLISH GRAMMER LESSON -
 PRESENT TENSE, AND PAST PERFECT.
 Job cpu time:       0 days  0 hours 53 minutes 14.1 seconds.
 Elapsed time:       0 days  0 hours  1 minutes  6.7 seconds.
 File lengths (MBytes):  RWF=    460 Int=      0 D2E=      0 Chk=     15 Scr=      1
 Normal termination of Gaussian 16 at Tue Aug  2 11:16:07 2022.
