 Entering Gaussian System, Link 0=g16
 Initial command:
 /apps/gaussian/g16c01/g16/l1.exe "/jobfs/53796104.gadi-pbs/Gau-3674776.inp" -scrdir="/jobfs/53796104.gadi-pbs/"
 Entering Link 1 = /apps/gaussian/g16c01/g16/l1.exe PID=   3674777.
  
 Copyright (c) 1988-2019, Gaussian, Inc.  All Rights Reserved.
  
 This is part of the Gaussian(R) 16 program.  It is based on
 the Gaussian(R) 09 system (copyright 2009, Gaussian, Inc.),
 the Gaussian(R) 03 system (copyright 2003, Gaussian, Inc.),
 the Gaussian(R) 98 system (copyright 1998, Gaussian, Inc.),
 the Gaussian(R) 94 system (copyright 1995, Gaussian, Inc.),
 the Gaussian 92(TM) system (copyright 1992, Gaussian, Inc.),
 the Gaussian 90(TM) system (copyright 1990, Gaussian, Inc.),
 the Gaussian 88(TM) system (copyright 1988, Gaussian, Inc.),
 the Gaussian 86(TM) system (copyright 1986, Carnegie Mellon
 University), and the Gaussian 82(TM) system (copyright 1983,
 Carnegie Mellon University). Gaussian is a federally registered
 trademark of Gaussian, Inc.
  
 This software contains proprietary and confidential information,
 including trade secrets, belonging to Gaussian, Inc.
  
 This software is provided under written license and may be
 used, copied, transmitted, or stored only in accord with that
 written license.
  
 The following legend is applicable only to US Government
 contracts under FAR:
  
                    RESTRICTED RIGHTS LEGEND
  
 Use, reproduction and disclosure by the US Government is
 subject to restrictions as set forth in subparagraphs (a)
 and (c) of the Commercial Computer Software - Restricted
 Rights clause in FAR 52.227-19.
  
 Gaussian, Inc.
 340 Quinnipiac St., Bldg. 40, Wallingford CT 06492
  
  
 ---------------------------------------------------------------
 Warning -- This program may not be used in any manner that
 competes with the business of Gaussian, Inc. or will provide
 assistance to any competitor of Gaussian, Inc.  The licensee
 of this program is prohibited from giving any competitor of
 Gaussian, Inc. access to this program.  By using this program,
 the user acknowledges that Gaussian, Inc. is engaged in the
 business of creating and licensing software in the field of
 computational chemistry and represents and warrants to the
 licensee that it is not a competitor of Gaussian, Inc. and that
 it will not use this program in any manner prohibited above.
 ---------------------------------------------------------------
  

 Cite this work as:
 Gaussian 16, Revision C.01,
 M. J. Frisch, G. W. Trucks, H. B. Schlegel, G. E. Scuseria, 
 M. A. Robb, J. R. Cheeseman, G. Scalmani, V. Barone, 
 G. A. Petersson, H. Nakatsuji, X. Li, M. Caricato, A. V. Marenich, 
 J. Bloino, B. G. Janesko, R. Gomperts, B. Mennucci, H. P. Hratchian, 
 J. V. Ortiz, A. F. Izmaylov, J. L. Sonnenberg, D. Williams-Young, 
 F. Ding, F. Lipparini, F. Egidi, J. Goings, B. Peng, A. Petrone, 
 T. Henderson, D. Ranasinghe, V. G. Zakrzewski, J. Gao, N. Rega, 
 G. Zheng, W. Liang, M. Hada, M. Ehara, K. Toyota, R. Fukuda, 
 J. Hasegawa, M. Ishida, T. Nakajima, Y. Honda, O. Kitao, H. Nakai, 
 T. Vreven, K. Throssell, J. A. Montgomery, Jr., J. E. Peralta, 
 F. Ogliaro, M. J. Bearpark, J. J. Heyd, E. N. Brothers, K. N. Kudin, 
 V. N. Staroverov, T. A. Keith, R. Kobayashi, J. Normand, 
 K. Raghavachari, A. P. Rendell, J. C. Burant, S. S. Iyengar, 
 J. Tomasi, M. Cossi, J. M. Millam, M. Klene, C. Adamo, R. Cammi, 
 J. W. Ochterski, R. L. Martin, K. Morokuma, O. Farkas, 
 J. B. Foresman, and D. J. Fox, Gaussian, Inc., Wallingford CT, 2019.
 
 ******************************************
 Gaussian 16:  ES64L-G16RevC.01  3-Jul-2019
                 2-Aug-2022 
 ******************************************
 %NProcShared=48
 Will use up to   48 processors via shared memory.
 %mem = 190GB
 ---------------------------------------------------------------
 #n M062X/6-311++G(d,p) TD(NStates=1) EmpiricalDispersion=GD3 SP
 ---------------------------------------------------------------
 1/38=1,172=1/1;
 2/12=2,17=6,18=5,40=1/2;
 3/5=4,6=6,7=1111,11=9,25=1,30=1,74=-55,124=31/1,2,3,8;
 4//1;
 5/5=2,38=5/2;
 8/6=1,10=2,108=1/1;
 9/41=1,42=1,70=2/14;
 6/7=2,8=2,9=2,10=2/1;
 99/5=1,9=1/99;
 ------
 SP_125
 ------
 Symbolic Z-matrix:
 Charge =  1 Multiplicity = 1
 C                     2.48571   1.35983   0. 
 C                     3.69083   0.66609   0. 
 C                     3.68146  -0.72488   0. 
 C                     2.47503  -1.41471   0. 
 C                    -2.45163  -1.40106   0. 
 C                    -3.68836  -0.70628   0. 
 C                    -3.71551   0.67666   0. 
 C                    -2.50626   1.35893   0. 
 C                    -0.00665   1.46107   0. 
 C                     0.0183   -1.42954   0. 
 C                     1.26506   0.68289   0. 
 C                     1.24427  -0.73118   0. 
 C                    -1.25958   0.67142   0. 
 C                    -1.22927  -0.72938   0. 
 H                     2.48877   2.44285   0. 
 H                     4.62628   1.20606   0. 
 H                     4.61196  -1.2742    0. 
 H                     2.4725   -2.49696   0. 
 H                     0.01688  -2.51044   0. 
 H                    -2.46155  -2.48368   0. 
 H                    -4.60761  -1.27487   0. 
 H                    -4.65125   1.21469   0. 
 H                    -2.49507   2.44217   0. 
 H                    -0.024     2.14754  -0.86151 
 H                    -0.024     2.14754   0.86151 
 
                          Input orientation:                          
 ---------------------------------------------------------------------
 Center     Atomic      Atomic             Coordinates (Angstroms)
 Number     Number       Type             X           Y           Z
 ---------------------------------------------------------------------
      1          6           0        2.485705    1.359831    0.000000
      2          6           0        3.690833    0.666089    0.000000
      3          6           0        3.681461   -0.724880    0.000000
      4          6           0        2.475031   -1.414713    0.000000
      5          6           0       -2.451631   -1.401063    0.000000
      6          6           0       -3.688361   -0.706280    0.000000
      7          6           0       -3.715508    0.676664    0.000000
      8          6           0       -2.506255    1.358931    0.000000
      9          6           0       -0.006650    1.461069    0.000000
     10          6           0        0.018300   -1.429539    0.000000
     11          6           0        1.265055    0.682890    0.000000
     12          6           0        1.244271   -0.731179    0.000000
     13          6           0       -1.259580    0.671415    0.000000
     14          6           0       -1.229271   -0.729379    0.000000
     15          1           0        2.488771    2.442847    0.000000
     16          1           0        4.626278    1.206064    0.000000
     17          1           0        4.611962   -1.274199    0.000000
     18          1           0        2.472500   -2.496959    0.000000
     19          1           0        0.016875   -2.510441    0.000000
     20          1           0       -2.461550   -2.483684    0.000000
     21          1           0       -4.607612   -1.274874    0.000000
     22          1           0       -4.651253    1.214689    0.000000
     23          1           0       -2.495071    2.442172    0.000000
     24          1           0       -0.024000    2.147537   -0.861510
     25          1           0       -0.024000    2.147537    0.861510
 ---------------------------------------------------------------------
                    Distance matrix (angstroms):
                    1          2          3          4          5
     1  C    0.000000
     2  C    1.390544   0.000000
     3  C    2.403300   1.391001   0.000000
     4  C    2.774565   2.409961   1.389728   0.000000
     5  C    5.656839   6.480971   6.170255   4.926681   0.000000
     6  C    6.510599   7.505725   7.369845   6.203973   1.418529
     7  C    6.238731   7.406349   7.528577   6.534266   2.431940
     8  C    4.991960   6.235698   6.529173   5.701431   2.760534
     9  C    2.494410   3.781980   4.287253   3.798534   3.764270
    10  C    3.724067   4.228375   3.730321   2.456776   2.470095
    11  C    1.395792   2.425836   2.796575   2.421566   4.261058
    12  C    2.431765   2.817450   2.437198   1.407831   3.756120
    13  C    3.808028   4.950416   5.134542   4.277762   2.390847
    14  C    4.262141   5.114172   4.910734   3.767166   1.394748
    15  H    1.083020   2.145186   3.384820   3.857584   6.259650
    16  H    2.146089   1.080107   2.149703   3.390625   7.542805
    17  H    3.385127   2.147835   1.080548   2.141546   7.064732
    18  H    3.856813   3.389573   2.145192   1.082249   5.044606
    19  H    4.590656   4.856780   4.076447   2.691310   2.706334
    20  H    6.264818   6.911793   6.389834   5.050993   1.082666
    21  H    7.566823   8.522413   8.307299   7.084023   2.159671
    22  H    7.138434   8.360105   8.555469   7.595899   3.417674
    23  H    5.097018   6.435828   6.941165   6.291063   3.843480
    24  H    2.767905   4.091072   4.766909   4.435874   4.384992
    25  H    2.767905   4.091072   4.766909   4.435874   4.384992
                    6          7          8          9         10
     6  C    0.000000
     7  C    1.383210   0.000000
     8  C    2.379595   1.388446   0.000000
     9  C    4.272282   3.790899   2.501691   0.000000
    10  C    3.776564   4.286889   3.761508   2.890716   0.000000
    11  C    5.144524   4.980567   3.831424   1.490904   2.452907
    12  C    4.932695   5.155718   4.293600   2.524035   1.410926
    13  C    2.792315   2.455934   1.423684   1.481009   2.459062
    14  C    2.459198   2.856279   2.447800   2.508558   1.430614
    15  H    6.933539   6.450774   5.111278   2.681607   4.593321
    16  H    8.531722   8.358568   7.134171   4.639941   5.308471
    17  H    8.319729   8.552931   7.589624   5.367799   4.596288
    18  H    6.415819   6.954375   6.297292   4.670350   2.676282
    19  H    4.121137   4.907985   4.619332   3.971580   1.080903
    20  H    2.159683   3.400031   3.842875   4.646247   2.694602
    21  H    1.080889   2.145775   3.369366   5.352965   4.628497
    22  H    2.148786   1.079393   2.149842   4.651133   5.366253
    23  H    3.367000   2.146272   1.083299   2.674846   4.615970
    24  H    4.723771   4.066067   2.743299   1.101698   3.679601
    25  H    4.723771   4.066067   2.743299   1.101698   3.679601
                   11         12         13         14         15
    11  C    0.000000
    12  C    1.414222   0.000000
    13  C    2.524661   2.869937   0.000000
    14  C    2.866386   2.473543   1.401122   0.000000
    15  H    2.143579   3.409285   4.145854   4.887418   0.000000
    16  H    3.401695   3.897548   5.910091   6.167122   2.469528
    17  H    3.877110   3.411189   6.185501   5.866586   4.280697
    18  H    3.401377   2.150936   4.895612   4.102127   4.939833
    19  H    3.428603   2.161544   3.428344   2.173721   5.535823
    20  H    4.890274   4.099315   3.376297   2.143851   6.984009
    21  H    6.190400   5.877086   3.872642   3.422098   8.011248
    22  H    5.940161   6.208350   3.434908   3.935653   7.244882
    23  H    4.151340   4.904369   2.159171   3.414818   4.983842
    24  H    2.132851   3.261551   2.108979   3.235973   2.672719
    25  H    2.132851   3.261551   2.108979   3.235973   2.672719
                   16         17         18         19         20
    16  H    0.000000
    17  H    2.480304   0.000000
    18  H    4.283823   2.464232   0.000000
    19  H    5.921065   4.758479   2.455662   0.000000
    20  H    7.990716   7.176171   4.934068   2.478569   0.000000
    21  H    9.561369   9.219574   7.184809   4.786701   2.463088
    22  H    9.277535   9.591752   8.032695   5.972270   4.297995
    23  H    7.227833   8.020058   7.005125   5.553220   4.925970
    24  H    4.822205   5.826030   5.342851   4.737154   5.303966
    25  H    4.822205   5.826030   5.342851   4.737154   5.303966
                   21         22         23         24         25
    21  H    0.000000
    22  H    2.489945   0.000000
    23  H    4.275425   2.481096   0.000000
    24  H    5.784859   4.798320   2.633477   0.000000
    25  H    5.784859   4.798320   2.633477   1.723020   0.000000
 Stoichiometry    C14H11(1+)
 Framework group  CS[SG(C14H9),X(H2)]
 Deg. of freedom    46
 Full point group                 CS      NOp   2
 Largest Abelian subgroup         CS      NOp   2
 Largest concise Abelian subgroup CS      NOp   2
                         Standard orientation:                         
 ---------------------------------------------------------------------
 Center     Atomic      Atomic             Coordinates (Angstroms)
 Number     Number       Type             X           Y           Z
 ---------------------------------------------------------------------
      1          6           0       -2.369527   -1.553902    0.000000
      2          6           0       -2.324341   -2.943712    0.000000
      3          6           0       -1.092522   -3.589856    0.000000
      4          6           0        0.083791   -2.849834    0.000000
      5          6           0        2.389612    1.503942    0.000000
      6          6           0        2.358376    2.922127    0.000000
      7          6           0        1.150819    3.596721    0.000000
      8          6           0       -0.020145    2.850649    0.000000
      9          6           0       -1.286273    0.693016    0.000000
     10          6           0        1.252701   -0.688956    0.000000
     11          6           0       -1.197901   -0.795267    0.000000
     12          6           0        0.059671   -1.442210    0.000000
     13          6           0        0.000000    1.427107    0.000000
     14          6           0        1.221820    0.741325    0.000000
     15          1           0       -3.326638   -1.047077    0.000000
     16          1           0       -3.240925   -3.515117    0.000000
     17          1           0       -1.045572   -4.669384    0.000000
     18          1           0        1.039970   -3.356770    0.000000
     19          1           0        2.207175   -1.196235    0.000000
     20          1           0        3.349599    1.003350    0.000000
     21          1           0        3.292595    3.465778    0.000000
     22          1           0        1.116302    4.675562    0.000000
     23          1           0       -0.981274    3.350417    0.000000
     24          1           0       -1.883859    1.031291    0.861510
     25          1           0       -1.883859    1.031291   -0.861510
 ---------------------------------------------------------------------
 Rotational constants (GHZ):           2.1337591           0.4442395           0.3684905
 Standard basis: 6-311++G(d,p) (5D, 7F)
 There are   299 symmetry adapted cartesian basis functions of A'  symmetry.
 There are   100 symmetry adapted cartesian basis functions of A"  symmetry.
 There are   285 symmetry adapted basis functions of A'  symmetry.
 There are   100 symmetry adapted basis functions of A"  symmetry.
   385 basis functions,   603 primitive gaussians,   399 cartesian basis functions
    47 alpha electrons       47 beta electrons
       nuclear repulsion energy       780.8570116888 Hartrees.
 NAtoms=   25 NActive=   25 NUniq=   24 SFac= 1.09D+00 NAtFMM=   60 NAOKFM=F Big=F
 Integral buffers will be    131072 words long.
 Regular integral format.
 Two-electron integral symmetry is turned on.
 Nuclear repulsion after empirical dispersion term =      780.8560321457 Hartrees.
 One-electron integrals computed using PRISM.
 NBasis=   385 RedAO= T EigKep=  1.14D-06  NBF=   285   100
 NBsUse=   379 1.00D-06 EigRej=  8.43D-07 NBFU=   279   100
 ExpMin= 3.60D-02 ExpMax= 4.56D+03 ExpMxC= 6.82D+02 IAcc=3 IRadAn=         5 AccDes= 0.00D+00
 Harris functional with IExCor= 1009 and IRadAn=       5 diagonalized for initial guess.
 HarFok:  IExCor= 1009 AccDes= 0.00D+00 IRadAn=         5 IDoV= 1 UseB2=F ITyADJ=14
 ICtDFT=  3500011 ScaDFX=  1.000000  1.000000  1.000000  1.000000
 FoFCou: FMM=F IPFlag=           0 FMFlag=      100000 FMFlg1=           0
         NFxFlg=           0 DoJE=T BraDBF=F KetDBF=T FulRan=T
         wScrn=  0.000000 ICntrl=       500 IOpCl=  0 I1Cent=   200000004 NGrid=           0
         NMat0=    1 NMatS0=      1 NMatT0=    0 NMatD0=    1 NMtDS0=    0 NMtDT0=    0
 Petite list used in FoFCou.
 Initial guess orbital symmetries:
       Occupied  (A') (A') (A') (A') (A') (A') (A') (A') (A') (A')
                 (A') (A') (A') (A') (A') (A') (A') (A') (A') (A')
                 (A') (A') (A') (A') (A') (A') (A') (A') (A') (A')
                 (A') (A') (A") (A') (A') (A') (A') (A') (A") (A')
                 (A") (A') (A') (A") (A") (A") (A")
       Virtual   (A") (A") (A") (A") (A") (A') (A') (A') (A') (A")
                 (A") (A') (A') (A') (A") (A') (A') (A') (A') (A")
                 (A') (A") (A') (A') (A') (A") (A') (A") (A') (A')
                 (A') (A') (A') (A') (A") (A') (A") (A') (A') (A")
                 (A') (A') (A') (A") (A') (A') (A') (A') (A') (A")
                 (A') (A') (A") (A") (A') (A') (A') (A") (A") (A')
                 (A') (A') (A') (A') (A') (A') (A") (A') (A') (A")
                 (A') (A') (A') (A') (A') (A') (A') (A') (A') (A')
                 (A') (A') (A') (A') (A') (A') (A') (A') (A') (A')
                 (A') (A') (A') (A') (A') (A') (A') (A") (A') (A")
                 (A') (A') (A") (A") (A') (A") (A') (A") (A') (A")
                 (A") (A') (A') (A') (A") (A') (A') (A") (A") (A')
                 (A") (A") (A') (A') (A') (A") (A') (A') (A') (A")
                 (A') (A') (A') (A') (A') (A') (A") (A') (A') (A')
                 (A') (A') (A') (A') (A') (A') (A') (A') (A') (A")
                 (A") (A') (A") (A") (A') (A') (A') (A") (A") (A')
                 (A") (A') (A") (A") (A") (A') (A') (A') (A') (A')
                 (A') (A") (A") (A') (A') (A') (A') (A') (A') (A")
                 (A') (A') (A') (A') (A') (A") (A") (A') (A") (A")
                 (A') (A") (A') (A") (A') (A') (A') (A") (A') (A')
                 (A") (A") (A") (A') (A') (A") (A') (A") (A') (A')
                 (A") (A") (A') (A") (A') (A") (A') (A') (A') (A")
                 (A') (A') (A') (A') (A") (A') (A') (A') (A") (A")
                 (A') (A') (A') (A") (A') (A') (A") (A') (A") (A')
                 (A") (A') (A') (A') (A') (A") (A') (A') (A') (A")
                 (A') (A') (A") (A') (A") (A') (A') (A") (A') (A')
                 (A') (A") (A') (A") (A') (A') (A') (A") (A') (A")
                 (A') (A') (A') (A') (A") (A') (A") (A') (A") (A')
                 (A") (A') (A") (A") (A") (A') (A') (A') (A') (A')
                 (A') (A') (A') (A') (A') (A') (A') (A') (A') (A')
                 (A') (A') (A') (A') (A') (A") (A') (A') (A') (A')
                 (A') (A') (A') (A') (A') (A') (A') (A') (A') (A')
                 (A') (A') (A') (A') (A') (A') (A') (A') (A') (A')
                 (A') (A')
 The electronic state of the initial guess is 1-A'.
 Requested convergence on RMS density matrix=1.00D-08 within 128 cycles.
 Requested convergence on MAX density matrix=1.00D-06.
 Requested convergence on             energy=1.00D-06.
 No special actions if energy rises.
 SCF Done:  E(RM062X) =  -539.759281820     A.U. after   15 cycles
            NFock= 15  Conv=0.66D-08     -V/T= 2.0042
 DoSCS=F DFT=T ScalE2(SS,OS)=  1.000000  1.000000
 ExpMin= 3.60D-02 ExpMax= 4.56D+03 ExpMxC= 6.82D+02 IAcc=3 IRadAn=         5 AccDes= 0.00D+00
 HarFok:  IExCor=  205 AccDes= 0.00D+00 IRadAn=         5 IDoV=-2 UseB2=F ITyADJ=14
 ICtDFT= 12500011 ScaDFX=  1.000000  1.000000  1.000000  1.000000
 Range of M.O.s used for correlation:    15   379
 NBasis=   385 NAE=    47 NBE=    47 NFC=    14 NFV=     0
 NROrb=    365 NOA=    33 NOB=    33 NVA=   332 NVB=   332

 **** Warning!!: The largest alpha MO coefficient is  0.13352043D+03

 Orbital symmetries:
       Occupied  (A') (A') (A') (A') (A') (A') (A') (A') (A') (A')
                 (A') (A') (A') (A') (A') (A') (A') (A') (A') (A')
                 (A') (A') (A') (A') (A') (A') (A') (A') (A') (A')
                 (A') (A') (A") (A') (A') (A') (A') (A") (A") (A')
                 (A') (A') (A') (A") (A") (A") (A")
       Virtual   (A") (A") (A") (A") (A') (A') (A') (A') (A") (A')
                 (A') (A") (A') (A') (A") (A') (A") (A') (A') (A')
                 (A") (A") (A') (A') (A') (A") (A') (A") (A') (A')
                 (A") (A') (A") (A') (A') (A') (A') (A') (A") (A')
                 (A") (A') (A') (A") (A") (A') (A") (A') (A") (A')
                 (A') (A') (A') (A') (A') (A") (A') (A') (A') (A')
                 (A') (A") (A') (A') (A') (A') (A") (A') (A') (A')
                 (A') (A') (A') (A') (A') (A') (A') (A') (A') (A')
                 (A') (A') (A') (A') (A') (A') (A') (A') (A') (A')
                 (A') (A') (A') (A') (A") (A') (A") (A") (A') (A")
                 (A') (A') (A') (A') (A") (A") (A') (A") (A") (A')
                 (A') (A') (A") (A') (A') (A") (A') (A") (A') (A")
                 (A") (A') (A") (A') (A') (A') (A") (A') (A') (A')
                 (A') (A') (A') (A') (A') (A') (A') (A') (A') (A')
                 (A') (A') (A') (A") (A') (A') (A') (A') (A') (A')
                 (A') (A') (A") (A') (A") (A') (A") (A") (A') (A")
                 (A") (A') (A') (A") (A") (A") (A') (A") (A') (A')
                 (A') (A') (A') (A") (A") (A') (A') (A') (A') (A")
                 (A') (A') (A') (A") (A') (A") (A') (A') (A") (A")
                 (A") (A') (A') (A") (A") (A') (A') (A') (A') (A')
                 (A") (A") (A") (A') (A') (A") (A') (A") (A') (A')
                 (A') (A") (A') (A") (A") (A') (A") (A') (A') (A")
                 (A') (A') (A') (A') (A") (A') (A') (A') (A") (A")
                 (A') (A') (A') (A") (A') (A') (A') (A") (A") (A')
                 (A") (A') (A') (A") (A') (A') (A') (A') (A') (A')
                 (A") (A') (A') (A') (A') (A") (A") (A") (A') (A')
                 (A') (A') (A') (A') (A') (A') (A") (A') (A') (A')
                 (A') (A") (A') (A") (A") (A") (A') (A") (A') (A")
                 (A') (A") (A") (A') (A") (A") (A') (A') (A') (A')
                 (A') (A') (A') (A') (A') (A') (A') (A') (A') (A')
                 (A') (A') (A') (A') (A") (A') (A') (A') (A') (A')
                 (A') (A') (A') (A') (A') (A') (A') (A') (A') (A')
                 (A') (A') (A') (A') (A') (A') (A') (A') (A') (A')
                 (A') (A')
     4 initial guesses have been made.
 Convergence on wavefunction:    0.001000000000000
 Iteration     1 Dimension     4 NMult     0 NNew      4
 CISAX will form     4 AO SS matrices at one time.
 Iteration     2 Dimension     6 NMult     4 NNew      2
 Iteration     3 Dimension     8 NMult     6 NNew      2
 Iteration     4 Dimension    10 NMult     8 NNew      2
 Iteration     5 Dimension    12 NMult    10 NNew      2
 Iteration     6 Dimension    14 NMult    12 NNew      2
 ***********************************************************************
 Excited states from <AA,BB:AA,BB> singles matrix:
 ***********************************************************************
 
 Ground to excited state transition densities written to RWF  633
 Ground to excited state transition electric dipole moments (Au):
       state          X           Y           Z        Dip. S.      Osc.
         1        -0.5328      0.3042     -0.0000      0.3765      0.0258
 Ground to excited state transition velocity dipole moments (Au):
       state          X           Y           Z        Dip. S.      Osc.
         1         0.0622     -0.0329      0.0000      0.0050      0.0322
 Ground to excited state transition magnetic dipole moments (Au):
       state          X           Y           Z
         1        -0.0000     -0.0000     -0.1252
 Ground to excited state transition velocity quadrupole moments (Au):
       state          XX          YY          ZZ          XY          XZ          YZ
         1         0.1317      0.1853     -0.0094      0.1332     -0.0000      0.0000
 <0|del|b> * <b|rxdel|0> + <0|del|b> * <b|delr+rdel|0>
 Rotatory Strengths (R) in cgs (10**-40 erg-esu-cm/Gauss)
       state          XX          YY          ZZ    R(velocity)    E-M Angle
         1        -0.0000      0.0000     -0.0000     -0.0000       90.00
 1/2[<0|r|b>*<b|rxdel|0> + (<0|rxdel|b>*<b|r|0>)*]
 Rotatory Strengths (R) in cgs (10**-40 erg-esu-cm/Gauss)
       state          XX          YY          ZZ     R(length)
         1        -0.0000      0.0000     -0.0000     -0.0000
  1/2[<0|del|b>*<b|r|0> + (<0|r|b>*<b|del|0>)*] (Au)
       state          X           Y           Z        Dip. S.   Osc.(frdel)
         1        -0.0332     -0.0100     -0.0000      0.0432      0.0288

 Excitation energies and oscillator strengths:
 
 Excited State   1:      Singlet-A'     2.7919 eV  444.08 nm  f=0.0258  <S**2>=0.000
      47 -> 48         0.70396
 This state for optimization and/or second-order correction.
 Total Energy, E(TD-HF/TD-DFT) =  -539.656680925    
 Copying the excited state density for this state as the 1-particle RhoCI density.
 SavETr:  write IOETrn=   770 NScale= 10 NData=  16 NLR=1 NState=    1 LETran=      28.

 **********************************************************************

            Population analysis using the SCF Density.

 **********************************************************************

 Orbital symmetries:
       Occupied  (A') (A') (A') (A') (A') (A') (A') (A') (A') (A')
                 (A') (A') (A') (A') (A') (A') (A') (A') (A') (A')
                 (A') (A') (A') (A') (A') (A') (A') (A') (A') (A')
                 (A') (A') (A") (A') (A') (A') (A') (A") (A") (A')
                 (A') (A') (A') (A") (A") (A") (A")
       Virtual   (A") (A") (A") (A") (A') (A') (A') (A') (A") (A')
                 (A') (A") (A') (A') (A") (A') (A") (A') (A') (A')
                 (A") (A") (A') (A') (A') (A") (A') (A") (A') (A')
                 (A") (A') (A") (A') (A') (A') (A') (A') (A") (A')
                 (A") (A') (A') (A") (A") (A') (A") (A') (A") (A')
                 (A') (A') (A') (A') (A') (A") (A') (A') (A') (A')
                 (A') (A") (A') (A') (A') (A') (A") (A') (A') (A')
                 (A') (A') (A') (A') (A') (A') (A') (A') (A') (A')
                 (A') (A') (A') (A') (A') (A') (A') (A') (A') (A')
                 (A') (A') (A') (A') (A") (A') (A") (A") (A') (A")
                 (A') (A') (A') (A') (A") (A") (A') (A") (A") (A')
                 (A') (A') (A") (A') (A') (A") (A') (A") (A') (A")
                 (A") (A') (A") (A') (A') (A') (A") (A') (A') (A')
                 (A') (A') (A') (A') (A') (A') (A') (A') (A') (A')
                 (A') (A') (A') (A") (A') (A') (A') (A') (A') (A')
                 (A') (A') (A") (A') (A") (A') (A") (A") (A') (A")
                 (A") (A') (A') (A") (A") (A") (A') (A") (A') (A')
                 (A') (A') (A') (A") (A") (A') (A') (A') (A') (A")
                 (A') (A') (A') (A") (A') (A") (A') (A') (A") (A")
                 (A") (A') (A') (A") (A") (A') (A') (A') (A') (A')
                 (A") (A") (A") (A') (A') (A") (A') (A") (A') (A')
                 (A') (A") (A') (A") (A") (A') (A") (A') (A') (A")
                 (A') (A') (A') (A') (A") (A') (A') (A') (A") (A")
                 (A') (A') (A') (A") (A') (A') (A') (A") (A") (A')
                 (A") (A') (A') (A") (A') (A') (A') (A') (A') (A')
                 (A") (A') (A') (A') (A') (A") (A") (A") (A') (A')
                 (A') (A') (A') (A') (A') (A') (A") (A') (A') (A')
                 (A') (A") (A') (A") (A") (A") (A') (A") (A') (A")
                 (A') (A") (A") (A') (A") (A") (A') (A') (A') (A')
                 (A') (A') (A') (A') (A') (A') (A') (A') (A') (A')
                 (A') (A') (A') (A') (A") (A') (A') (A') (A') (A')
                 (A') (A') (A') (A') (A') (A') (A') (A') (A') (A')
                 (A') (A') (A') (A') (A') (A') (A') (A') (A') (A')
                 (A') (A')
 The electronic state is 1-A'.
 Alpha  occ. eigenvalues --  -10.77668 -10.73503 -10.73066 -10.72620 -10.72270
 Alpha  occ. eigenvalues --  -10.71574 -10.71389 -10.71164 -10.71004 -10.70617
 Alpha  occ. eigenvalues --  -10.70073 -10.69875 -10.69764 -10.69519  -1.16414
 Alpha  occ. eigenvalues --   -1.12437  -1.06945  -1.05677  -1.01308  -1.00171
 Alpha  occ. eigenvalues --   -0.95752  -0.91034  -0.86416  -0.85884  -0.83796
 Alpha  occ. eigenvalues --   -0.78382  -0.76005  -0.74405  -0.69619  -0.69248
 Alpha  occ. eigenvalues --   -0.68456  -0.68153  -0.68114  -0.64830  -0.64249
 Alpha  occ. eigenvalues --   -0.62939  -0.61816  -0.60159  -0.59558  -0.59114
 Alpha  occ. eigenvalues --   -0.56882  -0.55239  -0.54754  -0.52444  -0.46722
 Alpha  occ. eigenvalues --   -0.46079  -0.44387
 Alpha virt. eigenvalues --   -0.26108  -0.14664  -0.14096  -0.12775  -0.11178
 Alpha virt. eigenvalues --   -0.10082  -0.09235  -0.07978  -0.07972  -0.07476
 Alpha virt. eigenvalues --   -0.07198  -0.07140  -0.05646  -0.05578  -0.05332
 Alpha virt. eigenvalues --   -0.03830  -0.03648  -0.03277  -0.03136  -0.02166
 Alpha virt. eigenvalues --   -0.01361  -0.00933   0.00199   0.00592   0.00634
 Alpha virt. eigenvalues --    0.01057   0.01514   0.01946   0.02201   0.02304
 Alpha virt. eigenvalues --    0.02449   0.02667   0.02748   0.03330   0.03417
 Alpha virt. eigenvalues --    0.04240   0.04497   0.04705   0.05036   0.05370
 Alpha virt. eigenvalues --    0.06036   0.06288   0.06591   0.07030   0.07264
 Alpha virt. eigenvalues --    0.07891   0.08140   0.08351   0.08539   0.08925
 Alpha virt. eigenvalues --    0.09525   0.09568   0.10014   0.10839   0.10976
 Alpha virt. eigenvalues --    0.11126   0.12143   0.12239   0.12848   0.12978
 Alpha virt. eigenvalues --    0.13415   0.13527   0.13998   0.14383   0.16081
 Alpha virt. eigenvalues --    0.16338   0.16418   0.17340   0.17589   0.17796
 Alpha virt. eigenvalues --    0.18109   0.19090   0.19277   0.19606   0.19751
 Alpha virt. eigenvalues --    0.21499   0.21589   0.22701   0.23104   0.23540
 Alpha virt. eigenvalues --    0.23886   0.24603   0.25450   0.26923   0.27593
 Alpha virt. eigenvalues --    0.28821   0.29269   0.29837   0.31338   0.35757
 Alpha virt. eigenvalues --    0.36399   0.38194   0.39270   0.41129   0.41388
 Alpha virt. eigenvalues --    0.41926   0.42219   0.42985   0.43648   0.44306
 Alpha virt. eigenvalues --    0.44905   0.45050   0.46025   0.46223   0.47986
 Alpha virt. eigenvalues --    0.48502   0.48819   0.49045   0.50429   0.51032
 Alpha virt. eigenvalues --    0.51394   0.51755   0.52122   0.52838   0.53995
 Alpha virt. eigenvalues --    0.54099   0.54593   0.55679   0.55784   0.57615
 Alpha virt. eigenvalues --    0.58234   0.58832   0.61435   0.62243   0.62343
 Alpha virt. eigenvalues --    0.63188   0.63483   0.64882   0.65143   0.67184
 Alpha virt. eigenvalues --    0.70435   0.70614   0.71030   0.72406   0.72856
 Alpha virt. eigenvalues --    0.75744   0.76018   0.76289   0.76867   0.77098
 Alpha virt. eigenvalues --    0.77828   0.77861   0.78205   0.79910   0.80382
 Alpha virt. eigenvalues --    0.81211   0.81646   0.82198   0.82997   0.85154
 Alpha virt. eigenvalues --    0.87110   0.88114   0.88477   0.89167   0.90433
 Alpha virt. eigenvalues --    0.91003   0.91295   0.93205   0.94603   0.96373
 Alpha virt. eigenvalues --    0.96708   1.00391   1.01245   1.01671   1.02725
 Alpha virt. eigenvalues --    1.03200   1.03585   1.04752   1.05685   1.08748
 Alpha virt. eigenvalues --    1.19529   1.23228   1.24045   1.25014   1.28061
 Alpha virt. eigenvalues --    1.29674   1.31803   1.34369   1.35734   1.35985
 Alpha virt. eigenvalues --    1.39298   1.40039   1.40914   1.43075   1.43449
 Alpha virt. eigenvalues --    1.43493   1.44638   1.45880   1.46337   1.46651
 Alpha virt. eigenvalues --    1.47648   1.47998   1.51657   1.53612   1.55519
 Alpha virt. eigenvalues --    1.55828   1.56319   1.56600   1.57738   1.61381
 Alpha virt. eigenvalues --    1.63251   1.63452   1.63917   1.66064   1.68230
 Alpha virt. eigenvalues --    1.68348   1.68738   1.69783   1.74329   1.75964
 Alpha virt. eigenvalues --    1.77105   1.78051   1.79834   1.80057   1.80698
 Alpha virt. eigenvalues --    1.83058   1.83218   1.83550   1.83825   1.84202
 Alpha virt. eigenvalues --    1.84313   1.85744   1.86165   1.88225   1.91365
 Alpha virt. eigenvalues --    1.92038   1.94081   1.95174   1.97685   1.98117
 Alpha virt. eigenvalues --    1.99697   2.02170   2.04351   2.07268   2.11770
 Alpha virt. eigenvalues --    2.12019   2.14122   2.15233   2.19004   2.21111
 Alpha virt. eigenvalues --    2.22775   2.28687   2.29946   2.34527   2.34872
 Alpha virt. eigenvalues --    2.36240   2.38667   2.39608   2.42328   2.44993
 Alpha virt. eigenvalues --    2.46123   2.46195   2.49286   2.52864   2.53771
 Alpha virt. eigenvalues --    2.54061   2.56928   2.57837   2.58322   2.59567
 Alpha virt. eigenvalues --    2.59832   2.61560   2.62095   2.63508   2.63723
 Alpha virt. eigenvalues --    2.64775   2.65067   2.65150   2.65378   2.67780
 Alpha virt. eigenvalues --    2.68390   2.70923   2.71421   2.73336   2.74800
 Alpha virt. eigenvalues --    2.76301   2.78474   2.79667   2.82703   2.83055
 Alpha virt. eigenvalues --    2.84834   2.86197   2.92072   2.97052   2.99461
 Alpha virt. eigenvalues --    3.00028   3.04722   3.10520   3.11235   3.13249
 Alpha virt. eigenvalues --    3.20738   3.22807   3.26502   3.28200   3.30641
 Alpha virt. eigenvalues --    3.32771   3.33826   3.43492   3.45932   3.46386
 Alpha virt. eigenvalues --    3.48266   3.49960   3.56306   3.66582   3.66664
 Alpha virt. eigenvalues --    3.67443   3.94145   3.94381   3.95307   3.96213
 Alpha virt. eigenvalues --    4.03971   4.06742   4.07414   4.12561   4.35212
 Alpha virt. eigenvalues --    4.60775   4.69594   4.71486  23.45333  23.60344
 Alpha virt. eigenvalues --   23.81728  23.84529  23.87093  23.88988  23.90884
 Alpha virt. eigenvalues --   23.93201  23.96822  23.98328  24.00628  24.01884
 Alpha virt. eigenvalues --   24.10601  24.10981
          Condensed to atoms (all electrons):
               1          2          3          4          5          6
     1  C    8.551193   0.327261  -0.574269   1.995845  -0.038936  -0.092505
     2  C    0.327261   7.204933   0.372070  -1.092799  -0.019868  -0.014363
     3  C   -0.574269   0.372070   6.596603   0.760424  -0.122078   0.016917
     4  C    1.995845  -1.092799   0.760424  11.391281  -0.423300  -0.134258
     5  C   -0.038936  -0.019868  -0.122078  -0.423300  11.035202   0.808377
     6  C   -0.092505  -0.014363   0.016917  -0.134258   0.808377   6.593998
     7  C   -0.018204  -0.000635  -0.013527   0.003154  -1.182684   0.296565
     8  C    0.400316  -0.005072  -0.100932  -0.075862   2.208462  -0.459491
     9  C   -1.082114  -0.847314   0.301359  -0.075063  -0.266236   0.300957
    10  C   -1.288975   0.224264  -0.311457  -2.685170  -2.512065  -0.384174
    11  C    0.341648  -0.833397   0.946768  -0.342632  -1.476453  -0.145606
    12  C   -2.149140   1.265820  -1.395711  -1.738562  -0.292310  -0.234480
    13  C    0.243858  -0.226810  -0.193766  -1.551965  -0.335408   1.039681
    14  C   -1.113376  -0.230354  -0.162398  -0.391421  -1.732296  -1.466655
    15  H    0.369617  -0.108708  -0.001692   0.027498   0.005827   0.001159
    16  H   -0.019771   0.382183  -0.019569   0.014852  -0.001601  -0.000342
    17  H   -0.024389  -0.018748   0.378215  -0.069949   0.000253   0.000411
    18  H    0.050542   0.003175  -0.084103   0.465413   0.005101  -0.005154
    19  H   -0.045614  -0.008071   0.051638  -0.074019  -0.065765   0.051867
    20  H    0.006890   0.002116  -0.005251   0.005127   0.460059  -0.084404
    21  H   -0.001271  -0.000410   0.000399   0.000385  -0.068330   0.372508
    22  H    0.000606   0.000352  -0.000315  -0.001442   0.011949  -0.015627
    23  H    0.005866  -0.002452   0.001052   0.005009   0.029460   0.000244
    24  H    0.036093   0.015334  -0.001527  -0.011736  -0.012545  -0.001733
    25  H    0.036093   0.015334  -0.001527  -0.011736  -0.012545  -0.001733
               7          8          9         10         11         12
     1  C   -0.018204   0.400316  -1.082114  -1.288975   0.341648  -2.149140
     2  C   -0.000635  -0.005072  -0.847314   0.224264  -0.833397   1.265820
     3  C   -0.013527  -0.100932   0.301359  -0.311457   0.946768  -1.395711
     4  C    0.003154  -0.075862  -0.075063  -2.685170  -0.342632  -1.738562
     5  C   -1.182684   2.208462  -0.266236  -2.512065  -1.476453  -0.292310
     6  C    0.296565  -0.459491   0.300957  -0.384174  -0.145606  -0.234480
     7  C    7.211466   0.100105  -0.812182   0.303444  -0.267234  -0.138100
     8  C    0.100105   8.823684  -1.077212  -1.365586   0.285093  -1.078442
     9  C   -0.812182  -1.077212   9.532939   0.268336   1.491897  -1.943665
    10  C    0.303444  -1.365586   0.268336   9.058893  -0.302426   2.399247
    11  C   -0.267234   0.285093   1.491897  -0.302426  14.384115  -3.854993
    12  C   -0.138100  -1.078442  -1.943665   2.399247  -3.854993  16.167218
    13  C   -0.915844   0.326630   1.433215  -0.370533   1.106863  -4.711703
    14  C    1.563810  -2.485723  -1.782545   2.431695  -4.759297   3.208576
    15  H   -0.002716   0.005109   0.089035  -0.008927  -0.030141  -0.019753
    16  H    0.000388   0.000875   0.001939  -0.009430   0.023976  -0.029906
    17  H   -0.000391  -0.001344  -0.005132   0.020087  -0.025816   0.090644
    18  H    0.002156   0.006906  -0.023399   0.007500  -0.005617  -0.054572
    19  H   -0.007711  -0.047441   0.074676   0.421657   0.077240  -0.074406
    20  H    0.002321   0.053421  -0.024876   0.010690  -0.012061  -0.012873
    21  H   -0.012342  -0.029856  -0.005802   0.020145  -0.006204   0.005333
    22  H    0.378159  -0.018270   0.002893  -0.008398   0.002740  -0.008428
    23  H   -0.109712   0.371136   0.092171  -0.010318   0.003739   0.005626
    24  H    0.014076   0.032057   0.354568   0.005113   0.018609  -0.060672
    25  H    0.014076   0.032057   0.354568   0.005113   0.018609  -0.060672
              13         14         15         16         17         18
     1  C    0.243858  -1.113376   0.369617  -0.019771  -0.024389   0.050542
     2  C   -0.226810  -0.230354  -0.108708   0.382183  -0.018748   0.003175
     3  C   -0.193766  -0.162398  -0.001692  -0.019569   0.378215  -0.084103
     4  C   -1.551965  -0.391421   0.027498   0.014852  -0.069949   0.465413
     5  C   -0.335408  -1.732296   0.005827  -0.001601   0.000253   0.005101
     6  C    1.039681  -1.466655   0.001159  -0.000342   0.000411  -0.005154
     7  C   -0.915844   1.563810  -0.002716   0.000388  -0.000391   0.002156
     8  C    0.326630  -2.485723   0.005109   0.000875  -0.001344   0.006906
     9  C    1.433215  -1.782545   0.089035   0.001939  -0.005132  -0.023399
    10  C   -0.370533   2.431695  -0.008927  -0.009430   0.020087   0.007500
    11  C    1.106863  -4.759297  -0.030141   0.023976  -0.025816  -0.005617
    12  C   -4.711703   3.208576  -0.019753  -0.029906   0.090644  -0.054572
    13  C   14.258019  -3.528521  -0.000772   0.003168  -0.006243  -0.012219
    14  C   -3.528521  15.974539   0.006925  -0.009612   0.005315  -0.018365
    15  H   -0.000772   0.006925   0.437457  -0.009081   0.001566   0.000181
    16  H    0.003168  -0.009612  -0.009081   0.418370  -0.006845   0.001955
    17  H   -0.006243   0.005315   0.001566  -0.006845   0.421405  -0.010314
    18  H   -0.012219  -0.018365   0.000181   0.001955  -0.010314   0.452130
    19  H    0.079164  -0.057641   0.000364  -0.000578   0.001561  -0.006104
    20  H   -0.002897  -0.061991  -0.000120   0.000018  -0.000155   0.001237
    21  H   -0.026421   0.095446   0.000016  -0.000007   0.000011  -0.000135
    22  H    0.024375  -0.031207  -0.000127   0.000008  -0.000007   0.000014
    23  H   -0.031920  -0.029623   0.000545  -0.000130   0.000013  -0.000110
    24  H    0.009268  -0.060785  -0.000946   0.000634  -0.000141   0.000173
    25  H    0.009268  -0.060785  -0.000946   0.000634  -0.000141   0.000173
              19         20         21         22         23         24
     1  C   -0.045614   0.006890  -0.001271   0.000606   0.005866   0.036093
     2  C   -0.008071   0.002116  -0.000410   0.000352  -0.002452   0.015334
     3  C    0.051638  -0.005251   0.000399  -0.000315   0.001052  -0.001527
     4  C   -0.074019   0.005127   0.000385  -0.001442   0.005009  -0.011736
     5  C   -0.065765   0.460059  -0.068330   0.011949   0.029460  -0.012545
     6  C    0.051867  -0.084404   0.372508  -0.015627   0.000244  -0.001733
     7  C   -0.007711   0.002321  -0.012342   0.378159  -0.109712   0.014076
     8  C   -0.047441   0.053421  -0.029856  -0.018270   0.371136   0.032057
     9  C    0.074676  -0.024876  -0.005802   0.002893   0.092171   0.354568
    10  C    0.421657   0.010690   0.020145  -0.008398  -0.010318   0.005113
    11  C    0.077240  -0.012061  -0.006204   0.002740   0.003739   0.018609
    12  C   -0.074406  -0.012873   0.005333  -0.008428   0.005626  -0.060672
    13  C    0.079164  -0.002897  -0.026421   0.024375  -0.031920   0.009268
    14  C   -0.057641  -0.061991   0.095446  -0.031207  -0.029623  -0.060785
    15  H    0.000364  -0.000120   0.000016  -0.000127   0.000545  -0.000946
    16  H   -0.000578   0.000018  -0.000007   0.000008  -0.000130   0.000634
    17  H    0.001561  -0.000155   0.000011  -0.000007   0.000013  -0.000141
    18  H   -0.006104   0.001237  -0.000135   0.000014  -0.000110   0.000173
    19  H    0.443072  -0.006567   0.001310  -0.000524   0.000286   0.000565
    20  H   -0.006567   0.456582  -0.010438   0.001919   0.000104   0.000208
    21  H    0.001310  -0.010438   0.423494  -0.006362   0.001377  -0.000147
    22  H   -0.000524   0.001919  -0.006362   0.421030  -0.009080   0.000637
    23  H    0.000286   0.000104   0.001377  -0.009080   0.441849  -0.000917
    24  H    0.000565   0.000208  -0.000147   0.000637  -0.000917   0.492723
    25  H    0.000565   0.000208  -0.000147   0.000637  -0.000917  -0.078169
              25
     1  C    0.036093
     2  C    0.015334
     3  C   -0.001527
     4  C   -0.011736
     5  C   -0.012545
     6  C   -0.001733
     7  C    0.014076
     8  C    0.032057
     9  C    0.354568
    10  C    0.005113
    11  C    0.018609
    12  C   -0.060672
    13  C    0.009268
    14  C   -0.060785
    15  H   -0.000946
    16  H    0.000634
    17  H   -0.000141
    18  H    0.000173
    19  H    0.000565
    20  H    0.000208
    21  H   -0.000147
    22  H    0.000637
    23  H   -0.000917
    24  H   -0.078169
    25  H    0.492723
 Mulliken charges:
               1
     1  C    0.082736
     2  C   -0.403841
     3  C   -0.437322
     4  C    0.010925
     5  C   -0.002270
     6  C   -0.442159
     7  C   -0.408438
     8  C    0.099380
     9  C   -0.353013
    10  C    0.081275
    11  C   -0.639419
    12  C    0.715924
    13  C   -0.618488
    14  C    0.696289
    15  H    0.238631
    16  H    0.257870
    17  H    0.250134
    18  H    0.223435
    19  H    0.190476
    20  H    0.220734
    21  H    0.247449
    22  H    0.254468
    23  H    0.236702
    24  H    0.249260
    25  H    0.249260
 Sum of Mulliken charges =   1.00000
 Mulliken charges with hydrogens summed into heavy atoms:
               1
     1  C    0.321367
     2  C   -0.145971
     3  C   -0.187187
     4  C    0.234360
     5  C    0.218464
     6  C   -0.194709
     7  C   -0.153970
     8  C    0.336082
     9  C    0.145507
    10  C    0.271751
    11  C   -0.639419
    12  C    0.715924
    13  C   -0.618488
    14  C    0.696289
 Electronic spatial extent (au):  <R**2>=           2858.3098
 Charge=              1.0000 electrons
 Dipole moment (field-independent basis, Debye):
    X=             -0.0290    Y=             -0.4609    Z=             -0.0000  Tot=              0.4618
 Quadrupole moment (field-independent basis, Debye-Ang):
   XX=            -50.8635   YY=            -36.4728   ZZ=            -84.1417
   XY=             10.3560   XZ=              0.0000   YZ=             -0.0000
 Traceless Quadrupole moment (field-independent basis, Debye-Ang):
   XX=              6.2958   YY=             20.6865   ZZ=            -26.9824
   XY=             10.3560   XZ=              0.0000   YZ=             -0.0000
 Octapole moment (field-independent basis, Debye-Ang**2):
  XXX=             -1.0264  YYY=              1.5488  ZZZ=             -0.0000  XYY=             -1.4381
  XXY=             -6.3646  XXZ=             -0.0000  XZZ=             -3.0394  YZZ=              0.9293
  YYZ=             -0.0000  XYZ=              0.0000
 Hexadecapole moment (field-independent basis, Debye-Ang**3):
 XXXX=           -995.2577 YYYY=          -1845.6635 ZZZZ=            -99.3454 XXXY=           -349.6170
 XXXZ=              0.0000 YYYX=           -276.0422 YYYZ=             -0.0000 ZZZX=             -0.0000
 ZZZY=             -0.0000 XXYY=           -454.2747 XXZZ=           -243.2580 YYZZ=           -493.7877
 XXYZ=             -0.0000 YYXZ=              0.0000 ZZXY=           -184.1754
 N-N= 7.808560321457D+02 E-N=-2.798044258423D+03  KE= 5.374911874134D+02
 Symmetry A'   KE= 5.228429633393D+02
 Symmetry A"   KE= 1.464822407419D+01
 Unable to Open any file for archive entry.
 1\1\GINC-GADI-CPU-CLX-1762\SP\RM062X TD-FC\6-311++G(d,p)\C14H11(1+)\TS
 1578\02-Aug-2022\0\\#n M062X/6-311++G(d,p) TD(NStates=1) EmpiricalDisp
 ersion=GD3 SP\\SP_125\\1,1\C,0,2.485705,1.359831,0.\C,0,3.690833,0.666
 089,0.\C,0,3.681461,-0.72488,0.\C,0,2.475031,-1.414713,0.\C,0,-2.45163
 1,-1.401063,0.\C,0,-3.688361,-0.70628,0.\C,0,-3.715508,0.676664,0.\C,0
 ,-2.506255,1.358931,0.\C,0,-0.00665,1.461069,0.\C,0,0.0183,-1.429539,0
 .\C,0,1.265055,0.68289,0.\C,0,1.244271,-0.731179,0.\C,0,-1.25958,0.671
 415,0.\C,0,-1.229271,-0.729379,0.\H,0,2.488771,2.442847,0.\H,0,4.62627
 8,1.206064,0.\H,0,4.611962,-1.274199,0.\H,0,2.4725,-2.496959,0.\H,0,0.
 016875,-2.510441,0.\H,0,-2.46155,-2.483684,0.\H,0,-4.607612,-1.274874,
 0.\H,0,-4.651253,1.214689,0.\H,0,-2.495071,2.442172,0.\H,0,-0.024,2.14
 7537,-0.86151\H,0,-0.024,2.147537,0.86151\\Version=ES64L-G16RevC.01\St
 ate=1-A'\HF=-539.7592818\RMSD=6.633e-09\PG=CS [SG(C14H9),X(H2)]\\@
 The archive entry for this job was punched.


 THE MOST BEAUTIFUL EXPERIENCE WE CAN HAVE IS THE MYSTERIOUS.
 IT IS THE FUNDAMENTAL EMOTION WHICH STANDS AT AT THE CRADLE 
 OF TRUE ART AND TRUE SCIENCE.

                                    -- ALBERT EINSTEIN
 Job cpu time:       0 days  0 hours 52 minutes 32.5 seconds.
 Elapsed time:       0 days  0 hours  1 minutes  6.1 seconds.
 File lengths (MBytes):  RWF=    460 Int=      0 D2E=      0 Chk=     15 Scr=      1
 Normal termination of Gaussian 16 at Tue Aug  2 13:20:10 2022.
