 Entering Gaussian System, Link 0=g16
 Initial command:
 /apps/gaussian/g16c01/g16/l1.exe "/jobfs/53796104.gadi-pbs/Gau-3638263.inp" -scrdir="/jobfs/53796104.gadi-pbs/"
 Entering Link 1 = /apps/gaussian/g16c01/g16/l1.exe PID=   3638264.
  
 Copyright (c) 1988-2019, Gaussian, Inc.  All Rights Reserved.
  
 This is part of the Gaussian(R) 16 program.  It is based on
 the Gaussian(R) 09 system (copyright 2009, Gaussian, Inc.),
 the Gaussian(R) 03 system (copyright 2003, Gaussian, Inc.),
 the Gaussian(R) 98 system (copyright 1998, Gaussian, Inc.),
 the Gaussian(R) 94 system (copyright 1995, Gaussian, Inc.),
 the Gaussian 92(TM) system (copyright 1992, Gaussian, Inc.),
 the Gaussian 90(TM) system (copyright 1990, Gaussian, Inc.),
 the Gaussian 88(TM) system (copyright 1988, Gaussian, Inc.),
 the Gaussian 86(TM) system (copyright 1986, Carnegie Mellon
 University), and the Gaussian 82(TM) system (copyright 1983,
 Carnegie Mellon University). Gaussian is a federally registered
 trademark of Gaussian, Inc.
  
 This software contains proprietary and confidential information,
 including trade secrets, belonging to Gaussian, Inc.
  
 This software is provided under written license and may be
 used, copied, transmitted, or stored only in accord with that
 written license.
  
 The following legend is applicable only to US Government
 contracts under FAR:
  
                    RESTRICTED RIGHTS LEGEND
  
 Use, reproduction and disclosure by the US Government is
 subject to restrictions as set forth in subparagraphs (a)
 and (c) of the Commercial Computer Software - Restricted
 Rights clause in FAR 52.227-19.
  
 Gaussian, Inc.
 340 Quinnipiac St., Bldg. 40, Wallingford CT 06492
  
  
 ---------------------------------------------------------------
 Warning -- This program may not be used in any manner that
 competes with the business of Gaussian, Inc. or will provide
 assistance to any competitor of Gaussian, Inc.  The licensee
 of this program is prohibited from giving any competitor of
 Gaussian, Inc. access to this program.  By using this program,
 the user acknowledges that Gaussian, Inc. is engaged in the
 business of creating and licensing software in the field of
 computational chemistry and represents and warrants to the
 licensee that it is not a competitor of Gaussian, Inc. and that
 it will not use this program in any manner prohibited above.
 ---------------------------------------------------------------
  

 Cite this work as:
 Gaussian 16, Revision C.01,
 M. J. Frisch, G. W. Trucks, H. B. Schlegel, G. E. Scuseria, 
 M. A. Robb, J. R. Cheeseman, G. Scalmani, V. Barone, 
 G. A. Petersson, H. Nakatsuji, X. Li, M. Caricato, A. V. Marenich, 
 J. Bloino, B. G. Janesko, R. Gomperts, B. Mennucci, H. P. Hratchian, 
 J. V. Ortiz, A. F. Izmaylov, J. L. Sonnenberg, D. Williams-Young, 
 F. Ding, F. Lipparini, F. Egidi, J. Goings, B. Peng, A. Petrone, 
 T. Henderson, D. Ranasinghe, V. G. Zakrzewski, J. Gao, N. Rega, 
 G. Zheng, W. Liang, M. Hada, M. Ehara, K. Toyota, R. Fukuda, 
 J. Hasegawa, M. Ishida, T. Nakajima, Y. Honda, O. Kitao, H. Nakai, 
 T. Vreven, K. Throssell, J. A. Montgomery, Jr., J. E. Peralta, 
 F. Ogliaro, M. J. Bearpark, J. J. Heyd, E. N. Brothers, K. N. Kudin, 
 V. N. Staroverov, T. A. Keith, R. Kobayashi, J. Normand, 
 K. Raghavachari, A. P. Rendell, J. C. Burant, S. S. Iyengar, 
 J. Tomasi, M. Cossi, J. M. Millam, M. Klene, C. Adamo, R. Cammi, 
 J. W. Ochterski, R. L. Martin, K. Morokuma, O. Farkas, 
 J. B. Foresman, and D. J. Fox, Gaussian, Inc., Wallingford CT, 2019.
 
 ******************************************
 Gaussian 16:  ES64L-G16RevC.01  3-Jul-2019
                 2-Aug-2022 
 ******************************************
 %NProcShared=48
 Will use up to   48 processors via shared memory.
 %mem = 190GB
 ---------------------------------------------------------------
 #n M062X/6-311++G(d,p) TD(NStates=1) EmpiricalDispersion=GD3 SP
 ---------------------------------------------------------------
 1/38=1,172=1/1;
 2/12=2,17=6,18=5,40=1/2;
 3/5=4,6=6,7=1111,11=9,25=1,30=1,74=-55,124=31/1,2,3,8;
 4//1;
 5/5=2,38=5/2;
 8/6=1,10=2,108=1/1;
 9/41=1,42=1,70=2/14;
 6/7=2,8=2,9=2,10=2/1;
 99/5=1,9=1/99;
 -----
 SP_25
 -----
 Symbolic Z-matrix:
 Charge =  1 Multiplicity = 1
 C                     2.4702    1.36193   0. 
 C                     3.67588   0.66176   0. 
 C                     3.67636  -0.73143   0. 
 C                     2.48646  -1.42099   0. 
 C                    -2.43966  -1.39369   0. 
 C                    -3.69016  -0.69423   0. 
 C                    -3.72523   0.68291   0. 
 C                    -2.51131   1.36013   0. 
 C                    -0.01308   1.44897   0. 
 C                     0.0366   -1.42899   0. 
 C                     1.26738   0.68849   0. 
 C                     1.25287  -0.7329    0. 
 C                    -1.25643   0.66554   0. 
 C                    -1.22287  -0.7293    0. 
 H                     2.47957   2.44497   0. 
 H                     4.61063   1.20381   0. 
 H                     4.61331  -1.27042   0. 
 H                     2.4788   -2.50318   0. 
 H                     0.03375  -2.51017   0. 
 H                    -2.4569   -2.47663   0. 
 H                    -4.60461  -1.27177   0. 
 H                    -4.66058   1.22106   0. 
 H                    -2.49217   2.44362   0. 
 H                    -0.048     2.14479  -0.85849 
 H                    -0.048     2.14479   0.85849 
 
                          Input orientation:                          
 ---------------------------------------------------------------------
 Center     Atomic      Atomic             Coordinates (Angstroms)
 Number     Number       Type             X           Y           Z
 ---------------------------------------------------------------------
      1          6           0        2.470205    1.361931    0.000000
      2          6           0        3.675883    0.661764    0.000000
      3          6           0        3.676361   -0.731430    0.000000
      4          6           0        2.486456   -1.420988    0.000000
      5          6           0       -2.439656   -1.393688    0.000000
      6          6           0       -3.690161   -0.694230    0.000000
      7          6           0       -3.725233    0.682914    0.000000
      8          6           0       -2.511305    1.360131    0.000000
      9          6           0       -0.013075    1.448969    0.000000
     10          6           0        0.036600   -1.428989    0.000000
     11          6           0        1.267380    0.688490    0.000000
     12          6           0        1.252871   -0.732904    0.000000
     13          6           0       -1.256430    0.665540    0.000000
     14          6           0       -1.222871   -0.729304    0.000000
     15          1           0        2.479571    2.444972    0.000000
     16          1           0        4.610628    1.203814    0.000000
     17          1           0        4.613312   -1.270424    0.000000
     18          1           0        2.478800   -2.503184    0.000000
     19          1           0        0.033750   -2.510166    0.000000
     20          1           0       -2.456900   -2.476634    0.000000
     21          1           0       -4.604612   -1.271774    0.000000
     22          1           0       -4.660578    1.221064    0.000000
     23          1           0       -2.492171    2.443622    0.000000
     24          1           0       -0.048000    2.144787   -0.858485
     25          1           0       -0.048000    2.144787    0.858485
 ---------------------------------------------------------------------
                    Distance matrix (angstroms):
                    1          2          3          4          5
     1  C    0.000000
     2  C    1.394236   0.000000
     3  C    2.415983   1.393194   0.000000
     4  C    2.782966   2.398456   1.375269   0.000000
     5  C    5.630290   6.451721   6.151768   4.926188   0.000000
     6  C    6.494452   7.489815   7.366616   6.219226   1.432831
     7  C    6.232537   7.401146   7.535513   6.558314   2.442332
     8  C    4.981510   6.226477   6.531603   5.719461   2.754751
     9  C    2.484805   3.772016   4.285566   3.805826   3.737512
    10  C    3.702927   4.197098   3.706002   2.449869   2.476508
    11  C    1.378518   2.408651   2.796312   2.436400   4.251774
    12  C    2.422857   2.795726   2.423490   1.412512   3.751185
    13  C    3.791143   4.932314   5.126788   4.285183   2.374962
    14  C    4.244063   5.092432   4.899232   3.773266   1.386352
    15  H    1.083081   2.147322   3.394383   3.865966   6.239720
    16  H    2.146255   1.080540   2.148959   3.376639   7.513556
    17  H    3.394437   2.147586   1.080922   2.132179   7.054045
    18  H    3.865125   3.383771   2.138519   1.082223   5.042042
    19  H    4.574871   4.829728   4.053704   2.683668   2.713717
    20  H    6.245874   6.889163   6.376725   5.054815   1.083083
    21  H    7.549135   8.503244   8.298583   7.092638   2.168386
    22  H    7.132174   8.355202   8.562522   7.619746   3.430659
    23  H    5.078901   6.420273   6.937704   6.302534   3.837669
    24  H    2.773304   4.099227   4.783355   4.458163   4.356354
    25  H    2.773304   4.099227   4.783355   4.458163   4.356354
                    6          7          8          9         10
     6  C    0.000000
     7  C    1.377591   0.000000
     8  C    2.368565   1.390052   0.000000
     9  C    4.256085   3.790377   2.499809   0.000000
    10  C    3.798502   4.314107   3.777699   2.878387   0.000000
    11  C    5.146759   4.992616   3.837911   1.489259   2.449191
    12  C    4.943183   5.175525   4.306950   2.522536   1.401374
    13  C    2.787834   2.468864   1.434283   1.469589   2.461499
    14  C    2.467539   2.873356   2.454751   2.491682   1.440773
    15  H    6.922440   6.450150   5.107418   2.684270   4.579922
    16  H    8.515026   8.352120   7.123648   4.630198   5.277631
    17  H    8.323441   8.564278   7.594734   5.366429   4.579458
    18  H    6.428716   6.974328   6.310812   4.672147   2.668002
    19  H    4.143083   4.932110   4.632117   3.959412   1.081181
    20  H    2.167463   3.404616   3.837151   4.624137   2.704645
    21  H    1.081563   2.143388   3.362865   5.337102   4.643874
    22  H    2.147105   1.079109   2.153767   4.653088   5.393168
    23  H    3.358764   2.149543   1.083660   2.671189   4.625127
    24  H    4.697058   4.049211   2.724069   1.105612   3.676415
    25  H    4.697058   4.049211   2.724069   1.105612   3.676415
                   11         12         13         14         15
    11  C    0.000000
    12  C    1.421468   0.000000
    13  C    2.523914   2.872671   0.000000
    14  C    2.865570   2.475745   1.395248   0.000000
    15  H    2.134159   3.406419   4.138125   4.876895   0.000000
    16  H    3.382731   3.876262   5.891698   6.145458   2.466146
    17  H    3.877190   3.403159   6.180763   5.861215   4.284509
    18  H    3.413843   2.153321   4.898240   4.104756   4.948156
    19  H    3.428300   2.155207   3.427780   2.179579   5.525888
    20  H    4.887563   4.099146   3.363686   2.139156   6.970721
    21  H    6.190551   5.882218   3.868269   3.424974   7.999991
    22  H    5.951833   6.227911   3.449178   3.952438   7.244286
    23  H    4.149062   4.910769   2.165325   3.417394   4.971742
    24  H    2.141967   3.272670   2.094152   3.221446   2.686210
    25  H    2.141967   3.272670   2.094152   3.221446   2.686210
                   16         17         18         19         20
    16  H    0.000000
    17  H    2.474239   0.000000
    18  H    4.276275   2.464922   0.000000
    19  H    5.894189   4.744402   2.445060   0.000000
    20  H    7.968416   7.172366   4.935771   2.490876   0.000000
    21  H    9.541970   9.217924   7.189652   4.800835   2.462591
    22  H    9.271222   9.602736   8.052375   5.996565   4.304552
    23  H    7.210193   8.017607   7.012948   5.560602   4.920382
    24  H    4.829621   5.841960   5.359603   4.734160   5.281792
    25  H    4.829621   5.841960   5.359603   4.734160   5.281792
                   21         22         23         24         25
    21  H    0.000000
    22  H    2.493466   0.000000
    23  H    4.273941   2.489305   0.000000
    24  H    5.759566   4.781855   2.607733   0.000000
    25  H    5.759566   4.781855   2.607733   1.716970   0.000000
 Stoichiometry    C14H11(1+)
 Framework group  CS[SG(C14H9),X(H2)]
 Deg. of freedom    46
 Full point group                 CS      NOp   2
 Largest Abelian subgroup         CS      NOp   2
 Largest concise Abelian subgroup CS      NOp   2
                         Standard orientation:                         
 ---------------------------------------------------------------------
 Center     Atomic      Atomic             Coordinates (Angstroms)
 Number     Number       Type             X           Y           Z
 ---------------------------------------------------------------------
      1          6           0       -2.360327   -1.545422    0.000000
      2          6           0       -2.306221   -2.938608    0.000000
      3          6           0       -1.075425   -3.591394    0.000000
      4          6           0        0.091039   -2.862885    0.000000
      5          6           0        2.373571    1.502590    0.000000
      6          6           0        2.341083    2.935053    0.000000
      7          6           0        1.140667    3.610890    0.000000
      8          6           0       -0.026142    2.855376    0.000000
      9          6           0       -1.274436    0.689549    0.000000
     10          6           0        1.245255   -0.701949    0.000000
     11          6           0       -1.202054   -0.797950    0.000000
     12          6           0        0.060678   -1.450699    0.000000
     13          6           0       -0.000000    1.421331    0.000000
     14          6           0        1.216764    0.738542    0.000000
     15          1           0       -3.321683   -1.046564    0.000000
     16          1           0       -3.222869   -3.510730    0.000000
     17          1           0       -1.037900   -4.671664    0.000000
     18          1           0        1.050848   -3.362859    0.000000
     19          1           0        2.201913   -1.205692    0.000000
     20          1           0        3.338532    1.010737    0.000000
     21          1           0        3.279590    3.472622    0.000000
     22          1           0        1.103135    4.689346    0.000000
     23          1           0       -0.992469    3.345814    0.000000
     24          1           0       -1.872904    1.046226    0.858485
     25          1           0       -1.872904    1.046226   -0.858485
 ---------------------------------------------------------------------
 Rotational constants (GHZ):           2.1379048           0.4447962           0.3689915
 Standard basis: 6-311++G(d,p) (5D, 7F)
 There are   299 symmetry adapted cartesian basis functions of A'  symmetry.
 There are   100 symmetry adapted cartesian basis functions of A"  symmetry.
 There are   285 symmetry adapted basis functions of A'  symmetry.
 There are   100 symmetry adapted basis functions of A"  symmetry.
   385 basis functions,   603 primitive gaussians,   399 cartesian basis functions
    47 alpha electrons       47 beta electrons
       nuclear repulsion energy       781.4270920487 Hartrees.
 NAtoms=   25 NActive=   25 NUniq=   24 SFac= 1.09D+00 NAtFMM=   60 NAOKFM=F Big=F
 Integral buffers will be    131072 words long.
 Regular integral format.
 Two-electron integral symmetry is turned on.
 Nuclear repulsion after empirical dispersion term =      781.4261128679 Hartrees.
 One-electron integrals computed using PRISM.
 NBasis=   385 RedAO= T EigKep=  1.11D-06  NBF=   285   100
 NBsUse=   379 1.00D-06 EigRej=  8.34D-07 NBFU=   279   100
 ExpMin= 3.60D-02 ExpMax= 4.56D+03 ExpMxC= 6.82D+02 IAcc=3 IRadAn=         5 AccDes= 0.00D+00
 Harris functional with IExCor= 1009 and IRadAn=       5 diagonalized for initial guess.
 HarFok:  IExCor= 1009 AccDes= 0.00D+00 IRadAn=         5 IDoV= 1 UseB2=F ITyADJ=14
 ICtDFT=  3500011 ScaDFX=  1.000000  1.000000  1.000000  1.000000
 FoFCou: FMM=F IPFlag=           0 FMFlag=      100000 FMFlg1=           0
         NFxFlg=           0 DoJE=T BraDBF=F KetDBF=T FulRan=T
         wScrn=  0.000000 ICntrl=       500 IOpCl=  0 I1Cent=   200000004 NGrid=           0
         NMat0=    1 NMatS0=      1 NMatT0=    0 NMatD0=    1 NMtDS0=    0 NMtDT0=    0
 Petite list used in FoFCou.
 Initial guess orbital symmetries:
       Occupied  (A') (A') (A') (A') (A') (A') (A') (A') (A') (A')
                 (A') (A') (A') (A') (A') (A') (A') (A') (A') (A')
                 (A') (A') (A') (A') (A') (A') (A') (A') (A') (A')
                 (A') (A') (A") (A') (A') (A') (A') (A') (A") (A')
                 (A") (A') (A') (A") (A") (A") (A")
       Virtual   (A") (A") (A") (A") (A") (A') (A') (A') (A') (A")
                 (A") (A') (A') (A') (A") (A') (A') (A') (A') (A")
                 (A') (A") (A') (A') (A') (A") (A') (A") (A') (A')
                 (A') (A') (A') (A') (A") (A') (A") (A') (A') (A')
                 (A") (A') (A') (A") (A') (A') (A') (A') (A') (A")
                 (A') (A') (A") (A") (A') (A') (A') (A") (A") (A')
                 (A') (A') (A') (A') (A') (A') (A") (A') (A') (A")
                 (A') (A') (A') (A') (A') (A') (A') (A') (A') (A')
                 (A') (A') (A') (A') (A') (A') (A') (A') (A') (A')
                 (A') (A') (A') (A') (A') (A') (A') (A") (A') (A")
                 (A') (A') (A") (A") (A') (A") (A') (A") (A") (A')
                 (A") (A') (A') (A') (A") (A') (A') (A") (A") (A')
                 (A") (A") (A') (A') (A') (A") (A') (A') (A') (A")
                 (A') (A') (A') (A') (A') (A') (A") (A') (A') (A')
                 (A') (A') (A') (A') (A') (A') (A') (A') (A') (A")
                 (A") (A') (A") (A") (A') (A') (A') (A") (A") (A')
                 (A") (A') (A") (A") (A") (A') (A') (A') (A') (A')
                 (A') (A") (A') (A') (A") (A') (A') (A') (A') (A")
                 (A') (A') (A') (A') (A") (A') (A") (A') (A") (A")
                 (A') (A") (A') (A") (A') (A') (A') (A") (A') (A')
                 (A") (A") (A") (A') (A') (A") (A') (A") (A') (A')
                 (A") (A") (A') (A") (A') (A") (A') (A') (A') (A")
                 (A') (A') (A') (A') (A") (A') (A') (A') (A") (A")
                 (A') (A') (A') (A") (A') (A') (A") (A') (A") (A')
                 (A") (A') (A') (A') (A') (A") (A') (A') (A') (A")
                 (A') (A') (A") (A') (A") (A') (A') (A") (A') (A')
                 (A') (A") (A') (A") (A') (A') (A') (A") (A') (A")
                 (A') (A') (A') (A') (A") (A') (A") (A') (A") (A')
                 (A") (A') (A") (A") (A") (A') (A') (A') (A') (A')
                 (A') (A') (A') (A') (A') (A') (A') (A') (A') (A')
                 (A') (A') (A') (A") (A') (A') (A') (A') (A') (A')
                 (A') (A') (A') (A') (A') (A') (A') (A') (A') (A')
                 (A') (A') (A') (A') (A') (A') (A') (A') (A') (A')
                 (A') (A')
 The electronic state of the initial guess is 1-A'.
 Requested convergence on RMS density matrix=1.00D-08 within 128 cycles.
 Requested convergence on MAX density matrix=1.00D-06.
 Requested convergence on             energy=1.00D-06.
 No special actions if energy rises.
 SCF Done:  E(RM062X) =  -539.756224685     A.U. after   15 cycles
            NFock= 15  Conv=0.87D-08     -V/T= 2.0041
 DoSCS=F DFT=T ScalE2(SS,OS)=  1.000000  1.000000
 ExpMin= 3.60D-02 ExpMax= 4.56D+03 ExpMxC= 6.82D+02 IAcc=3 IRadAn=         5 AccDes= 0.00D+00
 HarFok:  IExCor=  205 AccDes= 0.00D+00 IRadAn=         5 IDoV=-2 UseB2=F ITyADJ=14
 ICtDFT= 12500011 ScaDFX=  1.000000  1.000000  1.000000  1.000000
 Range of M.O.s used for correlation:    15   379
 NBasis=   385 NAE=    47 NBE=    47 NFC=    14 NFV=     0
 NROrb=    365 NOA=    33 NOB=    33 NVA=   332 NVB=   332

 **** Warning!!: The largest alpha MO coefficient is  0.13915217D+03

 Orbital symmetries:
       Occupied  (A') (A') (A') (A') (A') (A') (A') (A') (A') (A')
                 (A') (A') (A') (A') (A') (A') (A') (A') (A') (A')
                 (A') (A') (A') (A') (A') (A') (A') (A') (A') (A')
                 (A') (A') (A") (A') (A') (A') (A') (A") (A") (A')
                 (A') (A') (A') (A") (A") (A") (A")
       Virtual   (A") (A") (A") (A") (A') (A') (A') (A') (A") (A')
                 (A') (A") (A') (A') (A") (A') (A") (A') (A') (A')
                 (A") (A") (A') (A') (A') (A") (A') (A") (A') (A')
                 (A") (A') (A") (A') (A') (A') (A') (A') (A") (A')
                 (A") (A') (A') (A") (A") (A') (A") (A') (A") (A')
                 (A') (A') (A') (A') (A') (A") (A') (A') (A') (A')
                 (A') (A") (A') (A') (A') (A") (A') (A') (A') (A')
                 (A') (A') (A') (A') (A') (A') (A') (A') (A') (A')
                 (A') (A') (A') (A') (A') (A') (A') (A') (A') (A')
                 (A') (A') (A') (A') (A") (A') (A") (A") (A') (A")
                 (A') (A') (A') (A') (A") (A") (A') (A") (A") (A')
                 (A') (A') (A") (A') (A') (A") (A') (A") (A') (A")
                 (A") (A') (A") (A') (A') (A') (A") (A') (A') (A')
                 (A') (A') (A') (A') (A') (A') (A') (A') (A') (A')
                 (A') (A') (A') (A") (A') (A') (A') (A') (A') (A')
                 (A') (A') (A") (A') (A") (A') (A") (A") (A') (A")
                 (A") (A') (A') (A") (A") (A') (A") (A") (A') (A')
                 (A') (A') (A') (A") (A") (A') (A') (A') (A') (A")
                 (A') (A') (A') (A") (A") (A') (A') (A") (A') (A")
                 (A") (A') (A') (A") (A') (A") (A') (A') (A') (A')
                 (A") (A") (A") (A') (A") (A') (A') (A") (A') (A')
                 (A') (A") (A') (A") (A") (A') (A") (A') (A') (A")
                 (A') (A') (A') (A') (A") (A') (A') (A') (A") (A")
                 (A') (A') (A') (A") (A') (A') (A') (A") (A") (A')
                 (A") (A') (A') (A") (A') (A') (A') (A') (A') (A')
                 (A") (A') (A') (A') (A') (A") (A") (A") (A') (A')
                 (A') (A') (A') (A') (A') (A') (A') (A") (A') (A')
                 (A') (A") (A') (A") (A") (A") (A') (A") (A') (A")
                 (A') (A") (A") (A') (A") (A") (A') (A') (A') (A')
                 (A') (A') (A') (A') (A') (A') (A') (A') (A') (A')
                 (A') (A') (A') (A") (A') (A') (A') (A') (A') (A')
                 (A') (A') (A') (A') (A') (A') (A') (A') (A') (A')
                 (A') (A') (A') (A') (A') (A') (A') (A') (A') (A')
                 (A') (A')
     4 initial guesses have been made.
 Convergence on wavefunction:    0.001000000000000
 Iteration     1 Dimension     4 NMult     0 NNew      4
 CISAX will form     4 AO SS matrices at one time.
 Iteration     2 Dimension     6 NMult     4 NNew      2
 Iteration     3 Dimension     8 NMult     6 NNew      2
 Iteration     4 Dimension    10 NMult     8 NNew      2
 Iteration     5 Dimension    12 NMult    10 NNew      2
 Iteration     6 Dimension    14 NMult    12 NNew      2
 ***********************************************************************
 Excited states from <AA,BB:AA,BB> singles matrix:
 ***********************************************************************
 
 Ground to excited state transition densities written to RWF  633
 Ground to excited state transition electric dipole moments (Au):
       state          X           Y           Z        Dip. S.      Osc.
         1        -0.4890      0.3058      0.0000      0.3326      0.0222
 Ground to excited state transition velocity dipole moments (Au):
       state          X           Y           Z        Dip. S.      Osc.
         1         0.0567     -0.0309     -0.0000      0.0042      0.0278
 Ground to excited state transition magnetic dipole moments (Au):
       state          X           Y           Z
         1         0.0000      0.0000     -0.1619
 Ground to excited state transition velocity quadrupole moments (Au):
       state          XX          YY          ZZ          XY          XZ          YZ
         1         0.1399      0.1417     -0.0087      0.1366     -0.0000     -0.0000
 <0|del|b> * <b|rxdel|0> + <0|del|b> * <b|delr+rdel|0>
 Rotatory Strengths (R) in cgs (10**-40 erg-esu-cm/Gauss)
       state          XX          YY          ZZ    R(velocity)    E-M Angle
         1        -0.0000     -0.0000      0.0000     -0.0000       90.00
 1/2[<0|r|b>*<b|rxdel|0> + (<0|rxdel|b>*<b|r|0>)*]
 Rotatory Strengths (R) in cgs (10**-40 erg-esu-cm/Gauss)
       state          XX          YY          ZZ     R(length)
         1         0.0000     -0.0000      0.0000      0.0000
  1/2[<0|del|b>*<b|r|0> + (<0|r|b>*<b|del|0>)*] (Au)
       state          X           Y           Z        Dip. S.   Osc.(frdel)
         1        -0.0277     -0.0095     -0.0000      0.0372      0.0248

 Excitation energies and oscillator strengths:
 
 Excited State   1:      Singlet-A'     2.7181 eV  456.14 nm  f=0.0222  <S**2>=0.000
      47 -> 48         0.70358
 This state for optimization and/or second-order correction.
 Total Energy, E(TD-HF/TD-DFT) =  -539.656335951    
 Copying the excited state density for this state as the 1-particle RhoCI density.
 SavETr:  write IOETrn=   770 NScale= 10 NData=  16 NLR=1 NState=    1 LETran=      28.

 **********************************************************************

            Population analysis using the SCF Density.

 **********************************************************************

 Orbital symmetries:
       Occupied  (A') (A') (A') (A') (A') (A') (A') (A') (A') (A')
                 (A') (A') (A') (A') (A') (A') (A') (A') (A') (A')
                 (A') (A') (A') (A') (A') (A') (A') (A') (A') (A')
                 (A') (A') (A") (A') (A') (A') (A') (A") (A") (A')
                 (A') (A') (A') (A") (A") (A") (A")
       Virtual   (A") (A") (A") (A") (A') (A') (A') (A') (A") (A')
                 (A') (A") (A') (A') (A") (A') (A") (A') (A') (A')
                 (A") (A") (A') (A') (A') (A") (A') (A") (A') (A')
                 (A") (A') (A") (A') (A') (A') (A') (A') (A") (A')
                 (A") (A') (A') (A") (A") (A') (A") (A') (A") (A')
                 (A') (A') (A') (A') (A') (A") (A') (A') (A') (A')
                 (A') (A") (A') (A') (A') (A") (A') (A') (A') (A')
                 (A') (A') (A') (A') (A') (A') (A') (A') (A') (A')
                 (A') (A') (A') (A') (A') (A') (A') (A') (A') (A')
                 (A') (A') (A') (A') (A") (A') (A") (A") (A') (A")
                 (A') (A') (A') (A') (A") (A") (A') (A") (A") (A')
                 (A') (A') (A") (A') (A') (A") (A') (A") (A') (A")
                 (A") (A') (A") (A') (A') (A') (A") (A') (A') (A')
                 (A') (A') (A') (A') (A') (A') (A') (A') (A') (A')
                 (A') (A') (A') (A") (A') (A') (A') (A') (A') (A')
                 (A') (A') (A") (A') (A") (A') (A") (A") (A') (A")
                 (A") (A') (A') (A") (A") (A') (A") (A") (A') (A')
                 (A') (A') (A') (A") (A") (A') (A') (A') (A') (A")
                 (A') (A') (A') (A") (A") (A') (A') (A") (A') (A")
                 (A") (A') (A') (A") (A') (A") (A') (A') (A') (A')
                 (A") (A") (A") (A') (A") (A') (A') (A") (A') (A')
                 (A') (A") (A') (A") (A") (A') (A") (A') (A') (A")
                 (A') (A') (A') (A') (A") (A') (A') (A') (A") (A")
                 (A') (A') (A') (A") (A') (A') (A') (A") (A") (A')
                 (A") (A') (A') (A") (A') (A') (A') (A') (A') (A')
                 (A") (A') (A') (A') (A') (A") (A") (A") (A') (A')
                 (A') (A') (A') (A') (A') (A') (A') (A") (A') (A')
                 (A') (A") (A') (A") (A") (A") (A') (A") (A') (A")
                 (A') (A") (A") (A') (A") (A") (A') (A') (A') (A')
                 (A') (A') (A') (A') (A') (A') (A') (A') (A') (A')
                 (A') (A') (A') (A") (A') (A') (A') (A') (A') (A')
                 (A') (A') (A') (A') (A') (A') (A') (A') (A') (A')
                 (A') (A') (A') (A') (A') (A') (A') (A') (A') (A')
                 (A') (A')
 The electronic state is 1-A'.
 Alpha  occ. eigenvalues --  -10.77604 -10.73636 -10.72777 -10.72750 -10.72053
 Alpha  occ. eigenvalues --  -10.71803 -10.71760 -10.70968 -10.70939 -10.70263
 Alpha  occ. eigenvalues --  -10.70166 -10.69867 -10.69778 -10.69376  -1.16531
 Alpha  occ. eigenvalues --   -1.12488  -1.06939  -1.05851  -1.01297  -1.00361
 Alpha  occ. eigenvalues --   -0.95644  -0.91051  -0.86436  -0.85906  -0.83801
 Alpha  occ. eigenvalues --   -0.78364  -0.76123  -0.74389  -0.69695  -0.69299
 Alpha  occ. eigenvalues --   -0.68388  -0.68121  -0.68087  -0.65102  -0.64256
 Alpha  occ. eigenvalues --   -0.62877  -0.61706  -0.60313  -0.59368  -0.59133
 Alpha  occ. eigenvalues --   -0.56939  -0.55255  -0.54663  -0.52436  -0.47079
 Alpha  occ. eigenvalues --   -0.46105  -0.44023
 Alpha virt. eigenvalues --   -0.26088  -0.14670  -0.14084  -0.12763  -0.11188
 Alpha virt. eigenvalues --   -0.10094  -0.09248  -0.07969  -0.07938  -0.07482
 Alpha virt. eigenvalues --   -0.07212  -0.07142  -0.05643  -0.05579  -0.05347
 Alpha virt. eigenvalues --   -0.03842  -0.03659  -0.03276  -0.03130  -0.02158
 Alpha virt. eigenvalues --   -0.01358  -0.00947   0.00184   0.00594   0.00666
 Alpha virt. eigenvalues --    0.01063   0.01506   0.01931   0.02167   0.02298
 Alpha virt. eigenvalues --    0.02449   0.02674   0.02780   0.03232   0.03420
 Alpha virt. eigenvalues --    0.04226   0.04504   0.04709   0.05034   0.05380
 Alpha virt. eigenvalues --    0.06024   0.06296   0.06587   0.07060   0.07260
 Alpha virt. eigenvalues --    0.07902   0.08112   0.08361   0.08617   0.08916
 Alpha virt. eigenvalues --    0.09507   0.09586   0.10003   0.10852   0.11016
 Alpha virt. eigenvalues --    0.11119   0.12134   0.12256   0.12769   0.13033
 Alpha virt. eigenvalues --    0.13456   0.13522   0.14002   0.14339   0.15986
 Alpha virt. eigenvalues --    0.16325   0.16484   0.17335   0.17529   0.17788
 Alpha virt. eigenvalues --    0.18131   0.19044   0.19335   0.19657   0.19862
 Alpha virt. eigenvalues --    0.21520   0.21657   0.22703   0.23140   0.23573
 Alpha virt. eigenvalues --    0.23867   0.24526   0.25327   0.26938   0.27622
 Alpha virt. eigenvalues --    0.28873   0.29280   0.29929   0.31370   0.35824
 Alpha virt. eigenvalues --    0.36479   0.38201   0.39284   0.41100   0.41326
 Alpha virt. eigenvalues --    0.41995   0.42121   0.42982   0.43726   0.44362
 Alpha virt. eigenvalues --    0.44808   0.45127   0.45939   0.46356   0.47879
 Alpha virt. eigenvalues --    0.48448   0.48835   0.49022   0.50499   0.51196
 Alpha virt. eigenvalues --    0.51358   0.52018   0.52131   0.52837   0.54096
 Alpha virt. eigenvalues --    0.54108   0.54643   0.55645   0.55894   0.57452
 Alpha virt. eigenvalues --    0.58230   0.58917   0.61493   0.62208   0.62410
 Alpha virt. eigenvalues --    0.63188   0.63484   0.64999   0.65169   0.67466
 Alpha virt. eigenvalues --    0.70341   0.70482   0.71177   0.72495   0.72909
 Alpha virt. eigenvalues --    0.75619   0.76064   0.76399   0.76790   0.77126
 Alpha virt. eigenvalues --    0.77875   0.77995   0.78296   0.79891   0.80404
 Alpha virt. eigenvalues --    0.81264   0.81547   0.82332   0.83007   0.85252
 Alpha virt. eigenvalues --    0.87101   0.88213   0.88314   0.89246   0.90578
 Alpha virt. eigenvalues --    0.91113   0.91372   0.93268   0.94624   0.96325
 Alpha virt. eigenvalues --    0.96852   1.00249   1.01291   1.01566   1.02806
 Alpha virt. eigenvalues --    1.03192   1.03254   1.04836   1.06157   1.08871
 Alpha virt. eigenvalues --    1.19592   1.23044   1.24158   1.24613   1.28755
 Alpha virt. eigenvalues --    1.29374   1.32151   1.34237   1.35783   1.35984
 Alpha virt. eigenvalues --    1.39369   1.39827   1.40891   1.42920   1.43465
 Alpha virt. eigenvalues --    1.43557   1.44357   1.46383   1.46609   1.46632
 Alpha virt. eigenvalues --    1.47684   1.48170   1.51820   1.53668   1.55772
 Alpha virt. eigenvalues --    1.55939   1.56313   1.56577   1.57839   1.61510
 Alpha virt. eigenvalues --    1.63069   1.63317   1.64094   1.66124   1.68313
 Alpha virt. eigenvalues --    1.68401   1.68687   1.69787   1.74454   1.76036
 Alpha virt. eigenvalues --    1.77220   1.78074   1.79996   1.80076   1.80855
 Alpha virt. eigenvalues --    1.82938   1.83192   1.83661   1.83857   1.84153
 Alpha virt. eigenvalues --    1.84491   1.85535   1.86366   1.88337   1.91430
 Alpha virt. eigenvalues --    1.92159   1.94106   1.95333   1.97775   1.98182
 Alpha virt. eigenvalues --    1.99821   2.02589   2.04554   2.07301   2.11771
 Alpha virt. eigenvalues --    2.12174   2.14224   2.15251   2.19145   2.21313
 Alpha virt. eigenvalues --    2.22761   2.28458   2.30404   2.34594   2.34874
 Alpha virt. eigenvalues --    2.36322   2.38620   2.39665   2.42376   2.44373
 Alpha virt. eigenvalues --    2.46157   2.46722   2.49282   2.52976   2.53811
 Alpha virt. eigenvalues --    2.54390   2.56745   2.57906   2.58385   2.59494
 Alpha virt. eigenvalues --    2.59917   2.61583   2.62164   2.63585   2.63791
 Alpha virt. eigenvalues --    2.64831   2.65095   2.65116   2.65561   2.68067
 Alpha virt. eigenvalues --    2.68524   2.70958   2.71459   2.73375   2.74826
 Alpha virt. eigenvalues --    2.76288   2.78694   2.79700   2.83171   2.83187
 Alpha virt. eigenvalues --    2.84902   2.86342   2.92146   2.97052   2.99467
 Alpha virt. eigenvalues --    3.00154   3.05271   3.10053   3.11393   3.13977
 Alpha virt. eigenvalues --    3.20886   3.22935   3.26547   3.28830   3.30611
 Alpha virt. eigenvalues --    3.32841   3.34453   3.43761   3.46150   3.46905
 Alpha virt. eigenvalues --    3.48515   3.50196   3.56562   3.65285   3.67103
 Alpha virt. eigenvalues --    3.67795   3.93842   3.94146   3.95367   3.96434
 Alpha virt. eigenvalues --    4.03972   4.06656   4.07711   4.12531   4.35547
 Alpha virt. eigenvalues --    4.61419   4.69470   4.71369  23.45256  23.60304
 Alpha virt. eigenvalues --   23.80870  23.83431  23.86038  23.89346  23.91545
 Alpha virt. eigenvalues --   23.95055  23.95930  23.97737  24.02625  24.04744
 Alpha virt. eigenvalues --   24.11108  24.12321
          Condensed to atoms (all electrons):
               1          2          3          4          5          6
     1  C    8.368135   0.551932  -0.647945   1.701879   0.009637  -0.085663
     2  C    0.551932   7.128270   0.424801  -0.964857  -0.042725  -0.015584
     3  C   -0.647945   0.424801   6.603740   0.711529  -0.112124   0.016887
     4  C    1.701879  -0.964857   0.711529  11.272141  -0.334759  -0.133895
     5  C    0.009637  -0.042725  -0.112124  -0.334759  10.614353   0.801205
     6  C   -0.085663  -0.015584   0.016887  -0.133895   0.801205   6.587699
     7  C   -0.035464   0.002074  -0.013742   0.000196  -1.137144   0.280959
     8  C    0.409039  -0.009248  -0.103985  -0.054735   2.146896  -0.435494
     9  C   -1.225201  -0.831561   0.289637  -0.045797  -0.421035   0.287790
    10  C   -1.176720   0.162159  -0.283025  -2.731006  -2.402059  -0.428586
    11  C    0.290848  -0.837718   0.916788  -0.261175  -1.431379  -0.125384
    12  C   -1.684163   1.054201  -1.328499  -1.525607  -0.225571  -0.270852
    13  C    0.166911  -0.214452  -0.222136  -1.573928  -0.280392   1.110327
    14  C   -1.133498  -0.286515  -0.132710  -0.437647  -1.537904  -1.462821
    15  H    0.365073  -0.103573  -0.003337   0.024659   0.006501   0.001216
    16  H   -0.020107   0.381236  -0.020274   0.016725  -0.001670  -0.000352
    17  H   -0.019041  -0.021857   0.379711  -0.068482   0.000140   0.000406
    18  H    0.046550   0.003386  -0.084352   0.461389   0.007073  -0.004925
    19  H   -0.044060  -0.008025   0.050735  -0.079410  -0.063458   0.051112
    20  H    0.007184   0.001974  -0.005152   0.006919   0.451675  -0.084637
    21  H   -0.001257  -0.000415   0.000383   0.000468  -0.065733   0.368933
    22  H    0.000427   0.000322  -0.000302  -0.001396   0.010681  -0.012013
    23  H    0.006703  -0.002438   0.000990   0.005046   0.028848   0.000279
    24  H    0.036310   0.015547  -0.001278  -0.011539  -0.013137  -0.001700
    25  H    0.036310   0.015547  -0.001278  -0.011539  -0.013137  -0.001700
               7          8          9         10         11         12
     1  C   -0.035464   0.409039  -1.225201  -1.176720   0.290848  -1.684163
     2  C    0.002074  -0.009248  -0.831561   0.162159  -0.837718   1.054201
     3  C   -0.013742  -0.103985   0.289637  -0.283025   0.916788  -1.328499
     4  C    0.000196  -0.054735  -0.045797  -2.731006  -0.261175  -1.525607
     5  C   -1.137144   2.146896  -0.421035  -2.402059  -1.431379  -0.225571
     6  C    0.280959  -0.435494   0.287790  -0.428586  -0.125384  -0.270852
     7  C    7.124554   0.127530  -0.761804   0.322835  -0.286527  -0.108155
     8  C    0.127530   8.827498  -1.195538  -1.344583   0.219152  -1.032341
     9  C   -0.761804  -1.195538   9.663523   0.247378   1.738663  -2.129767
    10  C    0.322835  -1.344583   0.247378   9.205120  -0.420766   2.393261
    11  C   -0.286527   0.219152   1.738663  -0.420766  14.649465  -4.077885
    12  C   -0.108155  -1.032341  -2.129767   2.393261  -4.077885  16.222029
    13  C   -1.006405   0.271743   1.605758  -0.574564   1.070898  -4.782494
    14  C    1.624865  -2.329719  -1.815050   2.471954  -4.865231   3.012293
    15  H   -0.002907   0.005183   0.088371  -0.008051  -0.029041  -0.014532
    16  H    0.000391   0.000971   0.002978  -0.010567   0.027198  -0.032514
    17  H   -0.000376  -0.001398  -0.005080   0.020169  -0.026363   0.085680
    18  H    0.002018   0.007362  -0.023530   0.011242  -0.010783  -0.045912
    19  H   -0.007249  -0.048653   0.075716   0.422454   0.076339  -0.083239
    20  H    0.002358   0.052191  -0.026387   0.016952  -0.011973  -0.008007
    21  H   -0.009969  -0.029546  -0.006561   0.020844  -0.006348   0.005377
    22  H    0.373857  -0.017529   0.004693  -0.008625   0.002687  -0.007961
    23  H   -0.105578   0.367556   0.095432  -0.011065   0.006161   0.005392
    24  H    0.013031   0.027637   0.357607   0.005620   0.022986  -0.059245
    25  H    0.013031   0.027637   0.357607   0.005620   0.022986  -0.059245
              13         14         15         16         17         18
     1  C    0.166911  -1.133498   0.365073  -0.020107  -0.019041   0.046550
     2  C   -0.214452  -0.286515  -0.103573   0.381236  -0.021857   0.003386
     3  C   -0.222136  -0.132710  -0.003337  -0.020274   0.379711  -0.084352
     4  C   -1.573928  -0.437647   0.024659   0.016725  -0.068482   0.461389
     5  C   -0.280392  -1.537904   0.006501  -0.001670   0.000140   0.007073
     6  C    1.110327  -1.462821   0.001216  -0.000352   0.000406  -0.004925
     7  C   -1.006405   1.624865  -0.002907   0.000391  -0.000376   0.002018
     8  C    0.271743  -2.329719   0.005183   0.000971  -0.001398   0.007362
     9  C    1.605758  -1.815050   0.088371   0.002978  -0.005080  -0.023530
    10  C   -0.574564   2.471954  -0.008051  -0.010567   0.020169   0.011242
    11  C    1.070898  -4.865231  -0.029041   0.027198  -0.026363  -0.010783
    12  C   -4.782494   3.012293  -0.014532  -0.032514   0.085680  -0.045912
    13  C   14.496326  -3.481701  -0.002587   0.003397  -0.006340  -0.012124
    14  C   -3.481701  15.941016   0.007480  -0.010216   0.005175  -0.018842
    15  H   -0.002587   0.007480   0.434502  -0.008860   0.001626   0.000252
    16  H    0.003397  -0.010216  -0.008860   0.416428  -0.007015   0.001952
    17  H   -0.006340   0.005175   0.001626  -0.007015   0.420164  -0.010004
    18  H   -0.012124  -0.018842   0.000252   0.001952  -0.010004   0.448762
    19  H    0.081828  -0.048345   0.000384  -0.000586   0.001659  -0.005746
    20  H   -0.005459  -0.061066  -0.000122   0.000018  -0.000162   0.001278
    21  H   -0.028641   0.096127   0.000016  -0.000007   0.000010  -0.000122
    22  H    0.028216  -0.035347  -0.000123   0.000007  -0.000007   0.000011
    23  H   -0.032753  -0.034370   0.000592  -0.000130   0.000010  -0.000102
    24  H    0.003524  -0.060183  -0.000912   0.000624  -0.000134   0.000142
    25  H    0.003524  -0.060183  -0.000912   0.000624  -0.000134   0.000142
              19         20         21         22         23         24
     1  C   -0.044060   0.007184  -0.001257   0.000427   0.006703   0.036310
     2  C   -0.008025   0.001974  -0.000415   0.000322  -0.002438   0.015547
     3  C    0.050735  -0.005152   0.000383  -0.000302   0.000990  -0.001278
     4  C   -0.079410   0.006919   0.000468  -0.001396   0.005046  -0.011539
     5  C   -0.063458   0.451675  -0.065733   0.010681   0.028848  -0.013137
     6  C    0.051112  -0.084637   0.368933  -0.012013   0.000279  -0.001700
     7  C   -0.007249   0.002358  -0.009969   0.373857  -0.105578   0.013031
     8  C   -0.048653   0.052191  -0.029546  -0.017529   0.367556   0.027637
     9  C    0.075716  -0.026387  -0.006561   0.004693   0.095432   0.357607
    10  C    0.422454   0.016952   0.020844  -0.008625  -0.011065   0.005620
    11  C    0.076339  -0.011973  -0.006348   0.002687   0.006161   0.022986
    12  C   -0.083239  -0.008007   0.005377  -0.007961   0.005392  -0.059245
    13  C    0.081828  -0.005459  -0.028641   0.028216  -0.032753   0.003524
    14  C   -0.048345  -0.061066   0.096127  -0.035347  -0.034370  -0.060183
    15  H    0.000384  -0.000122   0.000016  -0.000123   0.000592  -0.000912
    16  H   -0.000586   0.000018  -0.000007   0.000007  -0.000130   0.000624
    17  H    0.001659  -0.000162   0.000010  -0.000007   0.000010  -0.000134
    18  H   -0.005746   0.001278  -0.000122   0.000011  -0.000102   0.000142
    19  H    0.443326  -0.006633   0.001160  -0.000480   0.000220   0.000616
    20  H   -0.006633   0.457719  -0.010327   0.001879   0.000103   0.000211
    21  H    0.001160  -0.010327   0.424476  -0.006108   0.001268  -0.000148
    22  H   -0.000480   0.001879  -0.006108   0.421741  -0.008894   0.000631
    23  H    0.000220   0.000103   0.001268  -0.008894   0.443197  -0.000869
    24  H    0.000616   0.000211  -0.000148   0.000631  -0.000869   0.494275
    25  H    0.000616   0.000211  -0.000148   0.000631  -0.000869  -0.080288
              25
     1  C    0.036310
     2  C    0.015547
     3  C   -0.001278
     4  C   -0.011539
     5  C   -0.013137
     6  C   -0.001700
     7  C    0.013031
     8  C    0.027637
     9  C    0.357607
    10  C    0.005620
    11  C    0.022986
    12  C   -0.059245
    13  C    0.003524
    14  C   -0.060183
    15  H   -0.000912
    16  H    0.000624
    17  H   -0.000134
    18  H    0.000142
    19  H    0.000616
    20  H    0.000211
    21  H   -0.000148
    22  H    0.000631
    23  H   -0.000869
    24  H   -0.080288
    25  H    0.494275
 Mulliken charges:
               1
     1  C    0.076178
     2  C   -0.402480
     3  C   -0.435061
     4  C    0.034823
     5  C    0.005220
     6  C   -0.443207
     7  C   -0.412379
     8  C    0.112374
     9  C   -0.327842
    10  C    0.094008
    11  C   -0.653598
    12  C    0.697757
    13  C   -0.618475
    14  C    0.652443
    15  H    0.239104
    16  H    0.259749
    17  H    0.251642
    18  H    0.224883
    19  H    0.189718
    20  H    0.219253
    21  H    0.246269
    22  H    0.253003
    23  H    0.235270
    24  H    0.250675
    25  H    0.250675
 Sum of Mulliken charges =   1.00000
 Mulliken charges with hydrogens summed into heavy atoms:
               1
     1  C    0.315282
     2  C   -0.142731
     3  C   -0.183419
     4  C    0.259706
     5  C    0.224473
     6  C   -0.196938
     7  C   -0.159376
     8  C    0.347644
     9  C    0.173507
    10  C    0.283726
    11  C   -0.653598
    12  C    0.697757
    13  C   -0.618475
    14  C    0.652443
 Electronic spatial extent (au):  <R**2>=           2854.6982
 Charge=              1.0000 electrons
 Dipole moment (field-independent basis, Debye):
    X=             -0.2387    Y=             -0.8216    Z=             -0.0000  Tot=              0.8556
 Quadrupole moment (field-independent basis, Debye-Ang):
   XX=            -51.0795   YY=            -36.2599   ZZ=            -84.1344
   XY=             10.1961   XZ=              0.0000   YZ=             -0.0000
 Traceless Quadrupole moment (field-independent basis, Debye-Ang):
   XX=              6.0784   YY=             20.8981   ZZ=            -26.9765
   XY=             10.1961   XZ=              0.0000   YZ=             -0.0000
 Octapole moment (field-independent basis, Debye-Ang**2):
  XXX=             -2.6702  YYY=             -1.9996  ZZZ=             -0.0000  XYY=             -2.4235
  XXY=             -7.4984  XXZ=             -0.0000  XZZ=             -3.2835  YZZ=              0.3631
  YYZ=             -0.0000  XYZ=              0.0000
 Hexadecapole moment (field-independent basis, Debye-Ang**3):
 XXXX=           -985.9533 YYYY=          -1849.5074 ZZZZ=            -99.3082 XXXY=           -347.3389
 XXXZ=              0.0000 YYYX=           -273.4984 YYYZ=             -0.0000 ZZZX=              0.0000
 ZZZY=             -0.0000 XXYY=           -454.7431 XXZZ=           -240.9208 YYZZ=           -495.1528
 XXYZ=             -0.0000 YYXZ=              0.0000 ZZXY=           -182.4667
 N-N= 7.814261128679D+02 E-N=-2.799210438982D+03  KE= 5.375323469791D+02
 Symmetry A'   KE= 5.228810825951D+02
 Symmetry A"   KE= 1.465126438390D+01
 Unable to Open any file for archive entry.
 1\1\GINC-GADI-CPU-CLX-1762\SP\RM062X TD-FC\6-311++G(d,p)\C14H11(1+)\TS
 1578\02-Aug-2022\0\\#n M062X/6-311++G(d,p) TD(NStates=1) EmpiricalDisp
 ersion=GD3 SP\\SP_25\\1,1\C,0,2.470205,1.361931,0.\C,0,3.675883,0.6617
 64,0.\C,0,3.676361,-0.73143,0.\C,0,2.486456,-1.420988,0.\C,0,-2.439656
 ,-1.393688,0.\C,0,-3.690161,-0.69423,0.\C,0,-3.725233,0.682914,0.\C,0,
 -2.511305,1.360131,0.\C,0,-0.013075,1.448969,0.\C,0,0.0366,-1.428989,0
 .\C,0,1.26738,0.68849,0.\C,0,1.252871,-0.732904,0.\C,0,-1.25643,0.6655
 4,0.\C,0,-1.222871,-0.729304,0.\H,0,2.479571,2.444972,0.\H,0,4.610628,
 1.203814,0.\H,0,4.613312,-1.270424,0.\H,0,2.4788,-2.503184,0.\H,0,0.03
 375,-2.510166,0.\H,0,-2.4569,-2.476634,0.\H,0,-4.604612,-1.271774,0.\H
 ,0,-4.660578,1.221064,0.\H,0,-2.492171,2.443622,0.\H,0,-0.048,2.144787
 ,-0.858485\H,0,-0.048,2.144787,0.858485\\Version=ES64L-G16RevC.01\Stat
 e=1-A'\HF=-539.7562247\RMSD=8.656e-09\PG=CS [SG(C14H9),X(H2)]\\@
 The archive entry for this job was punched.


 The chemist is a guest at the physicist's table and
 frequently dines well.
                   -- Richard Bersohn
 Job cpu time:       0 days  0 hours 51 minutes 51.1 seconds.
 Elapsed time:       0 days  0 hours  1 minutes  4.9 seconds.
 File lengths (MBytes):  RWF=    460 Int=      0 D2E=      0 Chk=     15 Scr=      1
 Normal termination of Gaussian 16 at Tue Aug  2 12:15:03 2022.
