 Entering Gaussian System, Link 0=g16
 Initial command:
 /apps/gaussian/g16c01/g16/l1.exe "/jobfs/53796104.gadi-pbs/Gau-3592299.inp" -scrdir="/jobfs/53796104.gadi-pbs/"
 Entering Link 1 = /apps/gaussian/g16c01/g16/l1.exe PID=   3592300.
  
 Copyright (c) 1988-2019, Gaussian, Inc.  All Rights Reserved.
  
 This is part of the Gaussian(R) 16 program.  It is based on
 the Gaussian(R) 09 system (copyright 2009, Gaussian, Inc.),
 the Gaussian(R) 03 system (copyright 2003, Gaussian, Inc.),
 the Gaussian(R) 98 system (copyright 1998, Gaussian, Inc.),
 the Gaussian(R) 94 system (copyright 1995, Gaussian, Inc.),
 the Gaussian 92(TM) system (copyright 1992, Gaussian, Inc.),
 the Gaussian 90(TM) system (copyright 1990, Gaussian, Inc.),
 the Gaussian 88(TM) system (copyright 1988, Gaussian, Inc.),
 the Gaussian 86(TM) system (copyright 1986, Carnegie Mellon
 University), and the Gaussian 82(TM) system (copyright 1983,
 Carnegie Mellon University). Gaussian is a federally registered
 trademark of Gaussian, Inc.
  
 This software contains proprietary and confidential information,
 including trade secrets, belonging to Gaussian, Inc.
  
 This software is provided under written license and may be
 used, copied, transmitted, or stored only in accord with that
 written license.
  
 The following legend is applicable only to US Government
 contracts under FAR:
  
                    RESTRICTED RIGHTS LEGEND
  
 Use, reproduction and disclosure by the US Government is
 subject to restrictions as set forth in subparagraphs (a)
 and (c) of the Commercial Computer Software - Restricted
 Rights clause in FAR 52.227-19.
  
 Gaussian, Inc.
 340 Quinnipiac St., Bldg. 40, Wallingford CT 06492
  
  
 ---------------------------------------------------------------
 Warning -- This program may not be used in any manner that
 competes with the business of Gaussian, Inc. or will provide
 assistance to any competitor of Gaussian, Inc.  The licensee
 of this program is prohibited from giving any competitor of
 Gaussian, Inc. access to this program.  By using this program,
 the user acknowledges that Gaussian, Inc. is engaged in the
 business of creating and licensing software in the field of
 computational chemistry and represents and warrants to the
 licensee that it is not a competitor of Gaussian, Inc. and that
 it will not use this program in any manner prohibited above.
 ---------------------------------------------------------------
  

 Cite this work as:
 Gaussian 16, Revision C.01,
 M. J. Frisch, G. W. Trucks, H. B. Schlegel, G. E. Scuseria, 
 M. A. Robb, J. R. Cheeseman, G. Scalmani, V. Barone, 
 G. A. Petersson, H. Nakatsuji, X. Li, M. Caricato, A. V. Marenich, 
 J. Bloino, B. G. Janesko, R. Gomperts, B. Mennucci, H. P. Hratchian, 
 J. V. Ortiz, A. F. Izmaylov, J. L. Sonnenberg, D. Williams-Young, 
 F. Ding, F. Lipparini, F. Egidi, J. Goings, B. Peng, A. Petrone, 
 T. Henderson, D. Ranasinghe, V. G. Zakrzewski, J. Gao, N. Rega, 
 G. Zheng, W. Liang, M. Hada, M. Ehara, K. Toyota, R. Fukuda, 
 J. Hasegawa, M. Ishida, T. Nakajima, Y. Honda, O. Kitao, H. Nakai, 
 T. Vreven, K. Throssell, J. A. Montgomery, Jr., J. E. Peralta, 
 F. Ogliaro, M. J. Bearpark, J. J. Heyd, E. N. Brothers, K. N. Kudin, 
 V. N. Staroverov, T. A. Keith, R. Kobayashi, J. Normand, 
 K. Raghavachari, A. P. Rendell, J. C. Burant, S. S. Iyengar, 
 J. Tomasi, M. Cossi, J. M. Millam, M. Klene, C. Adamo, R. Cammi, 
 J. W. Ochterski, R. L. Martin, K. Morokuma, O. Farkas, 
 J. B. Foresman, and D. J. Fox, Gaussian, Inc., Wallingford CT, 2019.
 
 ******************************************
 Gaussian 16:  ES64L-G16RevC.01  3-Jul-2019
                 2-Aug-2022 
 ******************************************
 %NProcShared=48
 Will use up to   48 processors via shared memory.
 %mem = 190GB
 ---------------------------------------------------------------
 #n M062X/6-311++G(d,p) TD(NStates=1) EmpiricalDispersion=GD3 SP
 ---------------------------------------------------------------
 1/38=1,172=1/1;
 2/12=2,17=6,18=5,40=1/2;
 3/5=4,6=6,7=1111,11=9,25=1,30=1,74=-55,124=31/1,2,3,8;
 4//1;
 5/5=2,38=5/2;
 8/6=1,10=2,108=1/1;
 9/41=1,42=1,70=2/14;
 6/7=2,8=2,9=2,10=2/1;
 99/5=1,9=1/99;
 -------
 SP_-125
 -------
 Symbolic Z-matrix:
 Charge =  1 Multiplicity = 1
 C                     2.50351   1.36073   0. 
 C                     3.71653   0.67956   0. 
 C                     3.68756  -0.69993   0. 
 C                     2.44741  -1.39814   0. 
 C                    -2.47861  -1.41634   0. 
 C                    -3.67836  -0.72473   0. 
 C                    -3.68363   0.66546   0. 
 C                    -2.47611   1.36193   0. 
 C                     0.00883   1.44677   0. 
 C                    -0.0244   -1.42889   0. 
 C                     1.25818   0.66934   0. 
 C                     1.22807  -0.73005   0. 
 C                    -1.26548   0.68464   0. 
 C                    -1.24807  -0.73245   0. 
 H                     2.48897   2.44417   0. 
 H                     4.65168   1.21856   0. 
 H                     4.60591  -1.27092   0. 
 H                     2.4607   -2.48098   0. 
 H                    -0.0225   -2.51012   0. 
 H                    -2.4753   -2.49868   0. 
 H                    -4.61171  -1.27002   0. 
 H                    -4.61838   1.20706   0. 
 H                    -2.48057   2.44507   0. 
 H                     0.032     2.14429  -0.85794 
 H                     0.032     2.14429   0.85794 
 
                          Input orientation:                          
 ---------------------------------------------------------------------
 Center     Atomic      Atomic             Coordinates (Angstroms)
 Number     Number       Type             X           Y           Z
 ---------------------------------------------------------------------
      1          6           0        2.503505    1.360731    0.000000
      2          6           0        3.716533    0.679564    0.000000
      3          6           0        3.687561   -0.699930    0.000000
      4          6           0        2.447406   -1.398138    0.000000
      5          6           0       -2.478606   -1.416338    0.000000
      6          6           0       -3.678361   -0.724730    0.000000
      7          6           0       -3.683633    0.665464    0.000000
      8          6           0       -2.476105    1.361931    0.000000
      9          6           0        0.008825    1.446769    0.000000
     10          6           0       -0.024400   -1.428889    0.000000
     11          6           0        1.258180    0.669340    0.000000
     12          6           0        1.228071   -0.730054    0.000000
     13          6           0       -1.265480    0.684640    0.000000
     14          6           0       -1.248071   -0.732454    0.000000
     15          1           0        2.488971    2.444172    0.000000
     16          1           0        4.651678    1.218564    0.000000
     17          1           0        4.605912   -1.270924    0.000000
     18          1           0        2.460700   -2.480984    0.000000
     19          1           0       -0.022500   -2.510116    0.000000
     20          1           0       -2.475300   -2.498684    0.000000
     21          1           0       -4.611712   -1.270024    0.000000
     22          1           0       -4.618378    1.207064    0.000000
     23          1           0       -2.480571    2.445072    0.000000
     24          1           0        0.032000    2.144287   -0.857935
     25          1           0        0.032000    2.144287    0.857935
 ---------------------------------------------------------------------
                    Distance matrix (angstroms):
                    1          2          3          4          5
     1  C    0.000000
     2  C    1.391196   0.000000
     3  C    2.376618   1.379798   0.000000
     4  C    2.759439   2.434652   1.423193   0.000000
     5  C    5.703818   6.540073   6.207645   4.926046   0.000000
     6  C    6.524156   7.527051   7.365964   6.162670   1.384823
     7  C    6.226080   7.400179   7.496586   6.469010   2.405408
     8  C    4.979610   6.230120   6.499388   5.644373   2.778270
     9  C    2.496163   3.786252   4.259274   3.747022   3.792716
    10  C    3.764609   4.294200   3.782861   2.471997   2.454238
    11  C    1.424379   2.458374   2.788690   2.385105   4.279442
    12  C    2.449105   2.859977   2.459674   1.390365   3.769674
    13  C    3.829144   4.982016   5.142922   4.257169   2.426063
    14  C    4.296015   5.161501   4.935739   3.754955   1.407805
    15  H    1.083538   2.149593   3.364817   3.842535   6.291292
    16  H    2.152872   1.079360   2.147124   3.421395   7.601556
    17  H    3.368341   2.143688   1.081389   2.162252   7.086010
    18  H    3.841953   3.400909   2.162716   1.082928   5.052743
    19  H    4.622138   4.914715   4.128114   2.708677   2.688644
    20  H    6.299491   6.959889   6.419998   5.044228   1.082351
    21  H    7.585986   8.553395   8.318830   7.060280   2.138118
    22  H    7.123541   8.351587   8.522045   7.530762   3.385390
    23  H    5.100668   6.443688   6.923647   6.249418   3.861410
    24  H    2.730998   4.056754   4.710494   4.372529   4.440410
    25  H    2.730998   4.056754   4.710494   4.372529   4.440410
                    6          7          8          9         10
     6  C    0.000000
     7  C    1.390204   0.000000
     8  C    2.408230   1.393984   0.000000
     9  C    4.279106   3.774213   2.486378   0.000000
    10  C    3.721192   4.216195   3.714772   2.875850   0.000000
    11  C    5.129607   4.941815   3.797969   1.471490   2.459182
    12  C    4.906435   5.106105   4.254095   2.495019   1.434243
    13  C    2.794337   2.418229   1.387204   1.484821   2.450976
    14  C    2.430302   2.808227   2.427862   2.515711   1.407975
    15  H    6.933825   6.423772   5.081656   2.673189   4.617102
    16  H    8.553709   8.353642   7.129225   4.648458   5.373520
    17  H    8.302259   8.512705   7.555587   5.340324   4.633006
    18  H    6.385335   6.903113   6.256200   4.630220   2.698634
    19  H    4.068528   4.846463   4.583986   3.957009   1.081229
    20  H    2.143424   3.387020   3.860615   4.662347   2.674205
    21  H    1.080967   2.146496   3.389396   5.360068   4.590062
    22  H    2.148362   1.080314   2.147863   4.633408   5.296497
    23  H    3.388561   2.148107   1.083150   2.682108   4.586976
    24  H    4.768028   4.090098   2.763824   1.105948   3.675163
    25  H    4.768028   4.090098   2.763824   1.105948   3.675163
                   11         12         13         14         15
    11  C    0.000000
    12  C    1.399718   0.000000
    13  C    2.523706   2.866907   0.000000
    14  C    2.871641   2.476143   1.417201   0.000000
    15  H    2.159832   3.415491   4.146306   4.904736   0.000000
    16  H    3.437656   3.939314   5.941198   6.213977   2.485843
    17  H    3.869358   3.420870   6.188495   5.878696   4.275907
    18  H    3.372031   2.141292   4.889335   4.100285   4.925237
    19  H    3.427693   2.175442   3.428041   2.159191   5.554499
    20  H    4.896453   4.104023   3.405469   2.150735   7.005413
    21  H    6.181971   5.864694   3.875304   3.406327   8.013423
    22  H    5.901108   6.159009   3.393354   3.888534   7.214211
    23  H    4.139020   4.882156   2.139057   3.408185   4.969542
    24  H    2.101199   3.229315   2.133091   3.263476   2.619674
    25  H    2.101199   3.229315   2.133091   3.263476   2.619674
                   16         17         18         19         20
    16  H    0.000000
    17  H    2.489909   0.000000
    18  H    4.299656   2.462962   0.000000
    19  H    5.979214   4.791429   2.483371   0.000000
    20  H    8.038143   7.186860   4.936032   2.452827   0.000000
    21  H    9.591844   9.217624   7.175335   4.753808   2.464521
    22  H    9.270063   9.551332   7.982170   5.910966   4.280812
    23  H    7.236940   8.001679   6.977262   5.531365   4.943759
    24  H    4.788992   5.772382   5.294126   4.733127   5.346006
    25  H    4.788992   5.772382   5.294126   4.733127   5.346006
                   21         22         23         24         25
    21  H    0.000000
    22  H    2.477097   0.000000
    23  H    4.282955   2.470401   0.000000
    24  H    5.827318   4.820836   2.671991   0.000000
    25  H    5.827318   4.820836   2.671991   1.715870   0.000000
 Stoichiometry    C14H11(1+)
 Framework group  CS[SG(C14H9),X(H2)]
 Deg. of freedom    46
 Full point group                 CS      NOp   2
 Largest Abelian subgroup         CS      NOp   2
 Largest concise Abelian subgroup CS      NOp   2
                         Standard orientation:                         
 ---------------------------------------------------------------------
 Center     Atomic      Atomic             Coordinates (Angstroms)
 Number     Number       Type             X           Y           Z
 ---------------------------------------------------------------------
      1          6           0        0.025332    2.848968    0.000000
      2          6           0       -1.145841    3.599820    0.000000
      3          6           0       -2.350031    2.926196    0.000000
      4          6           0       -2.383809    1.503403    0.000000
      5          6           0       -0.085771   -2.853768    0.000000
      6          6           0        1.088384   -3.587999    0.000000
      7          6           0        2.318106   -2.939578    0.000000
      8          6           0        2.365675   -1.546406    0.000000
      9          6           0        1.273217    0.687114    0.000000
     10          6           0       -1.249769   -0.693122    0.000000
     11          6           0        0.000000    1.424814    0.000000
     12          6           0       -1.221223    0.740837    0.000000
     13          6           0        1.199053   -0.795854    0.000000
     14          6           0       -0.060118   -1.446197    0.000000
     15          1           0        0.988608    3.345108    0.000000
     16          1           0       -1.109324    4.678562    0.000000
     17          1           0       -3.285513    3.468667    0.000000
     18          1           0       -3.345978    1.006448    0.000000
     19          1           0       -2.205156   -1.199375    0.000000
     20          1           0       -1.042806   -3.359306    0.000000
     21          1           0        1.045468   -4.668113    0.000000
     22          1           0        3.235342   -3.510330    0.000000
     23          1           0        3.323957   -1.041519    0.000000
     24          1           0        1.878090    1.035247    0.857935
     25          1           0        1.878090    1.035247   -0.857935
 ---------------------------------------------------------------------
 Rotational constants (GHZ):           2.1384915           0.4449290           0.3690993
 Standard basis: 6-311++G(d,p) (5D, 7F)
 There are   299 symmetry adapted cartesian basis functions of A'  symmetry.
 There are   100 symmetry adapted cartesian basis functions of A"  symmetry.
 There are   285 symmetry adapted basis functions of A'  symmetry.
 There are   100 symmetry adapted basis functions of A"  symmetry.
   385 basis functions,   603 primitive gaussians,   399 cartesian basis functions
    47 alpha electrons       47 beta electrons
       nuclear repulsion energy       781.5095911158 Hartrees.
 NAtoms=   25 NActive=   25 NUniq=   24 SFac= 1.09D+00 NAtFMM=   60 NAOKFM=F Big=F
 Integral buffers will be    131072 words long.
 Regular integral format.
 Two-electron integral symmetry is turned on.
 Nuclear repulsion after empirical dispersion term =      781.5086118307 Hartrees.
 One-electron integrals computed using PRISM.
 NBasis=   385 RedAO= T EigKep=  1.11D-06  NBF=   285   100
 NBsUse=   379 1.00D-06 EigRej=  8.34D-07 NBFU=   279   100
 ExpMin= 3.60D-02 ExpMax= 4.56D+03 ExpMxC= 6.82D+02 IAcc=3 IRadAn=         5 AccDes= 0.00D+00
 Harris functional with IExCor= 1009 and IRadAn=       5 diagonalized for initial guess.
 HarFok:  IExCor= 1009 AccDes= 0.00D+00 IRadAn=         5 IDoV= 1 UseB2=F ITyADJ=14
 ICtDFT=  3500011 ScaDFX=  1.000000  1.000000  1.000000  1.000000
 FoFCou: FMM=F IPFlag=           0 FMFlag=      100000 FMFlg1=           0
         NFxFlg=           0 DoJE=T BraDBF=F KetDBF=T FulRan=T
         wScrn=  0.000000 ICntrl=       500 IOpCl=  0 I1Cent=   200000004 NGrid=           0
         NMat0=    1 NMatS0=      1 NMatT0=    0 NMatD0=    1 NMtDS0=    0 NMtDT0=    0
 Petite list used in FoFCou.
 Initial guess orbital symmetries:
       Occupied  (A') (A') (A') (A') (A') (A') (A') (A') (A') (A')
                 (A') (A') (A') (A') (A') (A') (A') (A') (A') (A')
                 (A') (A') (A') (A') (A') (A') (A') (A') (A') (A')
                 (A') (A') (A") (A') (A') (A') (A') (A') (A") (A')
                 (A") (A') (A') (A") (A") (A") (A")
       Virtual   (A") (A") (A") (A") (A") (A') (A') (A') (A') (A")
                 (A") (A') (A') (A') (A") (A') (A') (A') (A') (A")
                 (A') (A") (A') (A') (A') (A") (A') (A") (A') (A')
                 (A') (A') (A') (A") (A') (A') (A") (A') (A') (A')
                 (A") (A') (A') (A") (A') (A') (A') (A') (A') (A")
                 (A') (A') (A") (A") (A') (A') (A') (A") (A") (A')
                 (A') (A') (A') (A') (A') (A") (A') (A') (A') (A")
                 (A') (A') (A') (A') (A') (A') (A') (A') (A') (A')
                 (A') (A') (A') (A') (A') (A') (A') (A') (A') (A')
                 (A') (A') (A') (A') (A') (A') (A') (A") (A') (A")
                 (A') (A') (A") (A") (A') (A") (A') (A") (A") (A')
                 (A") (A') (A') (A') (A") (A') (A') (A") (A") (A')
                 (A") (A") (A') (A') (A') (A") (A') (A') (A') (A")
                 (A') (A') (A') (A') (A') (A') (A") (A') (A') (A')
                 (A') (A') (A') (A') (A') (A') (A') (A') (A') (A")
                 (A") (A') (A") (A") (A') (A') (A') (A") (A") (A')
                 (A") (A') (A") (A") (A") (A') (A') (A') (A') (A')
                 (A') (A") (A') (A") (A') (A') (A') (A') (A') (A")
                 (A') (A') (A') (A') (A") (A') (A") (A') (A") (A")
                 (A') (A") (A') (A") (A') (A') (A') (A") (A') (A')
                 (A") (A") (A") (A') (A') (A") (A') (A") (A') (A')
                 (A") (A") (A') (A") (A') (A") (A') (A') (A') (A")
                 (A') (A') (A') (A') (A") (A') (A') (A') (A") (A")
                 (A') (A') (A') (A") (A') (A') (A") (A') (A") (A')
                 (A") (A') (A') (A') (A') (A") (A') (A') (A') (A")
                 (A') (A') (A") (A') (A") (A') (A') (A") (A') (A')
                 (A') (A") (A') (A") (A') (A') (A') (A") (A") (A')
                 (A') (A') (A') (A') (A") (A') (A") (A') (A") (A')
                 (A") (A') (A") (A") (A") (A') (A') (A') (A') (A')
                 (A') (A') (A') (A') (A') (A') (A') (A') (A') (A')
                 (A') (A') (A') (A") (A') (A') (A') (A') (A') (A')
                 (A') (A') (A') (A') (A') (A') (A') (A') (A') (A')
                 (A') (A') (A') (A') (A') (A') (A') (A') (A') (A')
                 (A') (A')
 The electronic state of the initial guess is 1-A'.
 Requested convergence on RMS density matrix=1.00D-08 within 128 cycles.
 Requested convergence on MAX density matrix=1.00D-06.
 Requested convergence on             energy=1.00D-06.
 No special actions if energy rises.
 SCF Done:  E(RM062X) =  -539.758351685     A.U. after   15 cycles
            NFock= 15  Conv=0.74D-08     -V/T= 2.0041
 DoSCS=F DFT=T ScalE2(SS,OS)=  1.000000  1.000000
 ExpMin= 3.60D-02 ExpMax= 4.56D+03 ExpMxC= 6.82D+02 IAcc=3 IRadAn=         5 AccDes= 0.00D+00
 HarFok:  IExCor=  205 AccDes= 0.00D+00 IRadAn=         5 IDoV=-2 UseB2=F ITyADJ=14
 ICtDFT= 12500011 ScaDFX=  1.000000  1.000000  1.000000  1.000000
 Range of M.O.s used for correlation:    15   379
 NBasis=   385 NAE=    47 NBE=    47 NFC=    14 NFV=     0
 NROrb=    365 NOA=    33 NOB=    33 NVA=   332 NVB=   332

 **** Warning!!: The largest alpha MO coefficient is  0.13923662D+03

 Orbital symmetries:
       Occupied  (A') (A') (A') (A') (A') (A') (A') (A') (A') (A')
                 (A') (A') (A') (A') (A') (A') (A') (A') (A') (A')
                 (A') (A') (A') (A') (A') (A') (A') (A') (A') (A')
                 (A') (A') (A") (A') (A') (A') (A') (A") (A") (A')
                 (A') (A') (A') (A") (A") (A") (A")
       Virtual   (A") (A") (A") (A") (A') (A') (A') (A') (A") (A')
                 (A') (A") (A') (A') (A") (A') (A") (A') (A') (A')
                 (A") (A") (A') (A') (A') (A") (A') (A") (A') (A')
                 (A") (A') (A") (A') (A') (A') (A') (A') (A") (A')
                 (A") (A') (A') (A") (A") (A') (A") (A') (A") (A')
                 (A') (A') (A') (A') (A') (A") (A') (A') (A') (A')
                 (A') (A") (A') (A') (A') (A") (A') (A') (A') (A')
                 (A') (A') (A') (A') (A') (A') (A') (A') (A') (A')
                 (A') (A') (A') (A') (A') (A') (A') (A') (A') (A')
                 (A') (A') (A') (A') (A") (A') (A") (A") (A') (A")
                 (A') (A') (A') (A') (A") (A") (A') (A") (A") (A')
                 (A') (A') (A") (A') (A') (A") (A') (A") (A') (A")
                 (A") (A') (A") (A') (A') (A') (A") (A') (A') (A')
                 (A') (A') (A') (A') (A') (A') (A') (A') (A') (A')
                 (A') (A') (A') (A") (A') (A') (A') (A') (A') (A')
                 (A') (A') (A") (A') (A") (A') (A") (A") (A') (A")
                 (A") (A') (A') (A") (A") (A") (A') (A") (A') (A')
                 (A') (A') (A') (A") (A") (A') (A') (A') (A') (A")
                 (A') (A') (A') (A") (A") (A') (A') (A') (A") (A")
                 (A") (A') (A') (A") (A') (A") (A') (A') (A') (A')
                 (A") (A") (A") (A') (A") (A') (A') (A") (A') (A')
                 (A') (A") (A') (A") (A") (A') (A") (A') (A') (A")
                 (A') (A') (A') (A') (A") (A') (A') (A') (A") (A")
                 (A') (A') (A') (A") (A') (A') (A') (A") (A") (A')
                 (A") (A') (A') (A") (A') (A') (A') (A') (A') (A')
                 (A") (A') (A') (A') (A') (A") (A") (A") (A') (A')
                 (A') (A') (A') (A') (A') (A') (A") (A') (A') (A')
                 (A') (A") (A') (A") (A") (A") (A') (A") (A') (A")
                 (A') (A") (A") (A') (A") (A") (A') (A') (A') (A')
                 (A') (A') (A') (A') (A') (A') (A') (A') (A') (A')
                 (A') (A') (A') (A") (A') (A') (A') (A') (A') (A')
                 (A') (A') (A') (A') (A') (A') (A') (A') (A') (A')
                 (A') (A') (A') (A') (A') (A') (A') (A') (A') (A')
                 (A') (A')
     4 initial guesses have been made.
 Convergence on wavefunction:    0.001000000000000
 Iteration     1 Dimension     4 NMult     0 NNew      4
 CISAX will form     4 AO SS matrices at one time.
 Iteration     2 Dimension     6 NMult     4 NNew      2
 Iteration     3 Dimension     8 NMult     6 NNew      2
 Iteration     4 Dimension    10 NMult     8 NNew      2
 Iteration     5 Dimension    12 NMult    10 NNew      2
 Iteration     6 Dimension    14 NMult    12 NNew      2
 ***********************************************************************
 Excited states from <AA,BB:AA,BB> singles matrix:
 ***********************************************************************
 
 Ground to excited state transition densities written to RWF  633
 Ground to excited state transition electric dipole moments (Au):
       state          X           Y           Z        Dip. S.      Osc.
         1         0.5245      0.3089      0.0000      0.3705      0.0252
 Ground to excited state transition velocity dipole moments (Au):
       state          X           Y           Z        Dip. S.      Osc.
         1        -0.0611     -0.0327     -0.0000      0.0048      0.0315
 Ground to excited state transition magnetic dipole moments (Au):
       state          X           Y           Z
         1        -0.0000      0.0000      0.1340
 Ground to excited state transition velocity quadrupole moments (Au):
       state          XX          YY          ZZ          XY          XZ          YZ
         1         0.1341      0.1693     -0.0092     -0.1341     -0.0000     -0.0000
 <0|del|b> * <b|rxdel|0> + <0|del|b> * <b|delr+rdel|0>
 Rotatory Strengths (R) in cgs (10**-40 erg-esu-cm/Gauss)
       state          XX          YY          ZZ    R(velocity)    E-M Angle
         1        -0.0000      0.0000     -0.0000      0.0000       90.00
 1/2[<0|r|b>*<b|rxdel|0> + (<0|rxdel|b>*<b|r|0>)*]
 Rotatory Strengths (R) in cgs (10**-40 erg-esu-cm/Gauss)
       state          XX          YY          ZZ     R(length)
         1         0.0000     -0.0000     -0.0000      0.0000
  1/2[<0|del|b>*<b|r|0> + (<0|r|b>*<b|del|0>)*] (Au)
       state          X           Y           Z        Dip. S.   Osc.(frdel)
         1        -0.0321     -0.0101     -0.0000      0.0422      0.0281

 Excitation energies and oscillator strengths:
 
 Excited State   1:      Singlet-A'     2.7711 eV  447.42 nm  f=0.0252  <S**2>=0.000
      47 -> 48         0.70380
 This state for optimization and/or second-order correction.
 Total Energy, E(TD-HF/TD-DFT) =  -539.656516216    
 Copying the excited state density for this state as the 1-particle RhoCI density.
 SavETr:  write IOETrn=   770 NScale= 10 NData=  16 NLR=1 NState=    1 LETran=      28.

 **********************************************************************

            Population analysis using the SCF Density.

 **********************************************************************

 Orbital symmetries:
       Occupied  (A') (A') (A') (A') (A') (A') (A') (A') (A') (A')
                 (A') (A') (A') (A') (A') (A') (A') (A') (A') (A')
                 (A') (A') (A') (A') (A') (A') (A') (A') (A') (A')
                 (A') (A') (A") (A') (A') (A') (A') (A") (A") (A')
                 (A') (A') (A') (A") (A") (A") (A")
       Virtual   (A") (A") (A") (A") (A') (A') (A') (A') (A") (A')
                 (A') (A") (A') (A') (A") (A') (A") (A') (A') (A')
                 (A") (A") (A') (A') (A') (A") (A') (A") (A') (A')
                 (A") (A') (A") (A') (A') (A') (A') (A') (A") (A')
                 (A") (A') (A') (A") (A") (A') (A") (A') (A") (A')
                 (A') (A') (A') (A') (A') (A") (A') (A') (A') (A')
                 (A') (A") (A') (A') (A') (A") (A') (A') (A') (A')
                 (A') (A') (A') (A') (A') (A') (A') (A') (A') (A')
                 (A') (A') (A') (A') (A') (A') (A') (A') (A') (A')
                 (A') (A') (A') (A') (A") (A') (A") (A") (A') (A")
                 (A') (A') (A') (A') (A") (A") (A') (A") (A") (A')
                 (A') (A') (A") (A') (A') (A") (A') (A") (A') (A")
                 (A") (A') (A") (A') (A') (A') (A") (A') (A') (A')
                 (A') (A') (A') (A') (A') (A') (A') (A') (A') (A')
                 (A') (A') (A') (A") (A') (A') (A') (A') (A') (A')
                 (A') (A') (A") (A') (A") (A') (A") (A") (A') (A")
                 (A") (A') (A') (A") (A") (A") (A') (A") (A') (A')
                 (A') (A') (A') (A") (A") (A') (A') (A') (A') (A")
                 (A') (A') (A') (A") (A") (A') (A') (A') (A") (A")
                 (A") (A') (A') (A") (A') (A") (A') (A') (A') (A')
                 (A") (A") (A") (A') (A") (A') (A') (A") (A') (A')
                 (A') (A") (A') (A") (A") (A') (A") (A') (A') (A")
                 (A') (A') (A') (A') (A") (A') (A') (A') (A") (A")
                 (A') (A') (A') (A") (A') (A') (A') (A") (A") (A')
                 (A") (A') (A') (A") (A') (A') (A') (A') (A') (A')
                 (A") (A') (A') (A') (A') (A") (A") (A") (A') (A')
                 (A') (A') (A') (A') (A') (A') (A") (A') (A') (A')
                 (A') (A") (A') (A") (A") (A") (A') (A") (A') (A")
                 (A') (A") (A") (A') (A") (A") (A') (A') (A') (A')
                 (A') (A') (A') (A') (A') (A') (A') (A') (A') (A')
                 (A') (A') (A') (A") (A') (A') (A') (A') (A') (A')
                 (A') (A') (A') (A') (A') (A') (A') (A') (A') (A')
                 (A') (A') (A') (A') (A') (A') (A') (A') (A') (A')
                 (A') (A')
 The electronic state is 1-A'.
 Alpha  occ. eigenvalues --  -10.77629 -10.73485 -10.72910 -10.72644 -10.72178
 Alpha  occ. eigenvalues --  -10.71632 -10.71536 -10.71082 -10.70960 -10.70507
 Alpha  occ. eigenvalues --  -10.70101 -10.69842 -10.69783 -10.69454  -1.16509
 Alpha  occ. eigenvalues --   -1.12494  -1.06942  -1.05828  -1.01307  -1.00297
 Alpha  occ. eigenvalues --   -0.95715  -0.91065  -0.86430  -0.85914  -0.83818
 Alpha  occ. eigenvalues --   -0.78388  -0.76096  -0.74408  -0.69613  -0.69276
 Alpha  occ. eigenvalues --   -0.68459  -0.68170  -0.68088  -0.64929  -0.64275
 Alpha  occ. eigenvalues --   -0.63005  -0.61800  -0.60160  -0.59503  -0.59105
 Alpha  occ. eigenvalues --   -0.56930  -0.55235  -0.54770  -0.52434  -0.46857
 Alpha  occ. eigenvalues --   -0.46085  -0.44252
 Alpha virt. eigenvalues --   -0.26078  -0.14672  -0.14091  -0.12767  -0.11184
 Alpha virt. eigenvalues --   -0.10093  -0.09238  -0.07977  -0.07950  -0.07479
 Alpha virt. eigenvalues --   -0.07211  -0.07146  -0.05642  -0.05582  -0.05341
 Alpha virt. eigenvalues --   -0.03834  -0.03653  -0.03279  -0.03130  -0.02161
 Alpha virt. eigenvalues --   -0.01365  -0.00938   0.00184   0.00593   0.00680
 Alpha virt. eigenvalues --    0.01061   0.01508   0.01932   0.02193   0.02288
 Alpha virt. eigenvalues --    0.02450   0.02674   0.02764   0.03240   0.03396
 Alpha virt. eigenvalues --    0.04232   0.04508   0.04699   0.05030   0.05371
 Alpha virt. eigenvalues --    0.06027   0.06300   0.06594   0.07060   0.07253
 Alpha virt. eigenvalues --    0.07898   0.08143   0.08368   0.08585   0.08923
 Alpha virt. eigenvalues --    0.09527   0.09579   0.10031   0.10876   0.11048
 Alpha virt. eigenvalues --    0.11113   0.12165   0.12255   0.12845   0.13025
 Alpha virt. eigenvalues --    0.13436   0.13522   0.14019   0.14357   0.16105
 Alpha virt. eigenvalues --    0.16306   0.16441   0.17342   0.17586   0.17793
 Alpha virt. eigenvalues --    0.18134   0.19041   0.19290   0.19648   0.19808
 Alpha virt. eigenvalues --    0.21553   0.21644   0.22723   0.23128   0.23574
 Alpha virt. eigenvalues --    0.23794   0.24532   0.25272   0.26930   0.27621
 Alpha virt. eigenvalues --    0.28873   0.29299   0.29914   0.31378   0.35854
 Alpha virt. eigenvalues --    0.36473   0.38189   0.39284   0.41139   0.41368
 Alpha virt. eigenvalues --    0.42004   0.42146   0.42982   0.43725   0.44328
 Alpha virt. eigenvalues --    0.44862   0.45097   0.46003   0.46289   0.47887
 Alpha virt. eigenvalues --    0.48496   0.48874   0.49014   0.50466   0.51245
 Alpha virt. eigenvalues --    0.51475   0.51916   0.52121   0.52896   0.54033
 Alpha virt. eigenvalues --    0.54096   0.54673   0.55664   0.55824   0.57385
 Alpha virt. eigenvalues --    0.58238   0.58863   0.61475   0.62176   0.62381
 Alpha virt. eigenvalues --    0.63213   0.63492   0.65030   0.65169   0.67424
 Alpha virt. eigenvalues --    0.70366   0.70516   0.71112   0.72462   0.72899
 Alpha virt. eigenvalues --    0.75689   0.76051   0.76355   0.76847   0.77118
 Alpha virt. eigenvalues --    0.77865   0.77959   0.78286   0.79872   0.80407
 Alpha virt. eigenvalues --    0.81277   0.81580   0.82229   0.83019   0.85239
 Alpha virt. eigenvalues --    0.87153   0.88229   0.88491   0.89171   0.90507
 Alpha virt. eigenvalues --    0.91143   0.91300   0.93228   0.94641   0.96392
 Alpha virt. eigenvalues --    0.96756   1.00322   1.01307   1.01625   1.02760
 Alpha virt. eigenvalues --    1.03227   1.03505   1.04784   1.05793   1.08834
 Alpha virt. eigenvalues --    1.19587   1.23153   1.24132   1.24981   1.28453
 Alpha virt. eigenvalues --    1.29511   1.31980   1.34230   1.35795   1.36001
 Alpha virt. eigenvalues --    1.39389   1.40022   1.40947   1.42931   1.43512
 Alpha virt. eigenvalues --    1.43555   1.44578   1.46172   1.46390   1.46665
 Alpha virt. eigenvalues --    1.47660   1.48107   1.51817   1.53648   1.55791
 Alpha virt. eigenvalues --    1.56008   1.56338   1.56567   1.57833   1.61512
 Alpha virt. eigenvalues --    1.63165   1.63336   1.63945   1.66143   1.68337
 Alpha virt. eigenvalues --    1.68392   1.68669   1.69739   1.74457   1.76028
 Alpha virt. eigenvalues --    1.77233   1.78059   1.80104   1.80140   1.80801
 Alpha virt. eigenvalues --    1.83070   1.83196   1.83672   1.83848   1.84139
 Alpha virt. eigenvalues --    1.84385   1.85670   1.86255   1.88287   1.91421
 Alpha virt. eigenvalues --    1.92139   1.94138   1.95287   1.97740   1.98189
 Alpha virt. eigenvalues --    1.99805   2.02658   2.04519   2.07280   2.11811
 Alpha virt. eigenvalues --    2.12142   2.14168   2.15231   2.19179   2.21357
 Alpha virt. eigenvalues --    2.22783   2.28487   2.30412   2.34680   2.34944
 Alpha virt. eigenvalues --    2.36270   2.38657   2.39630   2.42398   2.44334
 Alpha virt. eigenvalues --    2.46185   2.46806   2.49355   2.52968   2.53826
 Alpha virt. eigenvalues --    2.54419   2.56689   2.57878   2.58337   2.59577
 Alpha virt. eigenvalues --    2.59884   2.61614   2.62171   2.63580   2.63831
 Alpha virt. eigenvalues --    2.64811   2.65140   2.65147   2.65477   2.68109
 Alpha virt. eigenvalues --    2.68607   2.70974   2.71439   2.73366   2.74833
 Alpha virt. eigenvalues --    2.76296   2.78895   2.79738   2.83120   2.83133
 Alpha virt. eigenvalues --    2.84919   2.86370   2.92152   2.97000   2.99508
 Alpha virt. eigenvalues --    3.00130   3.05407   3.10662   3.11511   3.13613
 Alpha virt. eigenvalues --    3.21085   3.23653   3.26791   3.28592   3.30656
 Alpha virt. eigenvalues --    3.32825   3.34065   3.43567   3.46025   3.46888
 Alpha virt. eigenvalues --    3.48648   3.50266   3.56621   3.65118   3.67118
 Alpha virt. eigenvalues --    3.67636   3.94066   3.94304   3.95306   3.96339
 Alpha virt. eigenvalues --    4.04012   4.06824   4.07675   4.12532   4.35695
 Alpha virt. eigenvalues --    4.61705   4.69740   4.71556  23.45296  23.60498
 Alpha virt. eigenvalues --   23.81683  23.84677  23.87084  23.89316  23.90978
 Alpha virt. eigenvalues --   23.93973  23.96677  23.98208  24.01434  24.02988
 Alpha virt. eigenvalues --   24.10805  24.11459
          Condensed to atoms (all electrons):
               1          2          3          4          5          6
     1  C    8.696808   0.248133  -0.489678   2.031694  -0.030341  -0.100744
     2  C    0.248133   7.085725   0.319250  -1.084293  -0.011860  -0.014298
     3  C   -0.489678   0.319250   6.581738   0.775603  -0.127974   0.016908
     4  C    2.031694  -1.084293   0.775603  10.640956  -0.311508  -0.113967
     5  C   -0.030341  -0.011860  -0.127974  -0.311508  11.068522   0.717425
     6  C   -0.100744  -0.014298   0.016908  -0.113967   0.717425   6.595301
     7  C   -0.015897   0.003124  -0.015550  -0.039746  -0.970749   0.412660
     8  C    0.407192  -0.033158  -0.088284   0.010198   1.732466  -0.627101
     9  C   -1.236351  -0.757646   0.285102  -0.383798  -0.134292   0.286943
    10  C   -1.298467   0.289585  -0.406423  -2.447342  -2.664037  -0.309650
    11  C    0.252488  -0.994175   1.086120  -0.251547  -1.546896  -0.209288
    12  C   -2.107513   1.492136  -1.419075  -1.481874  -0.396930  -0.155915
    13  C    0.178795  -0.266724  -0.144674  -1.452080  -0.231659   0.954501
    14  C   -1.034902  -0.145110  -0.246767  -0.252053  -1.469035  -1.330880
    15  H    0.365828  -0.103866  -0.000687   0.027858   0.005470   0.001024
    16  H   -0.018531   0.375093  -0.013065   0.011688  -0.001463  -0.000311
    17  H   -0.026666  -0.012709   0.370741  -0.065762   0.000423   0.000386
    18  H    0.050627   0.002656  -0.084950   0.451206   0.007390  -0.005058
    19  H   -0.048279  -0.007242   0.050797  -0.065725  -0.076223   0.050549
    20  H    0.007513   0.001969  -0.004901   0.007533   0.457406  -0.084876
    21  H   -0.001375  -0.000383   0.000400   0.000190  -0.067477   0.377825
    22  H    0.000873   0.000380  -0.000344  -0.001635   0.015778  -0.018664
    23  H    0.005452  -0.002860   0.001176   0.006396   0.025025  -0.003025
    24  H    0.028712   0.013408  -0.001605  -0.012891  -0.011854  -0.001326
    25  H    0.028712   0.013408  -0.001605  -0.012891  -0.011854  -0.001326
               7          8          9         10         11         12
     1  C   -0.015897   0.407192  -1.236351  -1.298467   0.252488  -2.107513
     2  C    0.003124  -0.033158  -0.757646   0.289585  -0.994175   1.492136
     3  C   -0.015550  -0.088284   0.285102  -0.406423   1.086120  -1.419075
     4  C   -0.039746   0.010198  -0.383798  -2.447342  -0.251547  -1.481874
     5  C   -0.970749   1.732466  -0.134292  -2.664037  -1.546896  -0.396930
     6  C    0.412660  -0.627101   0.286943  -0.309650  -0.209288  -0.155915
     7  C    7.092653   0.523120  -0.804902   0.182346  -0.220341  -0.262217
     8  C    0.523120   8.411049  -1.258372  -1.184610   0.152476  -1.109415
     9  C   -0.804902  -1.258372   9.666079   0.249481   1.690821  -1.888821
    10  C    0.182346  -1.184610   0.249481   9.245718  -0.597423   2.459289
    11  C   -0.220341   0.152476   1.690821  -0.597423  14.600359  -3.627252
    12  C   -0.262217  -1.109415  -1.888821   2.459289  -3.627252  15.975841
    13  C   -0.880231   0.260914   1.781881  -0.490169   1.081421  -4.877921
    14  C    1.117784  -1.686444  -2.098283   2.404048  -4.827099   2.964177
    15  H   -0.002561   0.006460   0.094289  -0.010612  -0.031425  -0.030814
    16  H    0.000334   0.000508   0.004874  -0.009189   0.029398  -0.036224
    17  H   -0.000410  -0.001282  -0.006430   0.020979  -0.029081   0.094218
    18  H    0.001950   0.007363  -0.026315   0.017773  -0.007725  -0.056914
    19  H   -0.007788  -0.045010   0.076242   0.422371   0.080451  -0.053567
    20  H    0.003200   0.046921  -0.024420   0.014100  -0.011906  -0.016225
    21  H   -0.020469  -0.019725  -0.005419   0.020387  -0.006356   0.005185
    22  H    0.379868  -0.020122   0.003777  -0.010454   0.003338  -0.009869
    23  H   -0.102606   0.364342   0.089586  -0.008566  -0.001283   0.007263
    24  H    0.015096   0.034605   0.358001   0.005660   0.006695  -0.060014
    25  H    0.015096   0.034605   0.358001   0.005660   0.006695  -0.060014
              13         14         15         16         17         18
     1  C    0.178795  -1.034902   0.365828  -0.018531  -0.026666   0.050627
     2  C   -0.266724  -0.145110  -0.103866   0.375093  -0.012709   0.002656
     3  C   -0.144674  -0.246767  -0.000687  -0.013065   0.370741  -0.084950
     4  C   -1.452080  -0.252053   0.027858   0.011688  -0.065762   0.451206
     5  C   -0.231659  -1.469035   0.005470  -0.001463   0.000423   0.007390
     6  C    0.954501  -1.330880   0.001024  -0.000311   0.000386  -0.005058
     7  C   -0.880231   1.117784  -0.002561   0.000334  -0.000410   0.001950
     8  C    0.260914  -1.686444   0.006460   0.000508  -0.001282   0.007363
     9  C    1.781881  -2.098283   0.094289   0.004874  -0.006430  -0.026315
    10  C   -0.490169   2.404048  -0.010612  -0.009189   0.020979   0.017773
    11  C    1.081421  -4.827099  -0.031425   0.029398  -0.029081  -0.007725
    12  C   -4.877921   2.964177  -0.030814  -0.036224   0.094218  -0.056914
    13  C   14.677943  -4.008347   0.004444   0.002898  -0.006381  -0.011829
    14  C   -4.008347  16.141954   0.006001  -0.008393   0.005366  -0.009038
    15  H    0.004444   0.006001   0.441424  -0.008911   0.001336   0.000149
    16  H    0.002898  -0.008393  -0.008911   0.420898  -0.006312   0.001884
    17  H   -0.006381   0.005366   0.001336  -0.006312   0.423819  -0.010255
    18  H   -0.011829  -0.009038   0.000149   0.001884  -0.010255   0.455955
    19  H    0.076342  -0.077102   0.000237  -0.000493   0.001233  -0.006406
    20  H   -0.011201  -0.046717  -0.000104   0.000012  -0.000128   0.001288
    21  H   -0.027294   0.087020   0.000011  -0.000007   0.000010  -0.000155
    22  H    0.028662  -0.034300  -0.000128   0.000007  -0.000007   0.000017
    23  H   -0.028972  -0.017728   0.000606  -0.000124   0.000015  -0.000118
    24  H    0.019777  -0.059215  -0.000873   0.000629  -0.000146   0.000196
    25  H    0.019777  -0.059215  -0.000873   0.000629  -0.000146   0.000196
              19         20         21         22         23         24
     1  C   -0.048279   0.007513  -0.001375   0.000873   0.005452   0.028712
     2  C   -0.007242   0.001969  -0.000383   0.000380  -0.002860   0.013408
     3  C    0.050797  -0.004901   0.000400  -0.000344   0.001176  -0.001605
     4  C   -0.065725   0.007533   0.000190  -0.001635   0.006396  -0.012891
     5  C   -0.076223   0.457406  -0.067477   0.015778   0.025025  -0.011854
     6  C    0.050549  -0.084876   0.377825  -0.018664  -0.003025  -0.001326
     7  C   -0.007788   0.003200  -0.020469   0.379868  -0.102606   0.015096
     8  C   -0.045010   0.046921  -0.019725  -0.020122   0.364342   0.034605
     9  C    0.076242  -0.024420  -0.005419   0.003777   0.089586   0.358001
    10  C    0.422371   0.014100   0.020387  -0.010454  -0.008566   0.005660
    11  C    0.080451  -0.011906  -0.006356   0.003338  -0.001283   0.006695
    12  C   -0.053567  -0.016225   0.005185  -0.009869   0.007263  -0.060014
    13  C    0.076342  -0.011201  -0.027294   0.028662  -0.028972   0.019777
    14  C   -0.077102  -0.046717   0.087020  -0.034300  -0.017728  -0.059215
    15  H    0.000237  -0.000104   0.000011  -0.000128   0.000606  -0.000873
    16  H   -0.000493   0.000012  -0.000007   0.000007  -0.000124   0.000629
    17  H    0.001233  -0.000128   0.000010  -0.000007   0.000015  -0.000146
    18  H   -0.006406   0.001288  -0.000155   0.000017  -0.000118   0.000196
    19  H    0.442866  -0.005818   0.001566  -0.000565   0.000350   0.000625
    20  H   -0.005818   0.449964  -0.010019   0.001933   0.000247   0.000150
    21  H    0.001566  -0.010019   0.420913  -0.006909   0.001572  -0.000136
    22  H   -0.000565   0.001933  -0.006909   0.417328  -0.008885   0.000624
    23  H    0.000350   0.000247   0.001572  -0.008885   0.435640  -0.000898
    24  H    0.000625   0.000150  -0.000136   0.000624  -0.000898   0.494737
    25  H    0.000625   0.000150  -0.000136   0.000624  -0.000898  -0.080779
              25
     1  C    0.028712
     2  C    0.013408
     3  C   -0.001605
     4  C   -0.012891
     5  C   -0.011854
     6  C   -0.001326
     7  C    0.015096
     8  C    0.034605
     9  C    0.358001
    10  C    0.005660
    11  C    0.006695
    12  C   -0.060014
    13  C    0.019777
    14  C   -0.059215
    15  H   -0.000873
    16  H    0.000629
    17  H   -0.000146
    18  H    0.000196
    19  H    0.000625
    20  H    0.000150
    21  H   -0.000136
    22  H    0.000624
    23  H   -0.000898
    24  H   -0.080779
    25  H    0.494737
 Mulliken charges:
               1
     1  C    0.105917
     2  C   -0.410543
     3  C   -0.442253
     4  C    0.013792
     5  C    0.034246
     6  C   -0.437093
     7  C   -0.403764
     8  C    0.081304
     9  C   -0.320026
    10  C    0.099544
    11  C   -0.628464
    12  C    0.652465
    13  C   -0.649873
    14  C    0.684276
    15  H    0.235718
    16  H    0.254171
    17  H    0.247188
    18  H    0.220112
    19  H    0.189966
    20  H    0.223929
    21  H    0.250781
    22  H    0.258673
    23  H    0.238294
    24  H    0.250820
    25  H    0.250820
 Sum of Mulliken charges =   1.00000
 Mulliken charges with hydrogens summed into heavy atoms:
               1
     1  C    0.341635
     2  C   -0.156371
     3  C   -0.195065
     4  C    0.233904
     5  C    0.258175
     6  C   -0.186313
     7  C   -0.145091
     8  C    0.319598
     9  C    0.181614
    10  C    0.289510
    11  C   -0.628464
    12  C    0.652465
    13  C   -0.649873
    14  C    0.684276
 Electronic spatial extent (au):  <R**2>=           2853.9546
 Charge=              1.0000 electrons
 Dipole moment (field-independent basis, Debye):
    X=              0.1059    Y=             -0.5773    Z=             -0.0000  Tot=              0.5869
 Quadrupole moment (field-independent basis, Debye-Ang):
   XX=            -50.9355   YY=            -36.4434   ZZ=            -84.1375
   XY=            -10.2731   XZ=              0.0000   YZ=              0.0000
 Traceless Quadrupole moment (field-independent basis, Debye-Ang):
   XX=              6.2366   YY=             20.7287   ZZ=            -26.9653
   XY=            -10.2731   XZ=              0.0000   YZ=              0.0000
 Octapole moment (field-independent basis, Debye-Ang**2):
  XXX=              1.6387  YYY=              0.3650  ZZZ=              0.0000  XYY=              1.7822
  XXY=             -6.7007  XXZ=              0.0000  XZZ=              3.0847  YZZ=              0.7221
  YYZ=              0.0000  XYZ=              0.0000
 Hexadecapole moment (field-independent basis, Debye-Ang**3):
 XXXX=           -990.8404 YYYY=          -1845.5938 ZZZZ=            -99.3081 XXXY=            348.6882
 XXXZ=              0.0000 YYYX=            275.4563 YYYZ=              0.0000 ZZZX=              0.0000
 ZZZY=             -0.0000 XXYY=           -454.0954 XXZZ=           -242.2541 YYZZ=           -493.6701
 XXYZ=              0.0000 YYXZ=              0.0000 ZZXY=            183.3776
 N-N= 7.815086118307D+02 E-N=-2.799373370311D+03  KE= 5.375287076344D+02
 Symmetry A'   KE= 5.228796733529D+02
 Symmetry A"   KE= 1.464903428147D+01
 Unable to Open any file for archive entry.
 1\1\GINC-GADI-CPU-CLX-1762\SP\RM062X TD-FC\6-311++G(d,p)\C14H11(1+)\TS
 1578\02-Aug-2022\0\\#n M062X/6-311++G(d,p) TD(NStates=1) EmpiricalDisp
 ersion=GD3 SP\\SP_-125\\1,1\C,0,2.503505,1.360731,0.\C,0,3.716533,0.67
 9564,0.\C,0,3.687561,-0.69993,0.\C,0,2.447406,-1.398138,0.\C,0,-2.4786
 06,-1.416338,0.\C,0,-3.678361,-0.72473,0.\C,0,-3.683633,0.665464,0.\C,
 0,-2.476105,1.361931,0.\C,0,0.008825,1.446769,0.\C,0,-0.0244,-1.428889
 ,0.\C,0,1.25818,0.66934,0.\C,0,1.228071,-0.730054,0.\C,0,-1.26548,0.68
 464,0.\C,0,-1.248071,-0.732454,0.\H,0,2.488971,2.444172,0.\H,0,4.65167
 8,1.218564,0.\H,0,4.605912,-1.270924,0.\H,0,2.4607,-2.480984,0.\H,0,-0
 .0225,-2.510116,0.\H,0,-2.4753,-2.498684,0.\H,0,-4.611712,-1.270024,0.
 \H,0,-4.618378,1.207064,0.\H,0,-2.480571,2.445072,0.\H,0,0.032,2.14428
 7,-0.857935\H,0,0.032,2.144287,0.857935\\Version=ES64L-G16RevC.01\Stat
 e=1-A'\HF=-539.7583517\RMSD=7.413e-09\PG=CS [SG(C14H9),X(H2)]\\@
 The archive entry for this job was punched.


 One man practicing sportsmanship is far better than 50 preaching it.
 -- Knute K. Rockne
 Job cpu time:       0 days  0 hours 51 minutes 52.3 seconds.
 Elapsed time:       0 days  0 hours  1 minutes  5.0 seconds.
 File lengths (MBytes):  RWF=    460 Int=      0 D2E=      0 Chk=     15 Scr=      1
 Normal termination of Gaussian 16 at Tue Aug  2 10:53:24 2022.
