 Entering Gaussian System, Link 0=g16
 Initial command:
 /apps/gaussian/g16c01/g16/l1.exe "/jobfs/53796104.gadi-pbs/Gau-3606533.inp" -scrdir="/jobfs/53796104.gadi-pbs/"
 Entering Link 1 = /apps/gaussian/g16c01/g16/l1.exe PID=   3606534.
  
 Copyright (c) 1988-2019, Gaussian, Inc.  All Rights Reserved.
  
 This is part of the Gaussian(R) 16 program.  It is based on
 the Gaussian(R) 09 system (copyright 2009, Gaussian, Inc.),
 the Gaussian(R) 03 system (copyright 2003, Gaussian, Inc.),
 the Gaussian(R) 98 system (copyright 1998, Gaussian, Inc.),
 the Gaussian(R) 94 system (copyright 1995, Gaussian, Inc.),
 the Gaussian 92(TM) system (copyright 1992, Gaussian, Inc.),
 the Gaussian 90(TM) system (copyright 1990, Gaussian, Inc.),
 the Gaussian 88(TM) system (copyright 1988, Gaussian, Inc.),
 the Gaussian 86(TM) system (copyright 1986, Carnegie Mellon
 University), and the Gaussian 82(TM) system (copyright 1983,
 Carnegie Mellon University). Gaussian is a federally registered
 trademark of Gaussian, Inc.
  
 This software contains proprietary and confidential information,
 including trade secrets, belonging to Gaussian, Inc.
  
 This software is provided under written license and may be
 used, copied, transmitted, or stored only in accord with that
 written license.
  
 The following legend is applicable only to US Government
 contracts under FAR:
  
                    RESTRICTED RIGHTS LEGEND
  
 Use, reproduction and disclosure by the US Government is
 subject to restrictions as set forth in subparagraphs (a)
 and (c) of the Commercial Computer Software - Restricted
 Rights clause in FAR 52.227-19.
  
 Gaussian, Inc.
 340 Quinnipiac St., Bldg. 40, Wallingford CT 06492
  
  
 ---------------------------------------------------------------
 Warning -- This program may not be used in any manner that
 competes with the business of Gaussian, Inc. or will provide
 assistance to any competitor of Gaussian, Inc.  The licensee
 of this program is prohibited from giving any competitor of
 Gaussian, Inc. access to this program.  By using this program,
 the user acknowledges that Gaussian, Inc. is engaged in the
 business of creating and licensing software in the field of
 computational chemistry and represents and warrants to the
 licensee that it is not a competitor of Gaussian, Inc. and that
 it will not use this program in any manner prohibited above.
 ---------------------------------------------------------------
  

 Cite this work as:
 Gaussian 16, Revision C.01,
 M. J. Frisch, G. W. Trucks, H. B. Schlegel, G. E. Scuseria, 
 M. A. Robb, J. R. Cheeseman, G. Scalmani, V. Barone, 
 G. A. Petersson, H. Nakatsuji, X. Li, M. Caricato, A. V. Marenich, 
 J. Bloino, B. G. Janesko, R. Gomperts, B. Mennucci, H. P. Hratchian, 
 J. V. Ortiz, A. F. Izmaylov, J. L. Sonnenberg, D. Williams-Young, 
 F. Ding, F. Lipparini, F. Egidi, J. Goings, B. Peng, A. Petrone, 
 T. Henderson, D. Ranasinghe, V. G. Zakrzewski, J. Gao, N. Rega, 
 G. Zheng, W. Liang, M. Hada, M. Ehara, K. Toyota, R. Fukuda, 
 J. Hasegawa, M. Ishida, T. Nakajima, Y. Honda, O. Kitao, H. Nakai, 
 T. Vreven, K. Throssell, J. A. Montgomery, Jr., J. E. Peralta, 
 F. Ogliaro, M. J. Bearpark, J. J. Heyd, E. N. Brothers, K. N. Kudin, 
 V. N. Staroverov, T. A. Keith, R. Kobayashi, J. Normand, 
 K. Raghavachari, A. P. Rendell, J. C. Burant, S. S. Iyengar, 
 J. Tomasi, M. Cossi, J. M. Millam, M. Klene, C. Adamo, R. Cammi, 
 J. W. Ochterski, R. L. Martin, K. Morokuma, O. Farkas, 
 J. B. Foresman, and D. J. Fox, Gaussian, Inc., Wallingford CT, 2019.
 
 ******************************************
 Gaussian 16:  ES64L-G16RevC.01  3-Jul-2019
                 2-Aug-2022 
 ******************************************
 %NProcShared=48
 Will use up to   48 processors via shared memory.
 %mem = 190GB
 ---------------------------------------------------------------
 #n M062X/6-311++G(d,p) TD(NStates=1) EmpiricalDispersion=GD3 SP
 ---------------------------------------------------------------
 1/38=1,172=1/1;
 2/12=2,17=6,18=5,40=1/2;
 3/5=4,6=6,7=1111,11=9,25=1,30=1,74=-55,124=31/1,2,3,8;
 4//1;
 5/5=2,38=5/2;
 8/6=1,10=2,108=1/1;
 9/41=1,42=1,70=2/14;
 6/7=2,8=2,9=2,10=2/1;
 99/5=1,9=1/99;
 ------
 SP_-75
 ------
 Symbolic Z-matrix:
 Charge =  1 Multiplicity = 1
 C                     2.48591   1.36163   0. 
 C                     3.69573   0.67084   0. 
 C                     3.68166  -0.71518   0. 
 C                     2.46688  -1.40946   0. 
 C                    -2.45908  -1.40491   0. 
 C                    -3.68396  -0.70898   0. 
 C                    -3.70396   0.67436   0. 
 C                    -2.49276   1.36133   0. 
 C                    -0.0021    1.44567   0. 
 C                     0.0061   -1.42884   0. 
 C                     1.2627    0.67889   0. 
 C                     1.24067  -0.73163   0. 
 C                    -1.26088   0.67507   0. 
 C                    -1.23567  -0.73103   0. 
 H                     2.48317   2.4449    0. 
 H                     4.63058   1.21156   0. 
 H                     4.60946  -1.27005   0. 
 H                     2.4699   -2.49201   0. 
 H                     0.00563  -2.51009   0. 
 H                    -2.46625  -2.48758   0. 
 H                    -4.60801  -1.27027   0. 
 H                    -4.6389    1.21444   0. 
 H                    -2.48527   2.44467   0. 
 H                    -0.008     2.14404  -0.85766 
 H                    -0.008     2.14404   0.85766 
 
                          Input orientation:                          
 ---------------------------------------------------------------------
 Center     Atomic      Atomic             Coordinates (Angstroms)
 Number     Number       Type             X           Y           Z
 ---------------------------------------------------------------------
      1          6           0        2.485905    1.361631    0.000000
      2          6           0        3.695733    0.670839    0.000000
      3          6           0        3.681661   -0.715180    0.000000
      4          6           0        2.466881   -1.409463    0.000000
      5          6           0       -2.459081   -1.404913    0.000000
      6          6           0       -3.683961   -0.708980    0.000000
      7          6           0       -3.703958    0.674364    0.000000
      8          6           0       -2.492755    1.361331    0.000000
      9          6           0       -0.002100    1.445669    0.000000
     10          6           0        0.006100   -1.428839    0.000000
     11          6           0        1.262705    0.678890    0.000000
     12          6           0        1.240671   -0.731629    0.000000
     13          6           0       -1.260880    0.675065    0.000000
     14          6           0       -1.235671   -0.731029    0.000000
     15          1           0        2.483171    2.444897    0.000000
     16          1           0        4.630578    1.211564    0.000000
     17          1           0        4.609462   -1.270049    0.000000
     18          1           0        2.469900   -2.492009    0.000000
     19          1           0        0.005625   -2.510091    0.000000
     20          1           0       -2.466250   -2.487584    0.000000
     21          1           0       -4.608012   -1.270274    0.000000
     22          1           0       -4.638903    1.214439    0.000000
     23          1           0       -2.485271    2.444672    0.000000
     24          1           0       -0.008000    2.144037   -0.857660
     25          1           0       -0.008000    2.144037    0.857660
 ---------------------------------------------------------------------
                    Distance matrix (angstroms):
                    1          2          3          4          5
     1  C    0.000000
     2  C    1.393154   0.000000
     3  C    2.396451   1.386090   0.000000
     4  C    2.771159   2.416140   1.399185   0.000000
     5  C    5.666273   6.495420   6.179356   4.925964   0.000000
     6  C    6.508047   7.507582   7.365625   6.190600   1.408777
     7  C    6.227900   7.399692   7.515198   6.513186   2.423450
     8  C    4.978660   6.226890   6.514239   5.681134   2.766449
     9  C    2.489424   3.778138   4.270757   3.774605   3.763319
    10  C    3.733116   4.245237   3.744203   2.460857   2.465297
    11  C    1.400840   2.433041   2.791913   2.410655   4.265434
    12  C    2.435641   2.827410   2.441045   1.401089   3.760515
    13  C    3.809169   4.956615   5.134344   4.271002   2.400415
    14  C    4.269585   5.126790   4.917358   3.764195   1.396729
    15  H    1.083269   2.148857   3.379714   3.854394   6.264734
    16  H    2.149917   1.079962   2.147740   3.398730   7.557064
    17  H    3.381602   2.145215   1.081062   2.147112   7.069829
    18  H    3.853673   3.392090   2.150694   1.082550   5.047438
    19  H    4.598045   4.871880   4.090837   2.696139   2.701147
    20  H    6.272184   6.924281   6.398299   5.049567   1.082695
    21  H    7.566411   8.527608   8.308237   7.076262   2.153145
    22  H    7.126328   8.352344   8.541382   7.574763   3.407731
    23  H    5.087786   6.430497   6.929337   6.275202   3.849674
    24  H    2.750873   4.077196   4.745977   4.414519   4.397548
    25  H    2.750873   4.077196   4.745977   4.414519   4.397548
                    6          7          8          9         10
     6  C    0.000000
     7  C    1.383489   0.000000
     8  C    2.388548   1.392457   0.000000
     9  C    4.265983   3.781357   2.492083   0.000000
    10  C    3.759621   4.264738   3.745574   2.874520   0.000000
    11  C    5.137673   4.966665   3.816963   1.479081   2.453890
    12  C    4.924684   5.140639   4.280064   2.507011   1.417839
    13  C    2.790502   2.443078   1.410134   1.475926   2.455942
    14  C    2.448389   2.840347   2.440949   2.501942   1.424407
    15  H    6.926793   6.435476   5.092539   2.678624   4.598012
    16  H    8.533466   8.351831   7.124907   4.638589   5.325178
    17  H    8.312380   8.537780   7.574011   5.351787   4.606100
    18  H    6.406965   6.938475   6.283007   4.649311   2.683401
    19  H    4.105733   4.888943   4.607582   3.955768   1.081252
    20  H    2.155517   3.395561   3.849006   4.641391   2.689508
    21  H    1.081167   2.144512   3.376338   5.347034   4.616836
    22  H    2.147430   1.079724   2.151169   4.642565   5.344434
    23  H    3.373778   2.149230   1.083367   2.676592   4.605542
    24  H    4.731593   4.068860   2.742666   1.106044   3.674401
    25  H    4.731593   4.068860   2.742666   1.106044   3.674401
                   11         12         13         14         15
    11  C    0.000000
    12  C    1.410691   0.000000
    13  C    2.523588   2.869938   0.000000
    14  C    2.868755   2.476342   1.406320   0.000000
    15  H    2.146699   3.410883   4.141283   4.890429   0.000000
    16  H    3.409738   3.907361   5.915835   6.179526   2.476382
    17  H    3.872873   3.411546   6.184204   5.869934   4.280413
    18  H    3.392922   2.147077   4.893779   4.102719   4.936924
    19  H    3.427805   2.165240   3.427718   2.169303   5.539868
    20  H    4.892000   4.101785   3.384563   2.144717   6.987570
    21  H    6.185835   5.873434   3.871387   3.415182   8.005459
    22  H    5.925858   6.193268   3.420813   3.920055   7.227584
    23  H    4.143104   4.896073   2.151893   3.412708   4.968442
    24  H    2.120596   3.250264   2.112621   3.241722   2.651798
    25  H    2.120596   3.250264   2.112621   3.241722   2.651798
                   16         17         18         19         20
    16  H    0.000000
    17  H    2.481703   0.000000
    18  H    4.287771   2.463922   0.000000
    19  H    5.936405   4.767916   2.464341   0.000000
    20  H    8.003041   7.179700   4.936152   2.471977   0.000000
    21  H    9.566142   9.217474   7.182581   4.777321   2.463532
    22  H    9.269481   9.576269   8.017034   5.953467   4.292481
    23  H    7.221902   8.008395   6.994608   5.545650   4.932293
    24  H    4.808481   5.806248   5.326208   4.732512   5.313237
    25  H    4.808481   5.806248   5.326208   4.732512   5.313237
                   21         22         23         24         25
    21  H    0.000000
    22  H    2.484905   0.000000
    23  H    4.278651   2.480243   0.000000
    24  H    5.792513   4.800520   2.638718   0.000000
    25  H    5.792513   4.800520   2.638718   1.715320   0.000000
 Stoichiometry    C14H11(1+)
 Framework group  CS[SG(C14H9),X(H2)]
 Deg. of freedom    46
 Full point group                 CS      NOp   2
 Largest Abelian subgroup         CS      NOp   2
 Largest concise Abelian subgroup CS      NOp   2
                         Standard orientation:                         
 ---------------------------------------------------------------------
 Center     Atomic      Atomic             Coordinates (Angstroms)
 Number     Number       Type             X           Y           Z
 ---------------------------------------------------------------------
      1          6           0        2.491863   -1.350853    0.000000
      2          6           0        3.698689   -0.654830    0.000000
      3          6           0        3.678616    0.731115    0.000000
      4          6           0        2.460842    1.420133    0.000000
      5          6           0       -2.465054    1.394255    0.000000
      6          6           0       -3.686910    0.693026    0.000000
      7          6           0       -3.700917   -0.690392    0.000000
      8          6           0       -2.486751   -1.372109    0.000000
      9          6           0        0.004245   -1.445662    0.000000
     10          6           0        0.000000    1.428854    0.000000
     11          6           0        1.265719   -0.673414    0.000000
     12          6           0        1.237578    0.736996    0.000000
     13          6           0       -1.257859   -0.680516    0.000000
     14          6           0       -1.238738    0.725674    0.000000
     15          1           0        2.493819   -2.434121    0.000000
     16          1           0        4.635866   -1.191502    0.000000
     17          1           0        4.604006    1.289996    0.000000
     18          1           0        2.459174    2.502681    0.000000
     19          1           0       -0.005156    2.510094    0.000000
     20          1           0       -2.476911    2.476885    0.000000
     21          1           0       -4.613382    1.250314    0.000000
     22          1           0       -4.633515   -1.234510    0.000000
     23          1           0       -2.474577   -2.455407    0.000000
     24          1           0        0.001369   -2.144049    0.857660
     25          1           0        0.001369   -2.144049   -0.857660
 ---------------------------------------------------------------------
 Rotational constants (GHZ):           2.1387511           0.4450017           0.3691566
 Standard basis: 6-311++G(d,p) (5D, 7F)
 There are   299 symmetry adapted cartesian basis functions of A'  symmetry.
 There are   100 symmetry adapted cartesian basis functions of A"  symmetry.
 There are   285 symmetry adapted basis functions of A'  symmetry.
 There are   100 symmetry adapted basis functions of A"  symmetry.
   385 basis functions,   603 primitive gaussians,   399 cartesian basis functions
    47 alpha electrons       47 beta electrons
       nuclear repulsion energy       781.5465556136 Hartrees.
 NAtoms=   25 NActive=   25 NUniq=   24 SFac= 1.09D+00 NAtFMM=   60 NAOKFM=F Big=F
 Integral buffers will be    131072 words long.
 Regular integral format.
 Two-electron integral symmetry is turned on.
 Nuclear repulsion after empirical dispersion term =      781.5455762420 Hartrees.
 One-electron integrals computed using PRISM.
 NBasis=   385 RedAO= T EigKep=  1.11D-06  NBF=   285   100
 NBsUse=   379 1.00D-06 EigRej=  8.33D-07 NBFU=   279   100
 ExpMin= 3.60D-02 ExpMax= 4.56D+03 ExpMxC= 6.82D+02 IAcc=3 IRadAn=         5 AccDes= 0.00D+00
 Harris functional with IExCor= 1009 and IRadAn=       5 diagonalized for initial guess.
 HarFok:  IExCor= 1009 AccDes= 0.00D+00 IRadAn=         5 IDoV= 1 UseB2=F ITyADJ=14
 ICtDFT=  3500011 ScaDFX=  1.000000  1.000000  1.000000  1.000000
 FoFCou: FMM=F IPFlag=           0 FMFlag=      100000 FMFlg1=           0
         NFxFlg=           0 DoJE=T BraDBF=F KetDBF=T FulRan=T
         wScrn=  0.000000 ICntrl=       500 IOpCl=  0 I1Cent=   200000004 NGrid=           0
         NMat0=    1 NMatS0=      1 NMatT0=    0 NMatD0=    1 NMtDS0=    0 NMtDT0=    0
 Petite list used in FoFCou.
 Initial guess orbital symmetries:
       Occupied  (A') (A') (A') (A') (A') (A') (A') (A') (A') (A')
                 (A') (A') (A') (A') (A') (A') (A') (A') (A') (A')
                 (A') (A') (A') (A') (A') (A') (A') (A') (A') (A')
                 (A') (A') (A") (A') (A') (A') (A') (A') (A') (A")
                 (A") (A') (A') (A") (A") (A") (A")
       Virtual   (A") (A") (A") (A") (A") (A') (A') (A') (A') (A")
                 (A") (A') (A') (A') (A") (A') (A') (A') (A') (A")
                 (A') (A") (A') (A') (A') (A") (A') (A") (A') (A')
                 (A') (A') (A') (A") (A') (A') (A") (A') (A') (A")
                 (A') (A') (A') (A") (A') (A') (A') (A') (A') (A")
                 (A') (A') (A") (A") (A') (A') (A') (A") (A") (A')
                 (A') (A') (A') (A') (A') (A") (A') (A') (A') (A")
                 (A') (A') (A') (A') (A') (A') (A') (A') (A') (A')
                 (A') (A') (A') (A') (A') (A') (A') (A') (A') (A')
                 (A') (A') (A') (A') (A') (A') (A') (A") (A') (A")
                 (A') (A') (A") (A") (A') (A") (A") (A') (A') (A")
                 (A") (A') (A') (A') (A") (A') (A') (A") (A") (A')
                 (A") (A") (A') (A') (A') (A") (A') (A') (A') (A")
                 (A') (A') (A') (A') (A') (A') (A") (A') (A') (A')
                 (A') (A') (A') (A') (A') (A') (A') (A') (A') (A")
                 (A") (A') (A") (A") (A') (A') (A') (A") (A") (A')
                 (A") (A') (A") (A") (A") (A') (A') (A') (A') (A')
                 (A') (A") (A") (A') (A') (A') (A') (A') (A') (A")
                 (A') (A') (A') (A') (A') (A") (A") (A') (A") (A")
                 (A') (A") (A') (A") (A') (A') (A') (A") (A') (A')
                 (A") (A") (A") (A') (A') (A") (A') (A") (A') (A')
                 (A") (A") (A') (A") (A') (A") (A') (A') (A") (A')
                 (A') (A') (A') (A') (A") (A') (A') (A') (A") (A")
                 (A') (A') (A') (A") (A') (A') (A") (A') (A") (A')
                 (A") (A') (A') (A') (A') (A') (A") (A') (A') (A")
                 (A') (A') (A") (A') (A") (A') (A') (A") (A') (A')
                 (A') (A') (A") (A") (A') (A') (A') (A") (A") (A')
                 (A') (A') (A') (A') (A") (A') (A") (A') (A") (A')
                 (A") (A') (A") (A") (A") (A') (A') (A') (A') (A')
                 (A') (A') (A') (A') (A') (A') (A') (A') (A') (A')
                 (A') (A') (A') (A") (A') (A') (A') (A') (A') (A')
                 (A') (A') (A') (A') (A') (A') (A') (A') (A') (A')
                 (A') (A') (A') (A') (A') (A') (A') (A') (A') (A')
                 (A') (A')
 The electronic state of the initial guess is 1-A'.
 Requested convergence on RMS density matrix=1.00D-08 within 128 cycles.
 Requested convergence on MAX density matrix=1.00D-06.
 Requested convergence on             energy=1.00D-06.
 No special actions if energy rises.
 SCF Done:  E(RM062X) =  -539.759979785     A.U. after   15 cycles
            NFock= 15  Conv=0.45D-08     -V/T= 2.0042
 DoSCS=F DFT=T ScalE2(SS,OS)=  1.000000  1.000000
 ExpMin= 3.60D-02 ExpMax= 4.56D+03 ExpMxC= 6.82D+02 IAcc=3 IRadAn=         5 AccDes= 0.00D+00
 HarFok:  IExCor=  205 AccDes= 0.00D+00 IRadAn=         5 IDoV=-2 UseB2=F ITyADJ=14
 ICtDFT= 12500011 ScaDFX=  1.000000  1.000000  1.000000  1.000000
 Range of M.O.s used for correlation:    15   379
 NBasis=   385 NAE=    47 NBE=    47 NFC=    14 NFV=     0
 NROrb=    365 NOA=    33 NOB=    33 NVA=   332 NVB=   332

 **** Warning!!: The largest alpha MO coefficient is  0.15276880D+03

 Orbital symmetries:
       Occupied  (A') (A') (A') (A') (A') (A') (A') (A') (A') (A')
                 (A') (A') (A') (A') (A') (A') (A') (A') (A') (A')
                 (A') (A') (A') (A') (A') (A') (A') (A') (A') (A')
                 (A') (A') (A") (A') (A') (A') (A') (A") (A") (A')
                 (A') (A') (A') (A") (A") (A") (A")
       Virtual   (A") (A") (A") (A") (A') (A') (A') (A') (A") (A')
                 (A') (A") (A') (A') (A") (A') (A") (A') (A') (A')
                 (A") (A") (A') (A') (A') (A") (A') (A") (A') (A')
                 (A") (A') (A") (A') (A') (A') (A') (A') (A") (A')
                 (A") (A') (A') (A") (A") (A') (A") (A') (A") (A')
                 (A') (A') (A') (A') (A') (A") (A') (A') (A') (A')
                 (A') (A") (A') (A') (A') (A") (A') (A') (A') (A')
                 (A') (A') (A') (A') (A') (A') (A') (A') (A') (A')
                 (A') (A') (A') (A') (A') (A') (A') (A') (A') (A')
                 (A') (A') (A') (A') (A") (A') (A") (A") (A') (A")
                 (A') (A') (A') (A') (A") (A") (A') (A") (A") (A')
                 (A') (A') (A") (A') (A') (A") (A') (A") (A') (A")
                 (A") (A') (A") (A') (A') (A') (A") (A') (A') (A')
                 (A') (A') (A') (A') (A') (A') (A') (A') (A') (A')
                 (A') (A') (A') (A") (A') (A') (A') (A') (A') (A')
                 (A') (A') (A") (A') (A") (A') (A") (A") (A') (A")
                 (A") (A') (A') (A") (A") (A") (A') (A") (A') (A')
                 (A') (A') (A') (A") (A") (A') (A') (A') (A') (A")
                 (A') (A') (A') (A") (A') (A") (A') (A') (A") (A")
                 (A") (A') (A') (A") (A') (A") (A') (A') (A') (A')
                 (A") (A") (A") (A') (A") (A') (A') (A") (A') (A')
                 (A') (A") (A') (A") (A") (A') (A") (A') (A') (A")
                 (A') (A') (A') (A') (A") (A') (A') (A') (A") (A")
                 (A') (A') (A') (A") (A') (A') (A') (A") (A") (A')
                 (A") (A') (A') (A") (A') (A') (A') (A') (A') (A')
                 (A") (A') (A') (A') (A') (A") (A") (A") (A') (A')
                 (A') (A') (A') (A') (A') (A') (A") (A') (A') (A')
                 (A') (A") (A') (A") (A") (A") (A') (A") (A') (A")
                 (A') (A") (A") (A') (A") (A") (A') (A') (A') (A')
                 (A') (A') (A') (A') (A') (A') (A') (A') (A') (A')
                 (A') (A') (A') (A") (A') (A') (A') (A') (A') (A')
                 (A') (A') (A') (A') (A') (A') (A') (A') (A') (A')
                 (A') (A') (A') (A') (A') (A') (A') (A') (A') (A')
                 (A') (A')
     4 initial guesses have been made.
 Convergence on wavefunction:    0.001000000000000
 Iteration     1 Dimension     4 NMult     0 NNew      4
 CISAX will form     4 AO SS matrices at one time.
 Iteration     2 Dimension     6 NMult     4 NNew      2
 Iteration     3 Dimension     8 NMult     6 NNew      2
 Iteration     4 Dimension    10 NMult     8 NNew      2
 Iteration     5 Dimension    12 NMult    10 NNew      2
 Iteration     6 Dimension    14 NMult    12 NNew      2
 ***********************************************************************
 Excited states from <AA,BB:AA,BB> singles matrix:
 ***********************************************************************
 
 Ground to excited state transition densities written to RWF  633
 Ground to excited state transition electric dipole moments (Au):
       state          X           Y           Z        Dip. S.      Osc.
         1        -0.0035     -0.6453      0.0000      0.4165      0.0288
 Ground to excited state transition velocity dipole moments (Au):
       state          X           Y           Z        Dip. S.      Osc.
         1        -0.0004      0.0746     -0.0000      0.0056      0.0358
 Ground to excited state transition magnetic dipole moments (Au):
       state          X           Y           Z
         1         0.0000      0.0000     -0.0417
 Ground to excited state transition velocity quadrupole moments (Au):
       state          XX          YY          ZZ          XY          XZ          YZ
         1         0.2938      0.0341     -0.0098     -0.0170     -0.0000     -0.0000
 <0|del|b> * <b|rxdel|0> + <0|del|b> * <b|delr+rdel|0>
 Rotatory Strengths (R) in cgs (10**-40 erg-esu-cm/Gauss)
       state          XX          YY          ZZ    R(velocity)    E-M Angle
         1         0.0000      0.0000     -0.0000      0.0000       90.00
 1/2[<0|r|b>*<b|rxdel|0> + (<0|rxdel|b>*<b|r|0>)*]
 Rotatory Strengths (R) in cgs (10**-40 erg-esu-cm/Gauss)
       state          XX          YY          ZZ     R(length)
         1         0.0000      0.0000      0.0000      0.0000
  1/2[<0|del|b>*<b|r|0> + (<0|r|b>*<b|del|0>)*] (Au)
       state          X           Y           Z        Dip. S.   Osc.(frdel)
         1         0.0000     -0.0481     -0.0000      0.0481      0.0321

 Excitation energies and oscillator strengths:
 
 Excited State   1:      Singlet-A'     2.8185 eV  439.90 nm  f=0.0288  <S**2>=0.000
      47 -> 48         0.70422
 This state for optimization and/or second-order correction.
 Total Energy, E(TD-HF/TD-DFT) =  -539.656403005    
 Copying the excited state density for this state as the 1-particle RhoCI density.
 SavETr:  write IOETrn=   770 NScale= 10 NData=  16 NLR=1 NState=    1 LETran=      28.

 **********************************************************************

            Population analysis using the SCF Density.

 **********************************************************************

 Orbital symmetries:
       Occupied  (A') (A') (A') (A') (A') (A') (A') (A') (A') (A')
                 (A') (A') (A') (A') (A') (A') (A') (A') (A') (A')
                 (A') (A') (A') (A') (A') (A') (A') (A') (A') (A')
                 (A') (A') (A") (A') (A') (A') (A') (A") (A") (A')
                 (A') (A') (A') (A") (A") (A") (A")
       Virtual   (A") (A") (A") (A") (A') (A') (A') (A') (A") (A')
                 (A') (A") (A') (A') (A") (A') (A") (A') (A') (A')
                 (A") (A") (A') (A') (A') (A") (A') (A") (A') (A')
                 (A") (A') (A") (A') (A') (A') (A') (A') (A") (A')
                 (A") (A') (A') (A") (A") (A') (A") (A') (A") (A')
                 (A') (A') (A') (A') (A') (A") (A') (A') (A') (A')
                 (A') (A") (A') (A') (A') (A") (A') (A') (A') (A')
                 (A') (A') (A') (A') (A') (A') (A') (A') (A') (A')
                 (A') (A') (A') (A') (A') (A') (A') (A') (A') (A')
                 (A') (A') (A') (A') (A") (A') (A") (A") (A') (A")
                 (A') (A') (A') (A') (A") (A") (A') (A") (A") (A')
                 (A') (A') (A") (A') (A') (A") (A') (A") (A') (A")
                 (A") (A') (A") (A') (A') (A') (A") (A') (A') (A')
                 (A') (A') (A') (A') (A') (A') (A') (A') (A') (A')
                 (A') (A') (A') (A") (A') (A') (A') (A') (A') (A')
                 (A') (A') (A") (A') (A") (A') (A") (A") (A') (A")
                 (A") (A') (A') (A") (A") (A") (A') (A") (A') (A')
                 (A') (A') (A') (A") (A") (A') (A') (A') (A') (A")
                 (A') (A') (A') (A") (A') (A") (A') (A') (A") (A")
                 (A") (A') (A') (A") (A') (A") (A') (A') (A') (A')
                 (A") (A") (A") (A') (A") (A') (A') (A") (A') (A')
                 (A') (A") (A') (A") (A") (A') (A") (A') (A') (A")
                 (A') (A') (A') (A') (A") (A') (A') (A') (A") (A")
                 (A') (A') (A') (A") (A') (A') (A') (A") (A") (A')
                 (A") (A') (A') (A") (A') (A') (A') (A') (A') (A')
                 (A") (A') (A') (A') (A') (A") (A") (A") (A') (A')
                 (A') (A') (A') (A') (A') (A') (A") (A') (A') (A')
                 (A') (A") (A') (A") (A") (A") (A') (A") (A') (A")
                 (A') (A") (A") (A') (A") (A") (A') (A') (A') (A')
                 (A') (A') (A') (A') (A') (A') (A') (A') (A') (A')
                 (A') (A') (A') (A") (A') (A') (A') (A') (A') (A')
                 (A') (A') (A') (A') (A') (A') (A') (A') (A') (A')
                 (A') (A') (A') (A') (A') (A') (A') (A') (A') (A')
                 (A') (A')
 The electronic state is 1-A'.
 Alpha  occ. eigenvalues --  -10.77648 -10.73266 -10.73123 -10.72478 -10.72361
 Alpha  occ. eigenvalues --  -10.71432 -10.71294 -10.71141 -10.70956 -10.70884
 Alpha  occ. eigenvalues --  -10.70003 -10.69938 -10.69659 -10.69576  -1.16489
 Alpha  occ. eigenvalues --   -1.12495  -1.06944  -1.05806  -1.01314  -1.00242
 Alpha  occ. eigenvalues --   -0.95772  -0.91074  -0.86424  -0.85918  -0.83830
 Alpha  occ. eigenvalues --   -0.78406  -0.76072  -0.74422  -0.69545  -0.69258
 Alpha  occ. eigenvalues --   -0.68516  -0.68208  -0.68089  -0.64762  -0.64301
 Alpha  occ. eigenvalues --   -0.63124  -0.61867  -0.59973  -0.59680  -0.59083
 Alpha  occ. eigenvalues --   -0.56921  -0.55204  -0.54866  -0.52432  -0.46666
 Alpha  occ. eigenvalues --   -0.46059  -0.44460
 Alpha virt. eigenvalues --   -0.26071  -0.14674  -0.14095  -0.12770  -0.11182
 Alpha virt. eigenvalues --   -0.10092  -0.09230  -0.07983  -0.07960  -0.07477
 Alpha virt. eigenvalues --   -0.07210  -0.07149  -0.05641  -0.05584  -0.05336
 Alpha virt. eigenvalues --   -0.03827  -0.03648  -0.03281  -0.03130  -0.02163
 Alpha virt. eigenvalues --   -0.01371  -0.00932   0.00184   0.00593   0.00688
 Alpha virt. eigenvalues --    0.01057   0.01510   0.01934   0.02221   0.02272
 Alpha virt. eigenvalues --    0.02450   0.02673   0.02753   0.03254   0.03373
 Alpha virt. eigenvalues --    0.04237   0.04512   0.04691   0.05027   0.05364
 Alpha virt. eigenvalues --    0.06030   0.06303   0.06598   0.07059   0.07248
 Alpha virt. eigenvalues --    0.07895   0.08170   0.08372   0.08557   0.08928
 Alpha virt. eigenvalues --    0.09550   0.09564   0.10052   0.10892   0.11068
 Alpha virt. eigenvalues --    0.11109   0.12193   0.12248   0.12916   0.13010
 Alpha virt. eigenvalues --    0.13414   0.13521   0.14031   0.14373   0.16258
 Alpha virt. eigenvalues --    0.16296   0.16343   0.17349   0.17627   0.17794
 Alpha virt. eigenvalues --    0.18137   0.19050   0.19234   0.19655   0.19759
 Alpha virt. eigenvalues --    0.21590   0.21617   0.22731   0.23133   0.23580
 Alpha virt. eigenvalues --    0.23726   0.24538   0.25239   0.26924   0.27619
 Alpha virt. eigenvalues --    0.28871   0.29312   0.29899   0.31382   0.35872
 Alpha virt. eigenvalues --    0.36467   0.38179   0.39284   0.41166   0.41400
 Alpha virt. eigenvalues --    0.42011   0.42165   0.42982   0.43719   0.44300
 Alpha virt. eigenvalues --    0.44937   0.45040   0.46087   0.46198   0.47896
 Alpha virt. eigenvalues --    0.48533   0.48902   0.49008   0.50439   0.51272
 Alpha virt. eigenvalues --    0.51637   0.51753   0.52113   0.52946   0.53979
 Alpha virt. eigenvalues --    0.54086   0.54700   0.55681   0.55768   0.57341
 Alpha virt. eigenvalues --    0.58244   0.58821   0.61459   0.62156   0.62356
 Alpha virt. eigenvalues --    0.63233   0.63496   0.65048   0.65166   0.67384
 Alpha virt. eigenvalues --    0.70381   0.70556   0.71054   0.72436   0.72890
 Alpha virt. eigenvalues --    0.75759   0.76025   0.76318   0.76902   0.77102
 Alpha virt. eigenvalues --    0.77855   0.77926   0.78278   0.79859   0.80407
 Alpha virt. eigenvalues --    0.81282   0.81628   0.82134   0.83027   0.85226
 Alpha virt. eigenvalues --    0.87193   0.88236   0.88638   0.89112   0.90437
 Alpha virt. eigenvalues --    0.91159   0.91245   0.93197   0.94653   0.96482
 Alpha virt. eigenvalues --    0.96642   1.00365   1.01324   1.01676   1.02720
 Alpha virt. eigenvalues --    1.03207   1.03869   1.04744   1.05392   1.08806
 Alpha virt. eigenvalues --    1.19581   1.23245   1.24101   1.25303   1.28166
 Alpha virt. eigenvalues --    1.29641   1.31824   1.34231   1.35799   1.36013
 Alpha virt. eigenvalues --    1.39400   1.40180   1.40983   1.42943   1.43510
 Alpha virt. eigenvalues --    1.43548   1.45093   1.45518   1.46393   1.46689
 Alpha virt. eigenvalues --    1.47641   1.48059   1.51810   1.53631   1.55807
 Alpha virt. eigenvalues --    1.56041   1.56357   1.56560   1.57825   1.61509
 Alpha virt. eigenvalues --    1.63182   1.63504   1.63740   1.66154   1.68356
 Alpha virt. eigenvalues --    1.68380   1.68658   1.69705   1.74455   1.76018
 Alpha virt. eigenvalues --    1.77238   1.78047   1.80174   1.80192   1.80749
 Alpha virt. eigenvalues --    1.83199   1.83201   1.83675   1.83805   1.84130
 Alpha virt. eigenvalues --    1.84306   1.85848   1.86100   1.88246   1.91412
 Alpha virt. eigenvalues --    1.92120   1.94161   1.95246   1.97713   1.98191
 Alpha virt. eigenvalues --    1.99791   2.02691   2.04487   2.07264   2.11840
 Alpha virt. eigenvalues --    2.12113   2.14122   2.15216   2.19197   2.21381
 Alpha virt. eigenvalues --    2.22799   2.28515   2.30402   2.34737   2.34996
 Alpha virt. eigenvalues --    2.36226   2.38690   2.39597   2.42411   2.44329
 Alpha virt. eigenvalues --    2.46202   2.46844   2.49408   2.52957   2.53837
 Alpha virt. eigenvalues --    2.54428   2.56656   2.57856   2.58299   2.59663
 Alpha virt. eigenvalues --    2.59833   2.61633   2.62175   2.63574   2.63856
 Alpha virt. eigenvalues --    2.64795   2.65156   2.65228   2.65371   2.68128
 Alpha virt. eigenvalues --    2.68663   2.70984   2.71423   2.73359   2.74837
 Alpha virt. eigenvalues --    2.76302   2.79033   2.79765   2.83062   2.83089
 Alpha virt. eigenvalues --    2.84928   2.86385   2.92153   2.96965   2.99539
 Alpha virt. eigenvalues --    3.00107   3.05484   3.11246   3.11610   3.13167
 Alpha virt. eigenvalues --    3.21215   3.24298   3.26877   3.28322   3.30809
 Alpha virt. eigenvalues --    3.32805   3.33671   3.43423   3.45925   3.46848
 Alpha virt. eigenvalues --    3.48749   3.50304   3.56656   3.65049   3.67122
 Alpha virt. eigenvalues --    3.67496   3.94188   3.94583   3.95138   3.96272
 Alpha virt. eigenvalues --    4.04039   4.06964   4.07620   4.12532   4.35788
 Alpha virt. eigenvalues --    4.61884   4.69935   4.71693  23.45327  23.60640
 Alpha virt. eigenvalues --   23.82321  23.85936  23.88026  23.89383  23.90468
 Alpha virt. eigenvalues --   23.92482  23.97930  23.99401  23.99984  24.00750
 Alpha virt. eigenvalues --   24.10612  24.10771
          Condensed to atoms (all electrons):
               1          2          3          4          5          6
     1  C    8.492695   0.446751  -0.586189   1.819526   0.002338  -0.092875
     2  C    0.446751   7.068750   0.385308  -1.000181  -0.031761  -0.015252
     3  C   -0.586189   0.385308   6.585912   0.732588  -0.118082   0.016950
     4  C    1.819526  -1.000181   0.732588  10.850690  -0.299521  -0.121487
     5  C    0.002338  -0.031761  -0.118082  -0.299521  10.745652   0.746798
     6  C   -0.092875  -0.015252   0.016950  -0.121487   0.746798   6.582091
     7  C   -0.027590   0.003763  -0.014938  -0.024928  -1.028216   0.362227
     8  C    0.406477  -0.023249  -0.096019  -0.007613   1.895009  -0.552554
     9  C   -1.271330  -0.778631   0.285224  -0.242135  -0.303907   0.284744
    10  C   -1.215645   0.218675  -0.346807  -2.574016  -2.520084  -0.370782
    11  C    0.242224  -0.932866   1.008008  -0.217200  -1.482894  -0.170916
    12  C   -1.780250   1.238104  -1.350804  -1.442971  -0.302287  -0.212160
    13  C    0.147898  -0.232978  -0.187098  -1.506501  -0.223299   1.041278
    14  C   -1.075829  -0.221770  -0.189617  -0.338569  -1.447682  -1.372588
    15  H    0.364106  -0.102400  -0.002322   0.025858   0.006132   0.001118
    16  H   -0.019891   0.378156  -0.016432   0.014265  -0.001578  -0.000332
    17  H   -0.021677  -0.018028   0.375176  -0.066583   0.000277   0.000395
    18  H    0.047962   0.003027  -0.085284   0.453641   0.007736  -0.004929
    19  H   -0.046472  -0.007557   0.050599  -0.071641  -0.069059   0.050660
    20  H    0.007533   0.001944  -0.004971   0.007692   0.452143  -0.085286
    21  H   -0.001319  -0.000401   0.000391   0.000337  -0.066167   0.373418
    22  H    0.000646   0.000352  -0.000324  -0.001537   0.013240  -0.015025
    23  H    0.006063  -0.002695   0.001079   0.005908   0.026575  -0.001751
    24  H    0.032281   0.014442  -0.001415  -0.012219  -0.012475  -0.001485
    25  H    0.032281   0.014442  -0.001415  -0.012219  -0.012475  -0.001485
               7          8          9         10         11         12
     1  C   -0.027590   0.406477  -1.271330  -1.215645   0.242224  -1.780250
     2  C    0.003763  -0.023249  -0.778631   0.218675  -0.932866   1.238104
     3  C   -0.014938  -0.096019   0.285224  -0.346807   1.008008  -1.350804
     4  C   -0.024928  -0.007613  -0.242135  -2.574016  -0.217200  -1.442971
     5  C   -1.028216   1.895009  -0.303907  -2.520084  -1.482894  -0.302287
     6  C    0.362227  -0.552554   0.284744  -0.370782  -0.170916  -0.212160
     7  C    7.065937   0.379202  -0.766609   0.245375  -0.244166  -0.192676
     8  C    0.379202   8.560767  -1.264957  -1.244366   0.153535  -1.055880
     9  C   -0.766609  -1.264957   9.662456   0.250430   1.783532  -2.028930
    10  C    0.245375  -1.244366   0.250430   9.266687  -0.559688   2.424763
    11  C   -0.244166   0.153535   1.783532  -0.559688  14.680203  -3.887246
    12  C   -0.192676  -1.055880  -2.028930   2.424763  -3.887246  16.059475
    13  C   -0.961404   0.240183   1.760075  -0.587008   1.088251  -4.861198
    14  C    1.330771  -1.884600  -1.977202   2.439246  -4.872880   2.937361
    15  H   -0.002766   0.005809   0.091423  -0.009317  -0.029305  -0.022569
    16  H    0.000363   0.000736   0.004460  -0.010108   0.029687  -0.035826
    17  H   -0.000394  -0.001341  -0.005840   0.020715  -0.028330   0.089561
    18  H    0.001947   0.007572  -0.025386   0.016690  -0.010720  -0.049550
    19  H   -0.007412  -0.047314   0.076571   0.422296   0.076956  -0.067863
    20  H    0.002926   0.048884  -0.025854   0.017579  -0.011658  -0.011210
    21  H   -0.016119  -0.023393  -0.006098   0.020881  -0.006381   0.005301
    22  H    0.376971  -0.019491   0.004739  -0.009799   0.003127  -0.008972
    23  H   -0.102692   0.364475   0.092613  -0.009836   0.002189   0.006602
    24  H    0.014017   0.030783   0.358086   0.005625   0.014810  -0.059364
    25  H    0.014017   0.030783   0.358086   0.005625   0.014810  -0.059364
              13         14         15         16         17         18
     1  C    0.147898  -1.075829   0.364106  -0.019891  -0.021677   0.047962
     2  C   -0.232978  -0.221770  -0.102400   0.378156  -0.018028   0.003027
     3  C   -0.187098  -0.189617  -0.002322  -0.016432   0.375176  -0.085284
     4  C   -1.506501  -0.338569   0.025858   0.014265  -0.066583   0.453641
     5  C   -0.223299  -1.447682   0.006132  -0.001578   0.000277   0.007736
     6  C    1.041278  -1.372588   0.001118  -0.000332   0.000395  -0.004929
     7  C   -0.961404   1.330771  -0.002766   0.000363  -0.000394   0.001947
     8  C    0.240183  -1.884600   0.005809   0.000736  -0.001341   0.007572
     9  C    1.760075  -1.977202   0.091423   0.004460  -0.005840  -0.025386
    10  C   -0.587008   2.439246  -0.009317  -0.010108   0.020715   0.016690
    11  C    1.088251  -4.872880  -0.029305   0.029687  -0.028330  -0.010720
    12  C   -4.861198   2.937361  -0.022569  -0.035826   0.089561  -0.049550
    13  C   14.666014  -3.794649   0.000772   0.003231  -0.006373  -0.011673
    14  C   -3.794649  16.022597   0.006898  -0.009335   0.005250  -0.012995
    15  H    0.000772   0.006898   0.437632  -0.008918   0.001489   0.000221
    16  H    0.003231  -0.009335  -0.008918   0.418715  -0.006718   0.001910
    17  H   -0.006373   0.005250   0.001489  -0.006718   0.422045  -0.010096
    18  H   -0.011673  -0.012995   0.000221   0.001910  -0.010096   0.452063
    19  H    0.078033  -0.061950   0.000304  -0.000537   0.001438  -0.006004
    20  H   -0.009858  -0.052133  -0.000112   0.000015  -0.000145   0.001296
    21  H   -0.028813   0.091390   0.000013  -0.000007   0.000010  -0.000138
    22  H    0.029898  -0.036346  -0.000125   0.000007  -0.000007   0.000014
    23  H   -0.029942  -0.025836   0.000613  -0.000126   0.000012  -0.000109
    24  H    0.011504  -0.059595  -0.000885   0.000626  -0.000139   0.000166
    25  H    0.011504  -0.059595  -0.000885   0.000626  -0.000139   0.000166
              19         20         21         22         23         24
     1  C   -0.046472   0.007533  -0.001319   0.000646   0.006063   0.032281
     2  C   -0.007557   0.001944  -0.000401   0.000352  -0.002695   0.014442
     3  C    0.050599  -0.004971   0.000391  -0.000324   0.001079  -0.001415
     4  C   -0.071641   0.007692   0.000337  -0.001537   0.005908  -0.012219
     5  C   -0.069059   0.452143  -0.066167   0.013240   0.026575  -0.012475
     6  C    0.050660  -0.085286   0.373418  -0.015025  -0.001751  -0.001485
     7  C   -0.007412   0.002926  -0.016119   0.376971  -0.102692   0.014017
     8  C   -0.047314   0.048884  -0.023393  -0.019491   0.364475   0.030783
     9  C    0.076571  -0.025854  -0.006098   0.004739   0.092613   0.358086
    10  C    0.422296   0.017579   0.020881  -0.009799  -0.009836   0.005625
    11  C    0.076956  -0.011658  -0.006381   0.003127   0.002189   0.014810
    12  C   -0.067863  -0.011210   0.005301  -0.008972   0.006602  -0.059364
    13  C    0.078033  -0.009858  -0.028813   0.029898  -0.029942   0.011504
    14  C   -0.061950  -0.052133   0.091390  -0.036346  -0.025836  -0.059595
    15  H    0.000304  -0.000112   0.000013  -0.000125   0.000613  -0.000885
    16  H   -0.000537   0.000015  -0.000007   0.000007  -0.000126   0.000626
    17  H    0.001438  -0.000145   0.000010  -0.000007   0.000012  -0.000139
    18  H   -0.006004   0.001296  -0.000138   0.000014  -0.000109   0.000166
    19  H    0.442563  -0.006153   0.001355  -0.000519   0.000276   0.000627
    20  H   -0.006153   0.453566  -0.010158   0.001899   0.000197   0.000178
    21  H    0.001355  -0.010158   0.422773  -0.006570   0.001430  -0.000142
    22  H   -0.000519   0.001899  -0.006570   0.419610  -0.008926   0.000627
    23  H    0.000276   0.000197   0.001430  -0.008926   0.439073  -0.000880
    24  H    0.000627   0.000178  -0.000142   0.000627  -0.000880   0.495000
    25  H    0.000627   0.000178  -0.000142   0.000627  -0.000880  -0.081067
              25
     1  C    0.032281
     2  C    0.014442
     3  C   -0.001415
     4  C   -0.012219
     5  C   -0.012475
     6  C   -0.001485
     7  C    0.014017
     8  C    0.030783
     9  C    0.358086
    10  C    0.005625
    11  C    0.014810
    12  C   -0.059364
    13  C    0.011504
    14  C   -0.059595
    15  H   -0.000885
    16  H    0.000626
    17  H   -0.000139
    18  H    0.000166
    19  H    0.000627
    20  H    0.000178
    21  H   -0.000142
    22  H    0.000627
    23  H   -0.000880
    24  H   -0.081067
    25  H    0.495000
 Mulliken charges:
               1
     1  C    0.090283
     2  C   -0.405944
     3  C   -0.439521
     4  C    0.028813
     5  C    0.023587
     6  C   -0.440773
     7  C   -0.407607
     8  C    0.096562
     9  C   -0.315564
    10  C    0.102868
    11  C   -0.643081
    12  C    0.667954
    13  C   -0.637848
    14  C    0.659659
    15  H    0.237215
    16  H    0.257012
    17  H    0.249444
    18  H    0.222471
    19  H    0.190176
    20  H    0.221508
    21  H    0.248546
    22  H    0.255884
    23  H    0.236567
    24  H    0.250894
    25  H    0.250894
 Sum of Mulliken charges =   1.00000
 Mulliken charges with hydrogens summed into heavy atoms:
               1
     1  C    0.327499
     2  C   -0.148932
     3  C   -0.190078
     4  C    0.251284
     5  C    0.245095
     6  C   -0.192227
     7  C   -0.151723
     8  C    0.333129
     9  C    0.186224
    10  C    0.293045
    11  C   -0.643081
    12  C    0.667954
    13  C   -0.637848
    14  C    0.659659
 Electronic spatial extent (au):  <R**2>=           2853.5651
 Charge=              1.0000 electrons
 Dipole moment (field-independent basis, Debye):
    X=              0.1392    Y=              0.1816    Z=             -0.0000  Tot=              0.2288
 Quadrupole moment (field-independent basis, Debye-Ang):
   XX=            -31.1559   YY=            -56.2506   ZZ=            -84.1401
   XY=              0.1766   XZ=             -0.0000   YZ=              0.0000
 Traceless Quadrupole moment (field-independent basis, Debye-Ang):
   XX=             26.0263   YY=              0.9316   ZZ=            -26.9579
   XY=              0.1766   XZ=             -0.0000   YZ=              0.0000
 Octapole moment (field-independent basis, Debye-Ang**2):
  XXX=              1.5159  YYY=              5.1421  ZZZ=              0.0000  XYY=              0.2849
  XXY=             -5.1662  XXZ=              0.0000  XZZ=              0.2164  YZZ=             -3.0569
  YYZ=              0.0000  XYZ=              0.0000
 Hexadecapole moment (field-independent basis, Debye-Ang**3):
 XXXX=          -2121.6390 YYYY=           -608.5007 ZZZZ=            -99.3102 XXXY=             -3.1197
 XXXZ=              0.0000 YYYX=             -4.8780 YYYZ=             -0.0000 ZZZX=              0.0000
 ZZZY=              0.0000 XXYY=           -507.2128 XXZZ=           -590.2202 YYZZ=           -145.6349
 XXYZ=             -0.0000 YYXZ=              0.0000 ZZXY=             -2.3804
 N-N= 7.815455762420D+02 E-N=-2.799444924944D+03  KE= 5.375246667578D+02
 Symmetry A'   KE= 5.228773517607D+02
 Symmetry A"   KE= 1.464731499709D+01
 Unable to Open any file for archive entry.
 1\1\GINC-GADI-CPU-CLX-1762\SP\RM062X TD-FC\6-311++G(d,p)\C14H11(1+)\TS
 1578\02-Aug-2022\0\\#n M062X/6-311++G(d,p) TD(NStates=1) EmpiricalDisp
 ersion=GD3 SP\\SP_-75\\1,1\C,0,2.485905,1.361631,0.\C,0,3.695733,0.670
 839,0.\C,0,3.681661,-0.71518,0.\C,0,2.466881,-1.409463,0.\C,0,-2.45908
 1,-1.404913,0.\C,0,-3.683961,-0.70898,0.\C,0,-3.703958,0.674364,0.\C,0
 ,-2.492755,1.361331,0.\C,0,-0.0021,1.445669,0.\C,0,0.0061,-1.428839,0.
 \C,0,1.262705,0.67889,0.\C,0,1.240671,-0.731629,0.\C,0,-1.26088,0.6750
 65,0.\C,0,-1.235671,-0.731029,0.\H,0,2.483171,2.444897,0.\H,0,4.630578
 ,1.211564,0.\H,0,4.609462,-1.270049,0.\H,0,2.4699,-2.492009,0.\H,0,0.0
 05625,-2.510091,0.\H,0,-2.46625,-2.487584,0.\H,0,-4.608012,-1.270274,0
 .\H,0,-4.638903,1.214439,0.\H,0,-2.485271,2.444672,0.\H,0,-0.008,2.144
 037,-0.85766\H,0,-0.008,2.144037,0.85766\\Version=ES64L-G16RevC.01\Sta
 te=1-A'\HF=-539.7599798\RMSD=4.547e-09\PG=CS [SG(C14H9),X(H2)]\\@
 The archive entry for this job was punched.


 BLACK HOLES SUCK.
 Job cpu time:       0 days  0 hours 51 minutes 27.8 seconds.
 Elapsed time:       0 days  0 hours  1 minutes  4.4 seconds.
 File lengths (MBytes):  RWF=    460 Int=      0 D2E=      0 Chk=     15 Scr=      1
 Normal termination of Gaussian 16 at Tue Aug  2 11:19:23 2022.
