 Entering Gaussian System, Link 0=g16
 Initial command:
 /apps/gaussian/g16c01/g16/l1.exe "/jobfs/53796104.gadi-pbs/Gau-3586729.inp" -scrdir="/jobfs/53796104.gadi-pbs/"
 Entering Link 1 = /apps/gaussian/g16c01/g16/l1.exe PID=   3586730.
  
 Copyright (c) 1988-2019, Gaussian, Inc.  All Rights Reserved.
  
 This is part of the Gaussian(R) 16 program.  It is based on
 the Gaussian(R) 09 system (copyright 2009, Gaussian, Inc.),
 the Gaussian(R) 03 system (copyright 2003, Gaussian, Inc.),
 the Gaussian(R) 98 system (copyright 1998, Gaussian, Inc.),
 the Gaussian(R) 94 system (copyright 1995, Gaussian, Inc.),
 the Gaussian 92(TM) system (copyright 1992, Gaussian, Inc.),
 the Gaussian 90(TM) system (copyright 1990, Gaussian, Inc.),
 the Gaussian 88(TM) system (copyright 1988, Gaussian, Inc.),
 the Gaussian 86(TM) system (copyright 1986, Carnegie Mellon
 University), and the Gaussian 82(TM) system (copyright 1983,
 Carnegie Mellon University). Gaussian is a federally registered
 trademark of Gaussian, Inc.
  
 This software contains proprietary and confidential information,
 including trade secrets, belonging to Gaussian, Inc.
  
 This software is provided under written license and may be
 used, copied, transmitted, or stored only in accord with that
 written license.
  
 The following legend is applicable only to US Government
 contracts under FAR:
  
                    RESTRICTED RIGHTS LEGEND
  
 Use, reproduction and disclosure by the US Government is
 subject to restrictions as set forth in subparagraphs (a)
 and (c) of the Commercial Computer Software - Restricted
 Rights clause in FAR 52.227-19.
  
 Gaussian, Inc.
 340 Quinnipiac St., Bldg. 40, Wallingford CT 06492
  
  
 ---------------------------------------------------------------
 Warning -- This program may not be used in any manner that
 competes with the business of Gaussian, Inc. or will provide
 assistance to any competitor of Gaussian, Inc.  The licensee
 of this program is prohibited from giving any competitor of
 Gaussian, Inc. access to this program.  By using this program,
 the user acknowledges that Gaussian, Inc. is engaged in the
 business of creating and licensing software in the field of
 computational chemistry and represents and warrants to the
 licensee that it is not a competitor of Gaussian, Inc. and that
 it will not use this program in any manner prohibited above.
 ---------------------------------------------------------------
  

 Cite this work as:
 Gaussian 16, Revision C.01,
 M. J. Frisch, G. W. Trucks, H. B. Schlegel, G. E. Scuseria, 
 M. A. Robb, J. R. Cheeseman, G. Scalmani, V. Barone, 
 G. A. Petersson, H. Nakatsuji, X. Li, M. Caricato, A. V. Marenich, 
 J. Bloino, B. G. Janesko, R. Gomperts, B. Mennucci, H. P. Hratchian, 
 J. V. Ortiz, A. F. Izmaylov, J. L. Sonnenberg, D. Williams-Young, 
 F. Ding, F. Lipparini, F. Egidi, J. Goings, B. Peng, A. Petrone, 
 T. Henderson, D. Ranasinghe, V. G. Zakrzewski, J. Gao, N. Rega, 
 G. Zheng, W. Liang, M. Hada, M. Ehara, K. Toyota, R. Fukuda, 
 J. Hasegawa, M. Ishida, T. Nakajima, Y. Honda, O. Kitao, H. Nakai, 
 T. Vreven, K. Throssell, J. A. Montgomery, Jr., J. E. Peralta, 
 F. Ogliaro, M. J. Bearpark, J. J. Heyd, E. N. Brothers, K. N. Kudin, 
 V. N. Staroverov, T. A. Keith, R. Kobayashi, J. Normand, 
 K. Raghavachari, A. P. Rendell, J. C. Burant, S. S. Iyengar, 
 J. Tomasi, M. Cossi, J. M. Millam, M. Klene, C. Adamo, R. Cammi, 
 J. W. Ochterski, R. L. Martin, K. Morokuma, O. Farkas, 
 J. B. Foresman, and D. J. Fox, Gaussian, Inc., Wallingford CT, 2019.
 
 ******************************************
 Gaussian 16:  ES64L-G16RevC.01  3-Jul-2019
                 2-Aug-2022 
 ******************************************
 %NProcShared=48
 Will use up to   48 processors via shared memory.
 %mem = 190GB
 ---------------------------------------------------------------
 #n M062X/6-311++G(d,p) TD(NStates=1) EmpiricalDispersion=GD3 SP
 ---------------------------------------------------------------
 1/38=1,172=1/1;
 2/12=2,17=6,18=5,40=1/2;
 3/5=4,6=6,7=1111,11=9,25=1,30=1,74=-55,124=31/1,2,3,8;
 4//1;
 5/5=2,38=5/2;
 8/6=1,10=2,108=1/1;
 9/41=1,42=1,70=2/14;
 6/7=2,8=2,9=2,10=2/1;
 99/5=1,9=1/99;
 -------
 SP_-150
 -------
 Symbolic Z-matrix:
 Charge =  1 Multiplicity = 1
 C                     2.52205   1.35953   0. 
 C                     3.73781   0.68811   0. 
 C                     3.69376  -0.68518   0. 
 C                     2.42798  -1.38691   0. 
 C                    -2.49818  -1.42786   0. 
 C                    -3.67306  -0.74098   0. 
 C                    -3.66378   0.65639   0. 
 C                    -2.46041   1.36223   0. 
 C                     0.01973   1.45007   0. 
 C                    -0.0549   -1.42904   0. 
 C                     1.25373   0.65982   0. 
 C                     1.21527  -0.72833   0. 
 C                    -1.27016   0.69424   0. 
 C                    -1.26027  -0.73373   0. 
 H                     2.49587   2.44312   0. 
 H                     4.67335   1.22519   0. 
 H                     4.60251  -1.27242   0. 
 H                     2.45135  -2.47003   0. 
 H                    -0.05063  -2.51019   0. 
 H                    -2.4842   -2.50986   0. 
 H                    -4.61556  -1.2704    0. 
 H                    -4.59843   1.19931   0. 
 H                    -2.47697   2.44515   0. 
 H                     0.072     2.14504  -0.85876 
 H                     0.072     2.14504   0.85876 
 
                          Input orientation:                          
 ---------------------------------------------------------------------
 Center     Atomic      Atomic             Coordinates (Angstroms)
 Number     Number       Type             X           Y           Z
 ---------------------------------------------------------------------
      1          6           0        2.522055    1.359531    0.000000
      2          6           0        3.737808    0.688114    0.000000
      3          6           0        3.693761   -0.685180    0.000000
      4          6           0        2.427981   -1.386913    0.000000
      5          6           0       -2.498181   -1.427863    0.000000
      6          6           0       -3.673061   -0.740980    0.000000
      7          6           0       -3.663783    0.656389    0.000000
      8          6           0       -2.460405    1.362231    0.000000
      9          6           0        0.019725    1.450069    0.000000
     10          6           0       -0.054900   -1.429039    0.000000
     11          6           0        1.253730    0.659815    0.000000
     12          6           0        1.215271   -0.728329    0.000000
     13          6           0       -1.270155    0.694240    0.000000
     14          6           0       -1.260271   -0.733729    0.000000
     15          1           0        2.495871    2.443122    0.000000
     16          1           0        4.673353    1.225189    0.000000
     17          1           0        4.602512   -1.272424    0.000000
     18          1           0        2.451350   -2.470034    0.000000
     19          1           0       -0.050625   -2.510191    0.000000
     20          1           0       -2.484200   -2.509859    0.000000
     21          1           0       -4.615562   -1.270399    0.000000
     22          1           0       -4.598428    1.199314    0.000000
     23          1           0       -2.476971    2.445147    0.000000
     24          1           0        0.072000    2.145037   -0.858760
     25          1           0        0.072000    2.145037    0.858760
 ---------------------------------------------------------------------
                    Distance matrix (angstroms):
                    1          2          3          4          5
     1  C    0.000000
     2  C    1.388833   0.000000
     3  C    2.356637   1.374000   0.000000
     4  C    2.748055   2.453851   1.447283   0.000000
     5  C    5.742154   6.585204   6.236323   4.926332   0.000000
     6  C    6.541530   7.547403   7.367033   6.135140   1.360938
     7  C    6.225673   7.401659   7.478854   6.425315   2.388040
     8  C    4.982461   6.234764   6.485804   5.608396   2.790350
     9  C    2.503967   3.795355   4.249450   3.721312   3.823917
    10  C    3.796949   4.343613   3.821752   2.483238   2.443281
    11  C    1.448534   2.484239   2.786174   2.359653   4.293627
    12  C    2.463096   2.893009   2.478866   1.379999   3.778766
    13  C    3.850126   5.007967   5.152015   4.243514   2.451809
    14  C    4.322930   5.196386   4.954270   3.745644   1.419240
    15  H    1.083907   2.149991   3.349808   3.830637   6.318630
    16  H    2.155489   1.078746   2.146884   3.444528   7.646541
    17  H    3.354920   2.142760   1.081981   2.177543   7.102394
    18  H    3.830218   3.410113   2.174693   1.083373   5.058061
    19  H    4.646873   4.957961   4.165464   2.721257   2.676185
    20  H    6.327303   6.995743   6.441790   5.038902   1.082086
    21  H    7.606715   8.579893   8.329906   7.044507   2.123228
    22  H    7.122285   8.351895   8.503630   7.487255   3.363495
    23  H    5.115547   6.458378   6.919312   6.224407   3.873068
    24  H    2.712427   4.037108   4.675976   4.331603   4.484296
    25  H    2.712427   4.037108   4.675976   4.331603   4.484296
                    6          7          8          9         10
     6  C    0.000000
     7  C    1.397400   0.000000
     8  C    2.427763   1.395110   0.000000
     9  C    4.293875   3.768044   2.481685   0.000000
    10  C    3.683003   4.168099   3.684785   2.880075   0.000000
    11  C    5.122060   4.917514   3.779972   1.465357   2.464919
    12  C    4.888348   5.071746   4.228597   2.484904   1.450631
    13  C    2.798895   2.393927   1.364884   1.495014   2.446458
    14  C    2.412801   2.776562   2.415237   2.531277   1.391537
    15  H    6.942206   6.413560   5.072770   2.667856   4.636816
    16  H    8.574873   8.356517   7.135074   4.659058   5.422297
    17  H    8.292620   8.488342   7.538316   5.330469   4.660045
    18  H    6.363807   6.867996   6.229895   4.613026   2.713846
    19  H    4.031396   4.804388   4.560997   3.960885   1.081160
    20  H    2.131273   3.378837   3.872163   4.685154   2.658885
    21  H    1.081015   2.149045   3.402270   5.374647   4.563420
    22  H    2.149662   1.080893   2.144221   4.624956   5.248989
    23  H    3.403239   2.146667   1.083043   2.687689   4.568998
    24  H    4.805418   4.112130   2.786275   1.105976   3.677987
    25  H    4.805418   4.112130   2.786275   1.105976   3.677987
                   11         12         13         14         15
    11  C    0.000000
    12  C    1.388677   0.000000
    13  C    2.524120   2.863747   0.000000
    14  C    2.874398   2.475548   1.428003   0.000000
    15  H    2.173269   3.420239   4.152293   4.919450   0.000000
    16  H    3.466045   3.971720   5.967176   6.248620   2.494953
    17  H    3.866250   3.430662   6.193221   5.887480   4.271208
    18  H    3.351156   2.135750   4.884898   4.097668   4.913358
    19  H    3.427868   2.185755   3.428649   2.149200   5.569556
    20  H    4.900914   4.106085   3.426391   2.156998   7.023755
    21  H    6.178537   5.855976   3.879633   3.397939   8.022638
    22  H    5.876973   6.124941   3.366378   3.857453   7.202509
    23  H    4.135884   4.868634   2.126518   3.403764   4.972842
    24  H    2.083228   3.209481   2.154915   3.286291   2.588721
    25  H    2.083228   3.209481   2.154915   3.286291   2.588721
                   16         17         18         19         20
    16  H    0.000000
    17  H    2.498617   0.000000
    18  H    4.311841   2.462066   0.000000
    19  H    6.022378   4.814951   2.502297   0.000000
    20  H    8.073484   7.193937   4.935711   2.433575   0.000000
    21  H    9.618311   9.218074   7.168010   4.730300   2.465556
    22  H    9.271817   9.527160   7.947546   5.868811   4.269417
    23  H    7.253649   7.996212   6.960413   5.517475   4.955011
    24  H    4.770329   5.739516   5.262856   4.735362   5.379562
    25  H    4.770329   5.739516   5.262856   4.735362   5.379562
                   21         22         23         24         25
    21  H    0.000000
    22  H    2.469772   0.000000
    23  H    4.287057   2.460219   0.000000
    24  H    5.863097   4.841979   2.706435   0.000000
    25  H    5.863097   4.841979   2.706435   1.717520   0.000000
 Stoichiometry    C14H11(1+)
 Framework group  CS[SG(C14H9),X(H2)]
 Deg. of freedom    46
 Full point group                 CS      NOp   2
 Largest Abelian subgroup         CS      NOp   2
 Largest concise Abelian subgroup CS      NOp   2
                         Standard orientation:                         
 ---------------------------------------------------------------------
 Center     Atomic      Atomic             Coordinates (Angstroms)
 Number     Number       Type             X           Y           Z
 ---------------------------------------------------------------------
      1          6           0        0.028118    2.864282    0.000000
      2          6           0       -1.132451    3.627129    0.000000
      3          6           0       -2.327022    2.948252    0.000000
      4          6           0       -2.358111    1.501302    0.000000
      5          6           0       -0.098932   -2.876466    0.000000
      6          6           0        1.056276   -3.595942    0.000000
      7          6           0        2.288350   -2.936610    0.000000
      8          6           0        2.352152   -1.542960    0.000000
      9          6           0        1.274221    0.692398    0.000000
     10          6           0       -1.238452   -0.715190    0.000000
     11          6           0        0.000000    1.416021    0.000000
     12          6           0       -1.210315    0.735168    0.000000
     13          6           0        1.206498   -0.801081    0.000000
     14          6           0       -0.061580   -1.457718    0.000000
     15          1           0        0.999085    3.346028    0.000000
     16          1           0       -1.093174    4.705161    0.000000
     17          1           0       -3.270063    3.478684    0.000000
     18          1           0       -3.327350    1.017285    0.000000
     19          1           0       -2.197052   -1.215184    0.000000
     20          1           0       -1.062801   -3.368267    0.000000
     21          1           0        1.027015   -4.676561    0.000000
     22          1           0        3.204243   -3.510604    0.000000
     23          1           0        3.318039   -1.053018    0.000000
     24          1           0        1.864773    1.062481    0.858760
     25          1           0        1.864773    1.062481   -0.858760
 ---------------------------------------------------------------------
 Rotational constants (GHZ):           2.1378427           0.4446856           0.3689140
 Standard basis: 6-311++G(d,p) (5D, 7F)
 There are   299 symmetry adapted cartesian basis functions of A'  symmetry.
 There are   100 symmetry adapted cartesian basis functions of A"  symmetry.
 There are   285 symmetry adapted basis functions of A'  symmetry.
 There are   100 symmetry adapted basis functions of A"  symmetry.
   385 basis functions,   603 primitive gaussians,   399 cartesian basis functions
    47 alpha electrons       47 beta electrons
       nuclear repulsion energy       781.4156551331 Hartrees.
 NAtoms=   25 NActive=   25 NUniq=   24 SFac= 1.09D+00 NAtFMM=   60 NAOKFM=F Big=F
 Integral buffers will be    131072 words long.
 Regular integral format.
 Two-electron integral symmetry is turned on.
 Nuclear repulsion after empirical dispersion term =      781.4146762443 Hartrees.
 One-electron integrals computed using PRISM.
 NBasis=   385 RedAO= T EigKep=  1.11D-06  NBF=   285   100
 NBsUse=   379 1.00D-06 EigRej=  8.33D-07 NBFU=   279   100
 ExpMin= 3.60D-02 ExpMax= 4.56D+03 ExpMxC= 6.82D+02 IAcc=3 IRadAn=         5 AccDes= 0.00D+00
 Harris functional with IExCor= 1009 and IRadAn=       5 diagonalized for initial guess.
 HarFok:  IExCor= 1009 AccDes= 0.00D+00 IRadAn=         5 IDoV= 1 UseB2=F ITyADJ=14
 ICtDFT=  3500011 ScaDFX=  1.000000  1.000000  1.000000  1.000000
 FoFCou: FMM=F IPFlag=           0 FMFlag=      100000 FMFlg1=           0
         NFxFlg=           0 DoJE=T BraDBF=F KetDBF=T FulRan=T
         wScrn=  0.000000 ICntrl=       500 IOpCl=  0 I1Cent=   200000004 NGrid=           0
         NMat0=    1 NMatS0=      1 NMatT0=    0 NMatD0=    1 NMtDS0=    0 NMtDT0=    0
 Petite list used in FoFCou.
 Initial guess orbital symmetries:
       Occupied  (A') (A') (A') (A') (A') (A') (A') (A') (A') (A')
                 (A') (A') (A') (A') (A') (A') (A') (A') (A') (A')
                 (A') (A') (A') (A') (A') (A') (A') (A') (A') (A')
                 (A') (A') (A") (A') (A') (A') (A') (A') (A") (A')
                 (A") (A') (A') (A") (A") (A") (A")
       Virtual   (A") (A") (A") (A") (A") (A') (A') (A') (A') (A")
                 (A") (A') (A') (A') (A") (A') (A') (A') (A') (A")
                 (A') (A") (A') (A') (A') (A") (A') (A") (A') (A')
                 (A') (A') (A') (A') (A") (A') (A") (A') (A') (A')
                 (A") (A') (A") (A') (A') (A') (A') (A') (A") (A')
                 (A') (A') (A") (A") (A') (A') (A') (A") (A") (A')
                 (A') (A') (A') (A') (A') (A') (A") (A') (A') (A")
                 (A') (A') (A') (A') (A') (A') (A') (A') (A') (A')
                 (A') (A') (A') (A') (A') (A') (A') (A') (A') (A')
                 (A') (A') (A') (A') (A') (A') (A') (A") (A') (A")
                 (A') (A") (A') (A") (A') (A") (A') (A") (A") (A')
                 (A") (A') (A') (A') (A") (A') (A') (A") (A") (A')
                 (A") (A") (A') (A') (A') (A") (A') (A') (A') (A")
                 (A') (A') (A') (A') (A') (A') (A") (A') (A') (A')
                 (A') (A') (A') (A') (A') (A') (A') (A') (A') (A")
                 (A") (A') (A") (A") (A') (A') (A') (A") (A") (A')
                 (A") (A') (A") (A") (A") (A') (A') (A') (A') (A')
                 (A') (A") (A') (A') (A") (A') (A') (A') (A') (A")
                 (A') (A') (A') (A') (A") (A") (A') (A') (A") (A")
                 (A") (A') (A') (A") (A') (A') (A') (A") (A') (A')
                 (A") (A") (A") (A') (A') (A") (A') (A") (A') (A')
                 (A") (A") (A') (A") (A') (A") (A') (A') (A') (A")
                 (A') (A') (A') (A') (A") (A') (A') (A') (A") (A")
                 (A') (A') (A') (A") (A') (A') (A") (A') (A") (A')
                 (A") (A') (A') (A') (A') (A") (A') (A') (A') (A")
                 (A') (A') (A') (A") (A") (A') (A') (A") (A') (A')
                 (A') (A") (A') (A") (A') (A') (A') (A") (A') (A")
                 (A') (A') (A') (A') (A") (A') (A") (A') (A") (A")
                 (A') (A') (A") (A") (A") (A') (A') (A') (A') (A')
                 (A') (A') (A') (A') (A') (A') (A') (A') (A') (A')
                 (A') (A') (A') (A") (A') (A') (A') (A') (A') (A')
                 (A') (A') (A') (A') (A') (A') (A') (A') (A') (A')
                 (A') (A') (A') (A') (A') (A') (A') (A') (A') (A')
                 (A') (A')
 The electronic state of the initial guess is 1-A'.
 Requested convergence on RMS density matrix=1.00D-08 within 128 cycles.
 Requested convergence on MAX density matrix=1.00D-06.
 Requested convergence on             energy=1.00D-06.
 No special actions if energy rises.
 SCF Done:  E(RM062X) =  -539.751331440     A.U. after   16 cycles
            NFock= 16  Conv=0.34D-08     -V/T= 2.0041
 DoSCS=F DFT=T ScalE2(SS,OS)=  1.000000  1.000000
 ExpMin= 3.60D-02 ExpMax= 4.56D+03 ExpMxC= 6.82D+02 IAcc=3 IRadAn=         5 AccDes= 0.00D+00
 HarFok:  IExCor=  205 AccDes= 0.00D+00 IRadAn=         5 IDoV=-2 UseB2=F ITyADJ=14
 ICtDFT= 12500011 ScaDFX=  1.000000  1.000000  1.000000  1.000000
 Range of M.O.s used for correlation:    15   379
 NBasis=   385 NAE=    47 NBE=    47 NFC=    14 NFV=     0
 NROrb=    365 NOA=    33 NOB=    33 NVA=   332 NVB=   332

 **** Warning!!: The largest alpha MO coefficient is  0.14149850D+03

 Orbital symmetries:
       Occupied  (A') (A') (A') (A') (A') (A') (A') (A') (A') (A')
                 (A') (A') (A') (A') (A') (A') (A') (A') (A') (A')
                 (A') (A') (A') (A') (A') (A') (A') (A') (A') (A')
                 (A') (A") (A') (A') (A') (A') (A') (A") (A') (A")
                 (A') (A') (A') (A") (A") (A") (A")
       Virtual   (A") (A") (A") (A") (A') (A') (A') (A') (A") (A')
                 (A') (A") (A') (A') (A") (A') (A") (A') (A') (A')
                 (A") (A") (A') (A') (A') (A") (A') (A") (A') (A')
                 (A") (A') (A") (A') (A') (A') (A') (A') (A") (A')
                 (A") (A') (A') (A") (A") (A') (A") (A') (A") (A')
                 (A') (A') (A') (A') (A') (A") (A') (A') (A') (A')
                 (A') (A") (A') (A') (A') (A") (A') (A') (A') (A')
                 (A') (A') (A') (A') (A') (A') (A') (A') (A') (A')
                 (A') (A') (A') (A') (A') (A') (A') (A') (A') (A')
                 (A') (A') (A') (A') (A") (A') (A") (A") (A') (A")
                 (A') (A') (A') (A') (A") (A") (A') (A") (A") (A')
                 (A') (A") (A') (A') (A") (A') (A') (A") (A') (A")
                 (A") (A') (A") (A') (A') (A') (A") (A') (A') (A')
                 (A') (A') (A') (A') (A') (A') (A') (A') (A') (A')
                 (A') (A') (A') (A") (A') (A') (A') (A') (A') (A')
                 (A') (A") (A') (A') (A") (A') (A") (A") (A') (A")
                 (A") (A') (A') (A") (A') (A") (A") (A") (A') (A')
                 (A') (A') (A") (A') (A') (A") (A') (A') (A') (A")
                 (A') (A') (A') (A") (A") (A') (A') (A") (A") (A')
                 (A") (A') (A') (A") (A') (A") (A') (A') (A') (A')
                 (A") (A") (A") (A') (A") (A') (A') (A") (A') (A')
                 (A') (A") (A') (A") (A") (A') (A") (A') (A') (A")
                 (A') (A') (A') (A') (A") (A') (A') (A') (A") (A")
                 (A') (A') (A') (A") (A') (A') (A') (A") (A") (A')
                 (A") (A') (A') (A") (A') (A') (A') (A') (A') (A')
                 (A") (A') (A') (A') (A') (A") (A") (A") (A') (A')
                 (A') (A') (A') (A') (A') (A') (A') (A") (A') (A')
                 (A') (A") (A') (A") (A") (A") (A') (A") (A") (A')
                 (A') (A") (A") (A') (A") (A") (A') (A') (A') (A')
                 (A') (A') (A') (A') (A') (A') (A') (A') (A') (A')
                 (A') (A') (A') (A") (A') (A') (A') (A') (A') (A')
                 (A') (A') (A') (A') (A') (A') (A') (A') (A') (A')
                 (A') (A') (A') (A') (A') (A') (A') (A') (A') (A')
                 (A') (A')
     4 initial guesses have been made.
 Convergence on wavefunction:    0.001000000000000
 Iteration     1 Dimension     4 NMult     0 NNew      4
 CISAX will form     4 AO SS matrices at one time.
 Iteration     2 Dimension     6 NMult     4 NNew      2
 Iteration     3 Dimension     8 NMult     6 NNew      2
 Iteration     4 Dimension    10 NMult     8 NNew      2
 Iteration     5 Dimension    12 NMult    10 NNew      2
 Iteration     6 Dimension    14 NMult    12 NNew      2
 ***********************************************************************
 Excited states from <AA,BB:AA,BB> singles matrix:
 ***********************************************************************
 
 Ground to excited state transition densities written to RWF  633
 Ground to excited state transition electric dipole moments (Au):
       state          X           Y           Z        Dip. S.      Osc.
         1         0.4394      0.3088     -0.0000      0.2884      0.0185
 Ground to excited state transition velocity dipole moments (Au):
       state          X           Y           Z        Dip. S.      Osc.
         1        -0.0502     -0.0293     -0.0000      0.0034      0.0234
 Ground to excited state transition magnetic dipole moments (Au):
       state          X           Y           Z
         1         0.0000      0.0000      0.1653
 Ground to excited state transition velocity quadrupole moments (Au):
       state          XX          YY          ZZ          XY          XZ          YZ
         1         0.1377      0.1126     -0.0079     -0.1333      0.0000     -0.0000
 <0|del|b> * <b|rxdel|0> + <0|del|b> * <b|delr+rdel|0>
 Rotatory Strengths (R) in cgs (10**-40 erg-esu-cm/Gauss)
       state          XX          YY          ZZ    R(velocity)    E-M Angle
         1         0.0000      0.0000     -0.0000     -0.0000       90.00
 1/2[<0|r|b>*<b|rxdel|0> + (<0|rxdel|b>*<b|r|0>)*]
 Rotatory Strengths (R) in cgs (10**-40 erg-esu-cm/Gauss)
       state          XX          YY          ZZ     R(length)
         1        -0.0000     -0.0000      0.0000      0.0000
  1/2[<0|del|b>*<b|r|0> + (<0|r|b>*<b|del|0>)*] (Au)
       state          X           Y           Z        Dip. S.   Osc.(frdel)
         1        -0.0221     -0.0091      0.0000      0.0311      0.0207

 Excitation energies and oscillator strengths:
 
 Excited State   1:      Singlet-A'     2.6229 eV  472.70 nm  f=0.0185  <S**2>=0.000
      47 -> 48         0.70343
 This state for optimization and/or second-order correction.
 Total Energy, E(TD-HF/TD-DFT) =  -539.654942370    
 Copying the excited state density for this state as the 1-particle RhoCI density.
 SavETr:  write IOETrn=   770 NScale= 10 NData=  16 NLR=1 NState=    1 LETran=      28.

 **********************************************************************

            Population analysis using the SCF Density.

 **********************************************************************

 Orbital symmetries:
       Occupied  (A') (A') (A') (A') (A') (A') (A') (A') (A') (A')
                 (A') (A') (A') (A') (A') (A') (A') (A') (A') (A')
                 (A') (A') (A') (A') (A') (A') (A') (A') (A') (A')
                 (A') (A") (A') (A') (A') (A') (A') (A") (A') (A")
                 (A') (A') (A') (A") (A") (A") (A")
       Virtual   (A") (A") (A") (A") (A') (A') (A') (A') (A") (A')
                 (A') (A") (A') (A') (A") (A') (A") (A') (A') (A')
                 (A") (A") (A') (A') (A') (A") (A') (A") (A') (A')
                 (A") (A') (A") (A') (A') (A') (A') (A') (A") (A')
                 (A") (A') (A') (A") (A") (A') (A") (A') (A") (A')
                 (A') (A') (A') (A') (A') (A") (A') (A') (A') (A')
                 (A') (A") (A') (A') (A') (A") (A') (A') (A') (A')
                 (A') (A') (A') (A') (A') (A') (A') (A') (A') (A')
                 (A') (A') (A') (A') (A') (A') (A') (A') (A') (A')
                 (A') (A') (A') (A') (A") (A') (A") (A") (A') (A")
                 (A') (A') (A') (A') (A") (A") (A') (A") (A") (A')
                 (A') (A") (A') (A') (A") (A') (A') (A") (A') (A")
                 (A") (A') (A") (A') (A') (A') (A") (A') (A') (A')
                 (A') (A') (A') (A') (A') (A') (A') (A') (A') (A')
                 (A') (A') (A') (A") (A') (A') (A') (A') (A') (A')
                 (A') (A") (A') (A') (A") (A') (A") (A") (A') (A")
                 (A") (A') (A') (A") (A') (A") (A") (A") (A') (A')
                 (A') (A') (A") (A') (A') (A") (A') (A') (A') (A")
                 (A') (A') (A') (A") (A") (A') (A') (A") (A") (A')
                 (A") (A') (A') (A") (A') (A") (A') (A') (A') (A')
                 (A") (A") (A") (A') (A") (A') (A') (A") (A') (A')
                 (A') (A") (A') (A") (A") (A') (A") (A') (A') (A")
                 (A') (A') (A') (A') (A") (A') (A') (A') (A") (A")
                 (A') (A') (A') (A") (A') (A') (A') (A") (A") (A')
                 (A") (A') (A') (A") (A') (A') (A') (A') (A') (A')
                 (A") (A') (A') (A') (A') (A") (A") (A") (A') (A')
                 (A') (A') (A') (A') (A') (A') (A') (A") (A') (A')
                 (A') (A") (A') (A") (A") (A") (A') (A") (A") (A')
                 (A') (A") (A") (A') (A") (A") (A') (A') (A') (A')
                 (A') (A') (A') (A') (A') (A') (A') (A') (A') (A')
                 (A') (A') (A') (A") (A') (A') (A') (A') (A') (A')
                 (A') (A') (A') (A') (A') (A') (A') (A') (A') (A')
                 (A') (A') (A') (A') (A') (A') (A') (A') (A') (A')
                 (A') (A')
 The electronic state is 1-A'.
 Alpha  occ. eigenvalues --  -10.77541 -10.73845 -10.72893 -10.72561 -10.72212
 Alpha  occ. eigenvalues --  -10.71940 -10.71852 -10.70975 -10.70717 -10.70263
 Alpha  occ. eigenvalues --  -10.69986 -10.69912 -10.69681 -10.69255  -1.16601
 Alpha  occ. eigenvalues --   -1.12491  -1.06935  -1.05938  -1.01277  -1.00517
 Alpha  occ. eigenvalues --   -0.95496  -0.91027  -0.86453  -0.85897  -0.83770
 Alpha  occ. eigenvalues --   -0.78314  -0.76199  -0.74356  -0.69844  -0.69347
 Alpha  occ. eigenvalues --   -0.68259  -0.68081  -0.68037  -0.65406  -0.64237
 Alpha  occ. eigenvalues --   -0.62694  -0.61506  -0.60542  -0.59180  -0.59164
 Alpha  occ. eigenvalues --   -0.56966  -0.55268  -0.54472  -0.52438  -0.47503
 Alpha  occ. eigenvalues --   -0.46131  -0.43602
 Alpha virt. eigenvalues --   -0.26102  -0.14668  -0.14069  -0.12753  -0.11197
 Alpha virt. eigenvalues --   -0.10100  -0.09269  -0.07953  -0.07907  -0.07488
 Alpha virt. eigenvalues --   -0.07219  -0.07134  -0.05646  -0.05573  -0.05362
 Alpha virt. eigenvalues --   -0.03859  -0.03673  -0.03271  -0.03130  -0.02152
 Alpha virt. eigenvalues --   -0.01344  -0.00967   0.00181   0.00594   0.00650
 Alpha virt. eigenvalues --    0.01068   0.01498   0.01925   0.02119   0.02303
 Alpha virt. eigenvalues --    0.02448   0.02677   0.02816   0.03204   0.03456
 Alpha virt. eigenvalues --    0.04211   0.04499   0.04729   0.05041   0.05399
 Alpha virt. eigenvalues --    0.06017   0.06291   0.06572   0.07067   0.07274
 Alpha virt. eigenvalues --    0.07911   0.08058   0.08352   0.08683   0.08901
 Alpha virt. eigenvalues --    0.09468   0.09592   0.09950   0.10810   0.10966
 Alpha virt. eigenvalues --    0.11128   0.12079   0.12252   0.12643   0.13050
 Alpha virt. eigenvalues --    0.13488   0.13522   0.13973   0.14295   0.15810
 Alpha virt. eigenvalues --    0.16338   0.16544   0.17323   0.17405   0.17761
 Alpha virt. eigenvalues --    0.18135   0.19052   0.19372   0.19719   0.19994
 Alpha virt. eigenvalues --    0.21475   0.21688   0.22659   0.23194   0.23587
 Alpha virt. eigenvalues --    0.23970   0.24497   0.25404   0.26958   0.27629
 Alpha virt. eigenvalues --    0.28886   0.29251   0.29977   0.31365   0.35784
 Alpha virt. eigenvalues --    0.36509   0.38226   0.39287   0.41015   0.41233
 Alpha virt. eigenvalues --    0.42005   0.42054   0.42983   0.43734   0.44435
 Alpha virt. eigenvalues --    0.44740   0.45160   0.45839   0.46467   0.47837
 Alpha virt. eigenvalues --    0.48352   0.48769   0.49033   0.50574   0.51140
 Alpha virt. eigenvalues --    0.51217   0.52153   0.52190   0.52749   0.54133
 Alpha virt. eigenvalues --    0.54217   0.54611   0.55603   0.56043   0.57537
 Alpha virt. eigenvalues --    0.58216   0.59038   0.61542   0.62262   0.62473
 Alpha virt. eigenvalues --    0.63151   0.63471   0.64971   0.65180   0.67617
 Alpha virt. eigenvalues --    0.70252   0.70424   0.71311   0.72576   0.72943
 Alpha virt. eigenvalues --    0.75496   0.76077   0.76477   0.76710   0.77132
 Alpha virt. eigenvalues --    0.77895   0.78088   0.78341   0.79921   0.80397
 Alpha virt. eigenvalues --    0.81238   0.81526   0.82515   0.82993   0.85299
 Alpha virt. eigenvalues --    0.87012   0.87998   0.88211   0.89394   0.90689
 Alpha virt. eigenvalues --    0.91083   0.91525   0.93362   0.94600   0.96243
 Alpha virt. eigenvalues --    0.97014   1.00021   1.01301   1.01447   1.02782
 Alpha virt. eigenvalues --    1.02897   1.03319   1.04951   1.06688   1.08986
 Alpha virt. eigenvalues --    1.19614   1.22825   1.23980   1.24197   1.29126
 Alpha virt. eigenvalues --    1.29338   1.32481   1.34217   1.35765   1.35952
 Alpha virt. eigenvalues --    1.39324   1.39489   1.40740   1.42857   1.43371
 Alpha virt. eigenvalues --    1.43438   1.44353   1.46386   1.46566   1.47250
 Alpha virt. eigenvalues --    1.47734   1.48353   1.51866   1.53713   1.55726
 Alpha virt. eigenvalues --    1.55920   1.56259   1.56596   1.57873   1.61537
 Alpha virt. eigenvalues --    1.62839   1.63361   1.64306   1.66105   1.68266
 Alpha virt. eigenvalues --    1.68453   1.68713   1.69873   1.74479   1.76070
 Alpha virt. eigenvalues --    1.77222   1.78106   1.79846   1.79981   1.80979
 Alpha virt. eigenvalues --    1.82718   1.83176   1.83661   1.83837   1.84167
 Alpha virt. eigenvalues --    1.84694   1.85359   1.86532   1.88445   1.91466
 Alpha virt. eigenvalues --    1.92227   1.94063   1.95454   1.97861   1.98186
 Alpha virt. eigenvalues --    1.99878   2.02569   2.04668   2.07351   2.11710
 Alpha virt. eigenvalues --    2.12264   2.14353   2.15293   2.19118   2.21282
 Alpha virt. eigenvalues --    2.22716   2.28352   2.30491   2.34452   2.34752
 Alpha virt. eigenvalues --    2.36427   2.38556   2.39731   2.42346   2.44292
 Alpha virt. eigenvalues --    2.46115   2.46701   2.49147   2.53009   2.53797
 Alpha virt. eigenvalues --    2.54419   2.56806   2.57973   2.58484   2.59364
 Alpha virt. eigenvalues --    2.59966   2.61526   2.62171   2.63612   2.63733
 Alpha virt. eigenvalues --    2.64879   2.65043   2.65083   2.65707   2.68056
 Alpha virt. eigenvalues --    2.68408   2.70936   2.71506   2.73401   2.74820
 Alpha virt. eigenvalues --    2.76270   2.78403   2.79640   2.83316   2.83345
 Alpha virt. eigenvalues --    2.84891   2.86326   2.92154   2.97144   2.99401
 Alpha virt. eigenvalues --    3.00221   3.05152   3.09095   3.11210   3.14523
 Alpha virt. eigenvalues --    3.20536   3.21916   3.26025   3.29169   3.30884
 Alpha virt. eigenvalues --    3.32879   3.35020   3.44198   3.46433   3.46990
 Alpha virt. eigenvalues --    3.48442   3.50128   3.56527   3.65249   3.67228
 Alpha virt. eigenvalues --    3.68154   3.93368   3.93947   3.95320   3.96655
 Alpha virt. eigenvalues --    4.03894   4.06378   4.07800   4.12523   4.35341
 Alpha virt. eigenvalues --    4.61028   4.68932   4.70983  23.45161  23.59937
 Alpha virt. eigenvalues --   23.79289  23.81441  23.84442  23.89430  23.92209
 Alpha virt. eigenvalues --   23.95135  23.96127  23.98154  24.04679  24.07796
 Alpha virt. eigenvalues --   24.11781  24.14365
          Condensed to atoms (all electrons):
               1          2          3          4          5          6
     1  C    9.039035  -0.048414  -0.351215   2.290396  -0.087969  -0.108411
     2  C   -0.048414   7.181998   0.221278  -1.203760   0.017109  -0.013000
     3  C   -0.351215   0.221278   6.601372   0.835724  -0.142395   0.016853
     4  C    2.290396  -1.203760   0.835724  10.530424  -0.354266  -0.108432
     5  C   -0.087969   0.017109  -0.142395  -0.354266  11.540598   0.696795
     6  C   -0.108411  -0.013000   0.016853  -0.108432   0.696795   6.617800
     7  C   -0.000916   0.000756  -0.015723  -0.049098  -0.941637   0.443876
     8  C    0.412992  -0.040722  -0.081492   0.012992   1.630726  -0.680893
     9  C   -1.157292  -0.765131   0.289413  -0.485692   0.077521   0.290149
    10  C   -1.399786   0.369205  -0.462737  -2.325196  -2.823378  -0.242747
    11  C    0.281048  -1.025733   1.145202  -0.324110  -1.609684  -0.240972
    12  C   -2.620717   1.817855  -1.524915  -1.580920  -0.496300  -0.098141
    13  C    0.273924  -0.320134  -0.096344  -1.399276  -0.310354   0.862672
    14  C   -1.033204  -0.052658  -0.308257  -0.183994  -1.577341  -1.320780
    15  H    0.369741  -0.107500   0.001724   0.030031   0.004397   0.000941
    16  H   -0.015979   0.371410  -0.010206   0.009177  -0.001283  -0.000288
    17  H   -0.033473  -0.005696   0.365961  -0.065180   0.000515   0.000376
    18  H    0.054187   0.001767  -0.084179   0.451458   0.006599  -0.005263
    19  H   -0.048998  -0.007257   0.051483  -0.060478  -0.084915   0.050888
    20  H    0.007165   0.002079  -0.004944   0.006684   0.466823  -0.083459
    21  H   -0.001438  -0.000363   0.000412   0.000064  -0.069615   0.382299
    22  H    0.001116   0.000406  -0.000365  -0.001721   0.018149  -0.022393
    23  H    0.004832  -0.002991   0.001275   0.006685   0.023806  -0.003883
    24  H    0.025623   0.012406  -0.001822  -0.013571  -0.011077  -0.001182
    25  H    0.025623   0.012406  -0.001822  -0.013571  -0.011077  -0.001182
               7          8          9         10         11         12
     1  C   -0.000916   0.412992  -1.157292  -1.399786   0.281048  -2.620717
     2  C    0.000756  -0.040722  -0.765131   0.369205  -1.025733   1.817855
     3  C   -0.015723  -0.081492   0.289413  -0.462737   1.145202  -1.524915
     4  C   -0.049098   0.012992  -0.485692  -2.325196  -0.324110  -1.580920
     5  C   -0.941637   1.630726   0.077521  -2.823378  -1.609684  -0.496300
     6  C    0.443876  -0.680893   0.290149  -0.242747  -0.240972  -0.098141
     7  C    7.171995   0.610958  -0.866328   0.127752  -0.207679  -0.324362
     8  C    0.610958   8.299463  -1.197023  -1.153132   0.175250  -1.167459
     9  C   -0.866328  -1.197023   9.688734   0.239747   1.509806  -1.719125
    10  C    0.127752  -1.153132   0.239747   9.162708  -0.560640   2.485840
    11  C   -0.207679   0.175250   1.509806  -0.560640  14.366369  -3.256129
    12  C   -0.324362  -1.167459  -1.719125   2.485840  -3.256129  15.872937
    13  C   -0.779258   0.322429   1.701756  -0.340078   1.044736  -4.855364
    14  C    0.948188  -1.633990  -2.190986   2.374956  -4.718834   3.043697
    15  H   -0.002247   0.007144   0.097376  -0.011718  -0.034988  -0.039735
    16  H    0.000300   0.000300   0.004585  -0.007850   0.026932  -0.034245
    17  H   -0.000421  -0.001223  -0.006771   0.020563  -0.027836   0.098158
    18  H    0.001986   0.006961  -0.026578   0.016671  -0.002831  -0.066732
    19  H   -0.008350  -0.042570   0.074993   0.422858   0.084176  -0.040612
    20  H    0.003700   0.045598  -0.022259   0.007705  -0.012464  -0.022458
    21  H   -0.023818  -0.017644  -0.004617   0.019896  -0.006340   0.005163
    22  H    0.382748  -0.020019   0.001971  -0.010865   0.003502  -0.010753
    23  H   -0.104159   0.365608   0.086626  -0.007254  -0.004514   0.007802
    24  H    0.016109   0.038376   0.357644   0.005689  -0.001327  -0.060089
    25  H    0.016109   0.038376   0.357644   0.005689  -0.001327  -0.060089
              13         14         15         16         17         18
     1  C    0.273924  -1.033204   0.369741  -0.015979  -0.033473   0.054187
     2  C   -0.320134  -0.052658  -0.107500   0.371410  -0.005696   0.001767
     3  C   -0.096344  -0.308257   0.001724  -0.010206   0.365961  -0.084179
     4  C   -1.399276  -0.183994   0.030031   0.009177  -0.065180   0.451458
     5  C   -0.310354  -1.577341   0.004397  -0.001283   0.000515   0.006599
     6  C    0.862672  -1.320780   0.000941  -0.000288   0.000376  -0.005263
     7  C   -0.779258   0.948188  -0.002247   0.000300  -0.000421   0.001986
     8  C    0.322429  -1.633990   0.007144   0.000300  -0.001223   0.006961
     9  C    1.701756  -2.190986   0.097376   0.004585  -0.006771  -0.026578
    10  C   -0.340078   2.374956  -0.011718  -0.007850   0.020563   0.016671
    11  C    1.044736  -4.718834  -0.034988   0.026932  -0.027836  -0.002831
    12  C   -4.855364   3.043697  -0.039735  -0.034245   0.098158  -0.066732
    13  C   14.662166  -4.192806   0.008934   0.002337  -0.006304  -0.012208
    14  C   -4.192806  16.350946   0.004352  -0.007287   0.005338  -0.006037
    15  H    0.008934   0.004352   0.445758  -0.008808   0.001159   0.000037
    16  H    0.002337  -0.007287  -0.008808   0.422803  -0.005773   0.001866
    17  H   -0.006304   0.005338   0.001159  -0.005773   0.425396  -0.010374
    18  H   -0.012208  -0.006037   0.000037   0.001866  -0.010374   0.460148
    19  H    0.076953  -0.092525   0.000194  -0.000457   0.001048  -0.006960
    20  H   -0.010880  -0.044380  -0.000098   0.000010  -0.000113   0.001270
    21  H   -0.025100   0.083162   0.000009  -0.000007   0.000010  -0.000172
    22  H    0.025621  -0.030313  -0.000132   0.000007  -0.000007   0.000020
    23  H   -0.029295  -0.009571   0.000578  -0.000123   0.000018  -0.000128
    24  H    0.027533  -0.059132  -0.000854   0.000631  -0.000151   0.000230
    25  H    0.027533  -0.059132  -0.000854   0.000631  -0.000151   0.000230
              19         20         21         22         23         24
     1  C   -0.048998   0.007165  -0.001438   0.001116   0.004832   0.025623
     2  C   -0.007257   0.002079  -0.000363   0.000406  -0.002991   0.012406
     3  C    0.051483  -0.004944   0.000412  -0.000365   0.001275  -0.001822
     4  C   -0.060478   0.006684   0.000064  -0.001721   0.006685  -0.013571
     5  C   -0.084915   0.466823  -0.069615   0.018149   0.023806  -0.011077
     6  C    0.050888  -0.083459   0.382299  -0.022393  -0.003883  -0.001182
     7  C   -0.008350   0.003700  -0.023818   0.382748  -0.104159   0.016109
     8  C   -0.042570   0.045598  -0.017644  -0.020019   0.365608   0.038376
     9  C    0.074993  -0.022259  -0.004617   0.001971   0.086626   0.357644
    10  C    0.422858   0.007705   0.019896  -0.010865  -0.007254   0.005689
    11  C    0.084176  -0.012464  -0.006340   0.003502  -0.004514  -0.001327
    12  C   -0.040612  -0.022458   0.005163  -0.010753   0.007802  -0.060089
    13  C    0.076953  -0.010880  -0.025100   0.025621  -0.029295   0.027533
    14  C   -0.092525  -0.044380   0.083162  -0.030313  -0.009571  -0.059132
    15  H    0.000194  -0.000098   0.000009  -0.000132   0.000578  -0.000854
    16  H   -0.000457   0.000010  -0.000007   0.000007  -0.000123   0.000631
    17  H    0.001048  -0.000113   0.000010  -0.000007   0.000018  -0.000151
    18  H   -0.006960   0.001270  -0.000172   0.000020  -0.000128   0.000230
    19  H    0.444254  -0.005635   0.001796  -0.000615   0.000433   0.000614
    20  H   -0.005635   0.446800  -0.009944   0.001978   0.000260   0.000128
    21  H    0.001796  -0.009944   0.418992  -0.007145   0.001700  -0.000130
    22  H   -0.000615   0.001978  -0.007145   0.414952  -0.008767   0.000622
    23  H    0.000433   0.000260   0.001700  -0.008767   0.432696  -0.000925
    24  H    0.000614   0.000128  -0.000130   0.000622  -0.000925   0.493791
    25  H    0.000614   0.000128  -0.000130   0.000622  -0.000925  -0.079895
              25
     1  C    0.025623
     2  C    0.012406
     3  C   -0.001822
     4  C   -0.013571
     5  C   -0.011077
     6  C   -0.001182
     7  C    0.016109
     8  C    0.038376
     9  C    0.357644
    10  C    0.005689
    11  C   -0.001327
    12  C   -0.060089
    13  C    0.027533
    14  C   -0.059132
    15  H   -0.000854
    16  H    0.000631
    17  H   -0.000151
    18  H    0.000230
    19  H    0.000614
    20  H    0.000128
    21  H   -0.000130
    22  H    0.000622
    23  H   -0.000925
    24  H   -0.079895
    25  H    0.493791
 Mulliken charges:
               1
     1  C    0.122129
     2  C   -0.415313
     3  C   -0.444284
     4  C   -0.004372
     5  C    0.038253
     6  C   -0.431623
     7  C   -0.400482
     8  C    0.068996
     9  C   -0.336163
    10  C    0.086099
    11  C   -0.601613
    12  C    0.646693
    13  C   -0.659194
    14  C    0.710589
    15  H    0.234558
    16  H    0.251314
    17  H    0.244931
    18  H    0.218030
    19  H    0.189069
    20  H    0.226308
    21  H    0.252958
    22  H    0.261380
    23  H    0.240217
    24  H    0.250759
    25  H    0.250759
 Sum of Mulliken charges =   1.00000
 Mulliken charges with hydrogens summed into heavy atoms:
               1
     1  C    0.356687
     2  C   -0.163999
     3  C   -0.199353
     4  C    0.213659
     5  C    0.264561
     6  C   -0.178665
     7  C   -0.139101
     8  C    0.309213
     9  C    0.165355
    10  C    0.275168
    11  C   -0.601613
    12  C    0.646693
    13  C   -0.659194
    14  C    0.710589
 Electronic spatial extent (au):  <R**2>=           2855.1948
 Charge=              1.0000 electrons
 Dipole moment (field-independent basis, Debye):
    X=              0.4400    Y=             -1.1832    Z=             -0.0000  Tot=              1.2624
 Quadrupole moment (field-independent basis, Debye-Ang):
   XX=            -51.2916   YY=            -35.9736   ZZ=            -84.1267
   XY=            -10.0861   XZ=             -0.0000   YZ=             -0.0000
 Traceless Quadrupole moment (field-independent basis, Debye-Ang):
   XX=              5.8390   YY=             21.1570   ZZ=            -26.9960
   XY=            -10.0861   XZ=             -0.0000   YZ=             -0.0000
 Octapole moment (field-independent basis, Debye-Ang**2):
  XXX=              4.2163  YYY=             -5.5001  ZZZ=             -0.0000  XYY=              3.3807
  XXY=             -8.6925  XXZ=             -0.0000  XZZ=              3.5702  YZZ=             -0.1777
  YYZ=             -0.0000  XYZ=             -0.0000
 Hexadecapole moment (field-independent basis, Debye-Ang**3):
 XXXX=           -978.3387 YYYY=          -1854.8404 ZZZZ=            -99.2984 XXXY=            345.1765
 XXXZ=             -0.0000 YYYX=            270.5136 YYYZ=              0.0000 ZZZX=              0.0000
 ZZZY=             -0.0000 XXYY=           -455.6191 XXZZ=           -238.8778 YYZZ=           -497.2330
 XXYZ=             -0.0000 YYXZ=             -0.0000 ZZXY=            181.0207
 N-N= 7.814146762443D+02 E-N=-2.799198247535D+03  KE= 5.375500018514D+02
 Symmetry A'   KE= 5.228936664512D+02
 Symmetry A"   KE= 1.465633540011D+01
 Unable to Open any file for archive entry.
 1\1\GINC-GADI-CPU-CLX-1762\SP\RM062X TD-FC\6-311++G(d,p)\C14H11(1+)\TS
 1578\02-Aug-2022\0\\#n M062X/6-311++G(d,p) TD(NStates=1) EmpiricalDisp
 ersion=GD3 SP\\SP_-150\\1,1\C,0,2.522055,1.359531,0.\C,0,3.737808,0.68
 8114,0.\C,0,3.693761,-0.68518,0.\C,0,2.427981,-1.386913,0.\C,0,-2.4981
 81,-1.427863,0.\C,0,-3.673061,-0.74098,0.\C,0,-3.663783,0.656389,0.\C,
 0,-2.460405,1.362231,0.\C,0,0.019725,1.450069,0.\C,0,-0.0549,-1.429039
 ,0.\C,0,1.25373,0.659815,0.\C,0,1.215271,-0.728329,0.\C,0,-1.270155,0.
 69424,0.\C,0,-1.260271,-0.733729,0.\H,0,2.495871,2.443122,0.\H,0,4.673
 353,1.225189,0.\H,0,4.602512,-1.272424,0.\H,0,2.45135,-2.470034,0.\H,0
 ,-0.050625,-2.510191,0.\H,0,-2.4842,-2.509859,0.\H,0,-4.615562,-1.2703
 99,0.\H,0,-4.598428,1.199314,0.\H,0,-2.476971,2.445147,0.\H,0,0.072,2.
 145037,-0.85876\H,0,0.072,2.145037,0.85876\\Version=ES64L-G16RevC.01\S
 tate=1-A'\HF=-539.7513314\RMSD=3.414e-09\PG=CS [SG(C14H9),X(H2)]\\@
 The archive entry for this job was punched.


 WOMEN HOLD UP HALF THE SKY. -- MAO TSE TUNG
 Job cpu time:       0 days  0 hours 56 minutes 30.5 seconds.
 Elapsed time:       0 days  0 hours  1 minutes 16.7 seconds.
 File lengths (MBytes):  RWF=    460 Int=      0 D2E=      0 Chk=     15 Scr=      1
 Normal termination of Gaussian 16 at Tue Aug  2 10:43:22 2022.
