 Entering Gaussian System, Link 0=g16
 Initial command:
 /apps/gaussian/g16c01/g16/l1.exe "/jobfs/53796104.gadi-pbs/Gau-3666723.inp" -scrdir="/jobfs/53796104.gadi-pbs/"
 Entering Link 1 = /apps/gaussian/g16c01/g16/l1.exe PID=   3666724.
  
 Copyright (c) 1988-2019, Gaussian, Inc.  All Rights Reserved.
  
 This is part of the Gaussian(R) 16 program.  It is based on
 the Gaussian(R) 09 system (copyright 2009, Gaussian, Inc.),
 the Gaussian(R) 03 system (copyright 2003, Gaussian, Inc.),
 the Gaussian(R) 98 system (copyright 1998, Gaussian, Inc.),
 the Gaussian(R) 94 system (copyright 1995, Gaussian, Inc.),
 the Gaussian 92(TM) system (copyright 1992, Gaussian, Inc.),
 the Gaussian 90(TM) system (copyright 1990, Gaussian, Inc.),
 the Gaussian 88(TM) system (copyright 1988, Gaussian, Inc.),
 the Gaussian 86(TM) system (copyright 1986, Carnegie Mellon
 University), and the Gaussian 82(TM) system (copyright 1983,
 Carnegie Mellon University). Gaussian is a federally registered
 trademark of Gaussian, Inc.
  
 This software contains proprietary and confidential information,
 including trade secrets, belonging to Gaussian, Inc.
  
 This software is provided under written license and may be
 used, copied, transmitted, or stored only in accord with that
 written license.
  
 The following legend is applicable only to US Government
 contracts under FAR:
  
                    RESTRICTED RIGHTS LEGEND
  
 Use, reproduction and disclosure by the US Government is
 subject to restrictions as set forth in subparagraphs (a)
 and (c) of the Commercial Computer Software - Restricted
 Rights clause in FAR 52.227-19.
  
 Gaussian, Inc.
 340 Quinnipiac St., Bldg. 40, Wallingford CT 06492
  
  
 ---------------------------------------------------------------
 Warning -- This program may not be used in any manner that
 competes with the business of Gaussian, Inc. or will provide
 assistance to any competitor of Gaussian, Inc.  The licensee
 of this program is prohibited from giving any competitor of
 Gaussian, Inc. access to this program.  By using this program,
 the user acknowledges that Gaussian, Inc. is engaged in the
 business of creating and licensing software in the field of
 computational chemistry and represents and warrants to the
 licensee that it is not a competitor of Gaussian, Inc. and that
 it will not use this program in any manner prohibited above.
 ---------------------------------------------------------------
  

 Cite this work as:
 Gaussian 16, Revision C.01,
 M. J. Frisch, G. W. Trucks, H. B. Schlegel, G. E. Scuseria, 
 M. A. Robb, J. R. Cheeseman, G. Scalmani, V. Barone, 
 G. A. Petersson, H. Nakatsuji, X. Li, M. Caricato, A. V. Marenich, 
 J. Bloino, B. G. Janesko, R. Gomperts, B. Mennucci, H. P. Hratchian, 
 J. V. Ortiz, A. F. Izmaylov, J. L. Sonnenberg, D. Williams-Young, 
 F. Ding, F. Lipparini, F. Egidi, J. Goings, B. Peng, A. Petrone, 
 T. Henderson, D. Ranasinghe, V. G. Zakrzewski, J. Gao, N. Rega, 
 G. Zheng, W. Liang, M. Hada, M. Ehara, K. Toyota, R. Fukuda, 
 J. Hasegawa, M. Ishida, T. Nakajima, Y. Honda, O. Kitao, H. Nakai, 
 T. Vreven, K. Throssell, J. A. Montgomery, Jr., J. E. Peralta, 
 F. Ogliaro, M. J. Bearpark, J. J. Heyd, E. N. Brothers, K. N. Kudin, 
 V. N. Staroverov, T. A. Keith, R. Kobayashi, J. Normand, 
 K. Raghavachari, A. P. Rendell, J. C. Burant, S. S. Iyengar, 
 J. Tomasi, M. Cossi, J. M. Millam, M. Klene, C. Adamo, R. Cammi, 
 J. W. Ochterski, R. L. Martin, K. Morokuma, O. Farkas, 
 J. B. Foresman, and D. J. Fox, Gaussian, Inc., Wallingford CT, 2019.
 
 ******************************************
 Gaussian 16:  ES64L-G16RevC.01  3-Jul-2019
                 2-Aug-2022 
 ******************************************
 %NProcShared=48
 Will use up to   48 processors via shared memory.
 %mem = 190GB
 ---------------------------------------------------------------
 #n M062X/6-311++G(d,p) TD(NStates=1) EmpiricalDispersion=GD3 SP
 ---------------------------------------------------------------
 1/38=1,172=1/1;
 2/12=2,17=6,18=5,40=1/2;
 3/5=4,6=6,7=1111,11=9,25=1,30=1,74=-55,124=31/1,2,3,8;
 4//1;
 5/5=2,38=5/2;
 8/6=1,10=2,108=1/1;
 9/41=1,42=1,70=2/14;
 6/7=2,8=2,9=2,10=2/1;
 99/5=1,9=1/99;
 ------
 SP_100
 ------
 Symbolic Z-matrix:
 Charge =  1 Multiplicity = 1
 C                     2.48866   1.35983   0. 
 C                     3.69471   0.66794   0. 
 C                     3.68246  -0.72153   0. 
 C                     2.47111  -1.41239   0. 
 C                    -2.45551  -1.40329   0. 
 C                    -3.68706  -0.70913   0. 
 C                    -3.71116   0.67499   0. 
 C                    -2.50236   1.35923   0. 
 C                    -0.00445   1.45997   0. 
 C                     0.0122   -1.42949   0. 
 C                     1.26411   0.68097   0. 
 C                     1.24187  -0.73095   0. 
 C                    -1.26046   0.67332   0. 
 C                    -1.23187  -0.72975   0. 
 H                     2.48927   2.4429    0. 
 H                     4.63015   1.20769   0. 
 H                     4.61116  -1.274     0. 
 H                     2.47075  -2.49471   0. 
 H                     0.01125  -2.51042   0. 
 H                    -2.46345  -2.48586   0. 
 H                    -4.60826  -1.27445   0. 
 H                    -4.6468    1.21344   0. 
 H                    -2.49347   2.44245   0. 
 H                    -0.016     2.14729  -0.86124 
 H                    -0.016     2.14729   0.86124 
 
                          Input orientation:                          
 ---------------------------------------------------------------------
 Center     Atomic      Atomic             Coordinates (Angstroms)
 Number     Number       Type             X           Y           Z
 ---------------------------------------------------------------------
      1          6           0        2.488655    1.359831    0.000000
      2          6           0        3.694708    0.667939    0.000000
      3          6           0        3.682461   -0.721530    0.000000
      4          6           0        2.471106   -1.412388    0.000000
      5          6           0       -2.455506   -1.403288    0.000000
      6          6           0       -3.687061   -0.709130    0.000000
      7          6           0       -3.711158    0.674989    0.000000
      8          6           0       -2.502355    1.359231    0.000000
      9          6           0       -0.004450    1.459969    0.000000
     10          6           0        0.012200   -1.429489    0.000000
     11          6           0        1.264105    0.680965    0.000000
     12          6           0        1.241871   -0.730954    0.000000
     13          6           0       -1.260455    0.673315    0.000000
     14          6           0       -1.231871   -0.729754    0.000000
     15          1           0        2.489271    2.442897    0.000000
     16          1           0        4.630153    1.207689    0.000000
     17          1           0        4.611162   -1.273999    0.000000
     18          1           0        2.470750   -2.494709    0.000000
     19          1           0        0.011250   -2.510416    0.000000
     20          1           0       -2.463450   -2.485859    0.000000
     21          1           0       -4.608262   -1.274449    0.000000
     22          1           0       -4.646803    1.213439    0.000000
     23          1           0       -2.493471    2.442447    0.000000
     24          1           0       -0.016000    2.147287   -0.861235
     25          1           0       -0.016000    2.147287    0.861235
 ---------------------------------------------------------------------
                    Distance matrix (angstroms):
                    1          2          3          4          5
     1  C    0.000000
     2  C    1.390424   0.000000
     3  C    2.399424   1.389523   0.000000
     4  C    2.772275   2.413496   1.394513   0.000000
     5  C    5.663882   6.489616   6.175713   4.926620   0.000000
     6  C    6.513069   7.509117   7.369532   6.198193   1.413713
     7  C    6.237523   7.405869   7.524352   6.525146   2.428147
     8  C    4.991010   6.235501   6.525451   5.693609   2.762916
     9  C    2.495115   3.782999   4.283953   3.791940   3.769074
    10  C    3.730032   4.237932   3.737917   2.458965   2.467845
    11  C    1.400136   2.430638   2.795610   2.416398   4.263756
    12  C    2.434307   2.823705   2.440608   1.405479   3.758009
    13  C    3.811447   4.955166   5.135953   4.274892   2.395919
    14  C    4.267163   5.121008   4.914339   3.765372   1.396757
    15  H    1.083066   2.145589   3.381908   3.855328   6.264500
    16  H    2.146896   1.079994   2.149420   3.395039   7.551408
    17  H    3.382617   2.147327   1.080605   2.144526   7.067851
    18  H    3.854582   3.391226   2.147652   1.082321   5.045711
    19  H    4.595253   4.865162   4.083859   2.693800   2.703815
    20  H    6.269982   6.918768   6.394144   5.049969   1.082600
    21  H    7.570050   8.527144   8.309140   7.080712   2.156608
    22  H    7.136960   8.359329   8.551067   7.586804   3.413069
    23  H    5.098396   6.437580   6.939228   6.285442   3.845922
    24  H    2.763170   4.086508   4.759249   4.427043   4.393119
    25  H    2.763170   4.086508   4.759249   4.427043   4.393119
                    6          7          8          9         10
     6  C    0.000000
     7  C    1.384329   0.000000
     8  C    2.383620   1.389025   0.000000
     9  C    4.273946   3.788915   2.499936   0.000000
    10  C    3.768746   4.276941   3.754989   2.889506   0.000000
    11  C    5.142607   4.975267   3.827044   1.488650   2.453830
    12  C    4.928980   5.148706   4.288135   2.520607   1.414228
    13  C    2.792771   2.450704   1.418731   1.482017   2.457933
    14  C    2.455277   2.849591   2.444992   2.510269   1.427355
    15  H    6.934144   6.447544   5.107902   2.680446   4.596874
    16  H    8.535235   8.358304   7.134118   4.641464   5.317913
    17  H    8.317426   8.547489   7.585250   5.364555   4.601590
    18  H    6.411469   6.947156   6.291631   4.665415   2.679396
    19  H    4.113652   4.899299   4.614366   3.970416   1.080927
    20  H    2.157311   3.398196   3.845287   4.649327   2.691609
    21  H    1.080832   2.145951   3.372108   5.354636   4.623062
    22  H    2.148808   1.079518   2.149398   4.648894   5.356433
    23  H    3.370029   2.146315   1.083252   2.675909   4.611971
    24  H    4.730490   4.069838   2.746765   1.101937   3.679110
    25  H    4.730490   4.069838   2.746765   1.101937   3.679110
                   11         12         13         14         15
    11  C    0.000000
    12  C    1.412094   0.000000
    13  C    2.524572   2.869426   0.000000
    14  C    2.867058   2.473742   1.403360   0.000000
    15  H    2.146028   3.410181   4.146307   4.890052   0.000000
    16  H    3.407010   3.903689   5.914797   6.173898   2.471662
    17  H    3.876168   3.412773   6.186107   5.868325   4.279923
    18  H    3.397190   2.149645   4.894718   4.101764   4.937641
    19  H    3.428492   2.163542   3.428320   2.171660   5.538583
    20  H    4.891159   4.099890   3.380470   2.144922   6.987280
    21  H    6.189373   5.875325   3.873189   3.420045   8.012093
    22  H    5.934843   6.201383   3.429152   3.929091   7.241210
    23  H    4.149963   4.901352   2.156422   3.413868   4.982742
    24  H    2.128496   3.257029   2.112578   3.239974   2.665613
    25  H    2.128496   3.257029   2.112578   3.239974   2.665613
                   16         17         18         19         20
    16  H    0.000000
    17  H    2.481761   0.000000
    18  H    4.286114   2.464041   0.000000
    19  H    5.929466   4.763184   2.459550   0.000000
    20  H    7.997593   7.177656   4.934208   2.474822   0.000000
    21  H    9.566050   9.219424   7.183415   4.781998   2.463277
    22  H    9.276958   9.586306   8.025579   5.963602   4.295560
    23  H    7.229844   8.017966   7.001357   5.550178   4.928397
    24  H    4.817812   5.818724   5.336083   4.736736   5.310158
    25  H    4.817812   5.818724   5.336083   4.736736   5.310158
                   21         22         23         24         25
    21  H    0.000000
    22  H    2.488187   0.000000
    23  H    4.276407   2.479375   0.000000
    24  H    5.791276   4.801889   2.639452   0.000000
    25  H    5.791276   4.801889   2.639452   1.722470   0.000000
 Stoichiometry    C14H11(1+)
 Framework group  CS[SG(C14H9),X(H2)]
 Deg. of freedom    46
 Full point group                 CS      NOp   2
 Largest Abelian subgroup         CS      NOp   2
 Largest concise Abelian subgroup CS      NOp   2
                         Standard orientation:                         
 ---------------------------------------------------------------------
 Center     Atomic      Atomic             Coordinates (Angstroms)
 Number     Number       Type             X           Y           Z
 ---------------------------------------------------------------------
      1          6           0       -2.372201   -1.554397    0.000000
      2          6           0       -2.330270   -2.944189    0.000000
      3          6           0       -1.098971   -3.588143    0.000000
      4          6           0        0.081198   -2.845266    0.000000
      5          6           0        2.394729    1.504350    0.000000
      6          6           0        2.362817    2.917703    0.000000
      7          6           0        1.153363    3.591192    0.000000
      8          6           0       -0.019768    2.847448    0.000000
      9          6           0       -1.285703    0.691738    0.000000
     10          6           0        1.254986   -0.684541    0.000000
     11          6           0       -1.196391   -0.794231    0.000000
     12          6           0        0.059415   -1.439956    0.000000
     13          6           0        0.000000    1.428855    0.000000
     14          6           0        1.224053    0.742478    0.000000
     15          1           0       -3.327767   -1.044569    0.000000
     16          1           0       -3.247143   -3.514916    0.000000
     17          1           0       -1.049317   -4.667607    0.000000
     18          1           0        1.035985   -3.354972    0.000000
     19          1           0        2.208824   -1.193066    0.000000
     20          1           0        3.353313    1.001219    0.000000
     21          1           0        3.295531    3.463818    0.000000
     22          1           0        1.119347    4.670174    0.000000
     23          1           0       -0.979363    3.350054    0.000000
     24          1           0       -1.886482    1.025809    0.861235
     25          1           0       -1.886482    1.025809   -0.861235
 ---------------------------------------------------------------------
 Rotational constants (GHZ):           2.1340878           0.4442995           0.3685411
 Standard basis: 6-311++G(d,p) (5D, 7F)
 There are   299 symmetry adapted cartesian basis functions of A'  symmetry.
 There are   100 symmetry adapted cartesian basis functions of A"  symmetry.
 There are   285 symmetry adapted basis functions of A'  symmetry.
 There are   100 symmetry adapted basis functions of A"  symmetry.
   385 basis functions,   603 primitive gaussians,   399 cartesian basis functions
    47 alpha electrons       47 beta electrons
       nuclear repulsion energy       780.9025034045 Hartrees.
 NAtoms=   25 NActive=   25 NUniq=   24 SFac= 1.09D+00 NAtFMM=   60 NAOKFM=F Big=F
 Integral buffers will be    131072 words long.
 Regular integral format.
 Two-electron integral symmetry is turned on.
 Nuclear repulsion after empirical dispersion term =      780.9015238435 Hartrees.
 One-electron integrals computed using PRISM.
 NBasis=   385 RedAO= T EigKep=  1.14D-06  NBF=   285   100
 NBsUse=   379 1.00D-06 EigRej=  8.43D-07 NBFU=   279   100
 ExpMin= 3.60D-02 ExpMax= 4.56D+03 ExpMxC= 6.82D+02 IAcc=3 IRadAn=         5 AccDes= 0.00D+00
 Harris functional with IExCor= 1009 and IRadAn=       5 diagonalized for initial guess.
 HarFok:  IExCor= 1009 AccDes= 0.00D+00 IRadAn=         5 IDoV= 1 UseB2=F ITyADJ=14
 ICtDFT=  3500011 ScaDFX=  1.000000  1.000000  1.000000  1.000000
 FoFCou: FMM=F IPFlag=           0 FMFlag=      100000 FMFlg1=           0
         NFxFlg=           0 DoJE=T BraDBF=F KetDBF=T FulRan=T
         wScrn=  0.000000 ICntrl=       500 IOpCl=  0 I1Cent=   200000004 NGrid=           0
         NMat0=    1 NMatS0=      1 NMatT0=    0 NMatD0=    1 NMtDS0=    0 NMtDT0=    0
 Petite list used in FoFCou.
 Initial guess orbital symmetries:
       Occupied  (A') (A') (A') (A') (A') (A') (A') (A') (A') (A')
                 (A') (A') (A') (A') (A') (A') (A') (A') (A') (A')
                 (A') (A') (A') (A') (A') (A') (A') (A') (A') (A')
                 (A') (A') (A") (A') (A') (A') (A') (A') (A') (A")
                 (A") (A') (A') (A") (A") (A") (A")
       Virtual   (A") (A") (A") (A") (A") (A') (A') (A') (A') (A")
                 (A") (A') (A') (A') (A") (A') (A') (A') (A') (A")
                 (A') (A") (A') (A') (A') (A") (A') (A") (A') (A')
                 (A') (A') (A') (A') (A") (A') (A") (A') (A') (A")
                 (A') (A') (A') (A") (A') (A') (A') (A') (A') (A")
                 (A') (A') (A") (A") (A') (A') (A') (A") (A") (A')
                 (A') (A') (A') (A') (A') (A') (A") (A') (A') (A")
                 (A') (A') (A') (A') (A') (A') (A') (A') (A') (A')
                 (A') (A') (A') (A') (A') (A') (A') (A') (A') (A')
                 (A') (A') (A') (A') (A') (A') (A') (A") (A') (A")
                 (A') (A') (A") (A") (A') (A") (A') (A") (A') (A")
                 (A") (A') (A') (A') (A") (A') (A') (A") (A") (A')
                 (A") (A") (A') (A') (A') (A") (A') (A') (A') (A")
                 (A') (A') (A') (A') (A') (A') (A") (A') (A') (A')
                 (A') (A') (A') (A') (A') (A') (A') (A') (A') (A")
                 (A") (A') (A") (A") (A') (A') (A') (A") (A") (A')
                 (A") (A') (A") (A") (A") (A') (A') (A') (A') (A')
                 (A') (A") (A") (A') (A') (A') (A') (A') (A') (A")
                 (A') (A') (A') (A') (A') (A") (A") (A') (A") (A")
                 (A') (A") (A') (A") (A') (A') (A') (A") (A') (A')
                 (A") (A") (A") (A') (A') (A") (A') (A") (A') (A')
                 (A") (A") (A') (A") (A') (A") (A') (A') (A') (A")
                 (A') (A') (A') (A') (A") (A') (A') (A') (A") (A")
                 (A') (A') (A') (A") (A') (A') (A") (A') (A") (A')
                 (A") (A') (A') (A') (A') (A") (A') (A') (A') (A")
                 (A') (A') (A") (A') (A") (A') (A') (A") (A') (A')
                 (A') (A") (A') (A") (A') (A') (A') (A") (A') (A")
                 (A') (A') (A') (A') (A") (A') (A") (A') (A") (A')
                 (A") (A') (A") (A") (A") (A') (A') (A') (A') (A')
                 (A') (A') (A') (A') (A') (A') (A') (A') (A') (A')
                 (A') (A') (A') (A') (A') (A") (A') (A') (A') (A')
                 (A') (A') (A') (A') (A') (A') (A') (A') (A') (A')
                 (A') (A') (A') (A') (A') (A') (A') (A') (A') (A')
                 (A') (A')
 The electronic state of the initial guess is 1-A'.
 Requested convergence on RMS density matrix=1.00D-08 within 128 cycles.
 Requested convergence on MAX density matrix=1.00D-06.
 Requested convergence on             energy=1.00D-06.
 No special actions if energy rises.
 SCF Done:  E(RM062X) =  -539.759820367     A.U. after   15 cycles
            NFock= 15  Conv=0.58D-08     -V/T= 2.0042
 DoSCS=F DFT=T ScalE2(SS,OS)=  1.000000  1.000000
 ExpMin= 3.60D-02 ExpMax= 4.56D+03 ExpMxC= 6.82D+02 IAcc=3 IRadAn=         5 AccDes= 0.00D+00
 HarFok:  IExCor=  205 AccDes= 0.00D+00 IRadAn=         5 IDoV=-2 UseB2=F ITyADJ=14
 ICtDFT= 12500011 ScaDFX=  1.000000  1.000000  1.000000  1.000000
 Range of M.O.s used for correlation:    15   379
 NBasis=   385 NAE=    47 NBE=    47 NFC=    14 NFV=     0
 NROrb=    365 NOA=    33 NOB=    33 NVA=   332 NVB=   332

 **** Warning!!: The largest alpha MO coefficient is  0.14089088D+03

 Orbital symmetries:
       Occupied  (A') (A') (A') (A') (A') (A') (A') (A') (A') (A')
                 (A') (A') (A') (A') (A') (A') (A') (A') (A') (A')
                 (A') (A') (A') (A') (A') (A') (A') (A') (A') (A')
                 (A') (A') (A") (A') (A') (A') (A') (A") (A") (A')
                 (A') (A') (A') (A") (A") (A") (A")
       Virtual   (A") (A") (A") (A") (A') (A') (A') (A') (A") (A')
                 (A') (A") (A') (A') (A") (A') (A") (A') (A') (A')
                 (A") (A") (A') (A') (A') (A") (A') (A") (A') (A')
                 (A") (A') (A") (A') (A') (A') (A') (A') (A") (A')
                 (A") (A') (A') (A") (A") (A') (A") (A') (A") (A')
                 (A') (A') (A') (A') (A') (A") (A') (A') (A') (A')
                 (A') (A") (A') (A') (A') (A') (A") (A') (A') (A')
                 (A') (A') (A') (A') (A') (A') (A') (A') (A') (A')
                 (A') (A') (A') (A') (A') (A') (A') (A') (A') (A')
                 (A') (A') (A') (A') (A") (A') (A") (A") (A') (A")
                 (A') (A') (A') (A') (A") (A") (A') (A") (A") (A')
                 (A') (A') (A") (A') (A') (A") (A') (A") (A') (A")
                 (A") (A') (A") (A') (A') (A') (A") (A') (A') (A')
                 (A') (A') (A') (A') (A') (A') (A') (A') (A') (A')
                 (A') (A') (A') (A") (A') (A') (A') (A') (A') (A')
                 (A') (A') (A") (A') (A") (A') (A") (A") (A') (A")
                 (A") (A') (A') (A") (A") (A") (A') (A") (A') (A')
                 (A') (A') (A') (A") (A") (A') (A') (A') (A') (A")
                 (A') (A') (A') (A") (A') (A") (A') (A') (A") (A")
                 (A") (A') (A') (A") (A") (A') (A') (A') (A') (A')
                 (A") (A") (A") (A') (A') (A") (A') (A") (A') (A')
                 (A') (A") (A') (A") (A") (A') (A") (A') (A') (A")
                 (A') (A') (A') (A') (A") (A') (A') (A') (A") (A")
                 (A') (A') (A') (A") (A') (A') (A') (A") (A") (A')
                 (A") (A') (A') (A") (A') (A') (A') (A') (A') (A')
                 (A") (A') (A') (A') (A') (A") (A") (A") (A') (A')
                 (A') (A') (A') (A') (A') (A') (A") (A') (A') (A')
                 (A') (A") (A') (A") (A") (A") (A') (A") (A') (A")
                 (A') (A") (A") (A') (A") (A") (A') (A') (A') (A')
                 (A') (A') (A') (A') (A') (A') (A') (A') (A') (A')
                 (A') (A') (A') (A") (A') (A') (A') (A') (A') (A')
                 (A') (A') (A') (A') (A') (A') (A') (A') (A') (A')
                 (A') (A') (A') (A') (A') (A') (A') (A') (A') (A')
                 (A') (A')
     4 initial guesses have been made.
 Convergence on wavefunction:    0.001000000000000
 Iteration     1 Dimension     4 NMult     0 NNew      4
 CISAX will form     4 AO SS matrices at one time.
 Iteration     2 Dimension     6 NMult     4 NNew      2
 Iteration     3 Dimension     8 NMult     6 NNew      2
 Iteration     4 Dimension    10 NMult     8 NNew      2
 Iteration     5 Dimension    12 NMult    10 NNew      2
 Iteration     6 Dimension    14 NMult    12 NNew      2
 ***********************************************************************
 Excited states from <AA,BB:AA,BB> singles matrix:
 ***********************************************************************
 
 Ground to excited state transition densities written to RWF  633
 Ground to excited state transition electric dipole moments (Au):
       state          X           Y           Z        Dip. S.      Osc.
         1        -0.5481      0.3062     -0.0000      0.3942      0.0271
 Ground to excited state transition velocity dipole moments (Au):
       state          X           Y           Z        Dip. S.      Osc.
         1         0.0640     -0.0339     -0.0000      0.0052      0.0338
 Ground to excited state transition magnetic dipole moments (Au):
       state          X           Y           Z
         1        -0.0000     -0.0000     -0.0901
 Ground to excited state transition velocity quadrupole moments (Au):
       state          XX          YY          ZZ          XY          XZ          YZ
         1         0.1223      0.2038     -0.0097      0.1276      0.0000     -0.0000
 <0|del|b> * <b|rxdel|0> + <0|del|b> * <b|delr+rdel|0>
 Rotatory Strengths (R) in cgs (10**-40 erg-esu-cm/Gauss)
       state          XX          YY          ZZ    R(velocity)    E-M Angle
         1         0.0000     -0.0000      0.0000      0.0000       90.00
 1/2[<0|r|b>*<b|rxdel|0> + (<0|rxdel|b>*<b|r|0>)*]
 Rotatory Strengths (R) in cgs (10**-40 erg-esu-cm/Gauss)
       state          XX          YY          ZZ     R(length)
         1        -0.0000      0.0000     -0.0000     -0.0000
  1/2[<0|del|b>*<b|r|0> + (<0|r|b>*<b|del|0>)*] (Au)
       state          X           Y           Z        Dip. S.   Osc.(frdel)
         1        -0.0351     -0.0104      0.0000      0.0454      0.0303

 Excitation energies and oscillator strengths:
 
 Excited State   1:      Singlet-A'     2.8089 eV  441.40 nm  f=0.0271  <S**2>=0.000
      47 -> 48         0.70410
 This state for optimization and/or second-order correction.
 Total Energy, E(TD-HF/TD-DFT) =  -539.656596271    
 Copying the excited state density for this state as the 1-particle RhoCI density.
 SavETr:  write IOETrn=   770 NScale= 10 NData=  16 NLR=1 NState=    1 LETran=      28.

 **********************************************************************

            Population analysis using the SCF Density.

 **********************************************************************

 Orbital symmetries:
       Occupied  (A') (A') (A') (A') (A') (A') (A') (A') (A') (A')
                 (A') (A') (A') (A') (A') (A') (A') (A') (A') (A')
                 (A') (A') (A') (A') (A') (A') (A') (A') (A') (A')
                 (A') (A') (A") (A') (A') (A') (A') (A") (A") (A')
                 (A') (A') (A') (A") (A") (A") (A")
       Virtual   (A") (A") (A") (A") (A') (A') (A') (A') (A") (A')
                 (A') (A") (A') (A') (A") (A') (A") (A') (A') (A')
                 (A") (A") (A') (A') (A') (A") (A') (A") (A') (A')
                 (A") (A') (A") (A') (A') (A') (A') (A') (A") (A')
                 (A") (A') (A') (A") (A") (A') (A") (A') (A") (A')
                 (A') (A') (A') (A') (A') (A") (A') (A') (A') (A')
                 (A') (A") (A') (A') (A') (A') (A") (A') (A') (A')
                 (A') (A') (A') (A') (A') (A') (A') (A') (A') (A')
                 (A') (A') (A') (A') (A') (A') (A') (A') (A') (A')
                 (A') (A') (A') (A') (A") (A') (A") (A") (A') (A")
                 (A') (A') (A') (A') (A") (A") (A') (A") (A") (A')
                 (A') (A') (A") (A') (A') (A") (A') (A") (A') (A")
                 (A") (A') (A") (A') (A') (A') (A") (A') (A') (A')
                 (A') (A') (A') (A') (A') (A') (A') (A') (A') (A')
                 (A') (A') (A') (A") (A') (A') (A') (A') (A') (A')
                 (A') (A') (A") (A') (A") (A') (A") (A") (A') (A")
                 (A") (A') (A') (A") (A") (A") (A') (A") (A') (A')
                 (A') (A') (A') (A") (A") (A') (A') (A') (A') (A")
                 (A') (A') (A') (A") (A') (A") (A') (A') (A") (A")
                 (A") (A') (A') (A") (A") (A') (A') (A') (A') (A')
                 (A") (A") (A") (A') (A') (A") (A') (A") (A') (A')
                 (A') (A") (A') (A") (A") (A') (A") (A') (A') (A")
                 (A') (A') (A') (A') (A") (A') (A') (A') (A") (A")
                 (A') (A') (A') (A") (A') (A') (A') (A") (A") (A')
                 (A") (A') (A') (A") (A') (A') (A') (A') (A') (A')
                 (A") (A') (A') (A') (A') (A") (A") (A") (A') (A')
                 (A') (A') (A') (A') (A') (A') (A") (A') (A') (A')
                 (A') (A") (A') (A") (A") (A") (A') (A") (A') (A")
                 (A') (A") (A") (A') (A") (A") (A') (A') (A') (A')
                 (A') (A') (A') (A') (A') (A') (A') (A') (A') (A')
                 (A') (A') (A') (A") (A') (A') (A') (A') (A') (A')
                 (A') (A') (A') (A') (A') (A') (A') (A') (A') (A')
                 (A') (A') (A') (A') (A') (A') (A') (A') (A') (A')
                 (A') (A')
 The electronic state is 1-A'.
 Alpha  occ. eigenvalues --  -10.77673 -10.73424 -10.73133 -10.72563 -10.72329
 Alpha  occ. eigenvalues --  -10.71508 -10.71258 -10.71234 -10.71000 -10.70743
 Alpha  occ. eigenvalues --  -10.70039 -10.69908 -10.69721 -10.69558  -1.16411
 Alpha  occ. eigenvalues --   -1.12441  -1.06945  -1.05676  -1.01311  -1.00157
 Alpha  occ. eigenvalues --   -0.95771  -0.91039  -0.86415  -0.85887  -0.83801
 Alpha  occ. eigenvalues --   -0.78389  -0.76001  -0.74410  -0.69596  -0.69242
 Alpha  occ. eigenvalues --   -0.68476  -0.68167  -0.68113  -0.64777  -0.64259
 Alpha  occ. eigenvalues --   -0.62980  -0.61843  -0.60100  -0.59610  -0.59106
 Alpha  occ. eigenvalues --   -0.56881  -0.55231  -0.54787  -0.52443  -0.46658
 Alpha  occ. eigenvalues --   -0.46067  -0.44459
 Alpha virt. eigenvalues --   -0.26104  -0.14665  -0.14098  -0.12775  -0.11177
 Alpha virt. eigenvalues --   -0.10082  -0.09232  -0.07980  -0.07975  -0.07475
 Alpha virt. eigenvalues --   -0.07198  -0.07141  -0.05645  -0.05579  -0.05331
 Alpha virt. eigenvalues --   -0.03828  -0.03647  -0.03278  -0.03136  -0.02167
 Alpha virt. eigenvalues --   -0.01363  -0.00931   0.00198   0.00592   0.00639
 Alpha virt. eigenvalues --    0.01057   0.01515   0.01946   0.02209   0.02300
 Alpha virt. eigenvalues --    0.02450   0.02667   0.02745   0.03341   0.03399
 Alpha virt. eigenvalues --    0.04242   0.04499   0.04701   0.05035   0.05368
 Alpha virt. eigenvalues --    0.06036   0.06289   0.06593   0.07031   0.07261
 Alpha virt. eigenvalues --    0.07890   0.08150   0.08353   0.08531   0.08927
 Alpha virt. eigenvalues --    0.09533   0.09564   0.10022   0.10847   0.10988
 Alpha virt. eigenvalues --    0.11124   0.12152   0.12239   0.12879   0.12968
 Alpha virt. eigenvalues --    0.13408   0.13527   0.14003   0.14387   0.16131
 Alpha virt. eigenvalues --    0.16313   0.16408   0.17343   0.17606   0.17796
 Alpha virt. eigenvalues --    0.18111   0.19090   0.19257   0.19614   0.19733
 Alpha virt. eigenvalues --    0.21513   0.21585   0.22711   0.23097   0.23543
 Alpha virt. eigenvalues --    0.23868   0.24602   0.25426   0.26920   0.27594
 Alpha virt. eigenvalues --    0.28824   0.29276   0.29835   0.31341   0.35768
 Alpha virt. eigenvalues --    0.36400   0.38190   0.39270   0.41140   0.41398
 Alpha virt. eigenvalues --    0.41931   0.42224   0.42985   0.43649   0.44297
 Alpha virt. eigenvalues --    0.44932   0.45032   0.46057   0.46189   0.47985
 Alpha virt. eigenvalues --    0.48515   0.48831   0.49041   0.50420   0.51053
 Alpha virt. eigenvalues --    0.51451   0.51710   0.52119   0.52858   0.53978
 Alpha virt. eigenvalues --    0.54095   0.54603   0.55682   0.55767   0.57589
 Alpha virt. eigenvalues --    0.58236   0.58819   0.61432   0.62231   0.62338
 Alpha virt. eigenvalues --    0.63195   0.63485   0.64896   0.65144   0.67177
 Alpha virt. eigenvalues --    0.70438   0.70628   0.71011   0.72399   0.72855
 Alpha virt. eigenvalues --    0.75768   0.76013   0.76274   0.76887   0.77093
 Alpha virt. eigenvalues --    0.77829   0.77850   0.78205   0.79904   0.80384
 Alpha virt. eigenvalues --    0.81214   0.81663   0.82165   0.83001   0.85153
 Alpha virt. eigenvalues --    0.87126   0.88123   0.88530   0.89147   0.90409
 Alpha virt. eigenvalues --    0.91016   0.91279   0.93195   0.94609   0.96402
 Alpha virt. eigenvalues --    0.96674   1.00406   1.01252   1.01688   1.02711
 Alpha virt. eigenvalues --    1.03194   1.03708   1.04740   1.05551   1.08743
 Alpha virt. eigenvalues --    1.19530   1.23262   1.24032   1.25136   1.27970
 Alpha virt. eigenvalues --    1.29717   1.31753   1.34364   1.35739   1.35990
 Alpha virt. eigenvalues --    1.39306   1.40100   1.40920   1.43075   1.43432
 Alpha virt. eigenvalues --    1.43504   1.44824   1.45663   1.46341   1.46661
 Alpha virt. eigenvalues --    1.47642   1.47987   1.51662   1.53611   1.55552
 Alpha virt. eigenvalues --    1.55831   1.56327   1.56597   1.57739   1.61386
 Alpha virt. eigenvalues --    1.63268   1.63486   1.63851   1.66072   1.68235
 Alpha virt. eigenvalues --    1.68354   1.68730   1.69768   1.74335   1.75965
 Alpha virt. eigenvalues --    1.77112   1.78048   1.79871   1.80078   1.80686
 Alpha virt. eigenvalues --    1.83097   1.83218   1.83558   1.83830   1.84196
 Alpha virt. eigenvalues --    1.84277   1.85808   1.86109   1.88213   1.91364
 Alpha virt. eigenvalues --    1.92035   1.94093   1.95165   1.97678   1.98121
 Alpha virt. eigenvalues --    1.99697   2.02205   2.04348   2.07263   2.11785
 Alpha virt. eigenvalues --    2.12013   2.14108   2.15228   2.19019   2.21132
 Alpha virt. eigenvalues --    2.22781   2.28694   2.29960   2.34555   2.34894
 Alpha virt. eigenvalues --    2.36227   2.38677   2.39598   2.42336   2.44959
 Alpha virt. eigenvalues --    2.46132   2.46237   2.49309   2.52865   2.53777
 Alpha virt. eigenvalues --    2.54080   2.56905   2.57832   2.58310   2.59597
 Alpha virt. eigenvalues --    2.59819   2.61570   2.62100   2.63509   2.63737
 Alpha virt. eigenvalues --    2.64771   2.65076   2.65183   2.65339   2.67804
 Alpha virt. eigenvalues --    2.68419   2.70930   2.71416   2.73334   2.74804
 Alpha virt. eigenvalues --    2.76303   2.78542   2.79680   2.82703   2.83044
 Alpha virt. eigenvalues --    2.84843   2.86211   2.92076   2.97038   2.99475
 Alpha virt. eigenvalues --    3.00024   3.04783   3.10738   3.11277   3.13116
 Alpha virt. eigenvalues --    3.20801   3.23034   3.26558   3.28168   3.30688
 Alpha virt. eigenvalues --    3.32786   3.33674   3.43445   3.45909   3.46388
 Alpha virt. eigenvalues --    3.48319   3.49990   3.56333   3.66566   3.66608
 Alpha virt. eigenvalues --    3.67404   3.94173   3.94489   3.95252   3.96191
 Alpha virt. eigenvalues --    4.03983   4.06802   4.07403   4.12560   4.35273
 Alpha virt. eigenvalues --    4.60885   4.69674   4.71537  23.45343  23.60401
 Alpha virt. eigenvalues --   23.81968  23.84913  23.87454  23.89062  23.90704
 Alpha virt. eigenvalues --   23.92723  23.97171  23.98748  24.00204  24.01149
 Alpha virt. eigenvalues --   24.10531  24.10778
          Condensed to atoms (all electrons):
               1          2          3          4          5          6
     1  C    8.578310   0.307723  -0.560494   2.012026  -0.040291  -0.093718
     2  C    0.307723   7.192603   0.363730  -1.098147  -0.017738  -0.014328
     3  C   -0.560494   0.363730   6.594159   0.765338  -0.123419   0.016919
     4  C    2.012026  -1.098147   0.765338  11.298637  -0.414150  -0.131462
     5  C   -0.040291  -0.017738  -0.123419  -0.414150  11.062371   0.796900
     6  C   -0.093718  -0.014328   0.016919  -0.131462   0.796900   6.591975
     7  C   -0.017085  -0.000221  -0.013763  -0.002522  -1.157947   0.313831
     8  C    0.400794  -0.008340  -0.099378  -0.064532   2.154121  -0.484808
     9  C   -1.095367  -0.836582   0.300422  -0.115581  -0.242840   0.300099
    10  C   -1.294993   0.235055  -0.324784  -2.653871  -2.538661  -0.373223
    11  C    0.333936  -0.853917   0.965192  -0.326449  -1.487718  -0.154702
    12  C   -2.165954   1.304279  -1.401294  -1.716727  -0.307016  -0.222428
    13  C    0.241549  -0.232142  -0.186837  -1.538341  -0.322658   1.027737
    14  C   -1.104381  -0.217217  -0.174575  -0.373785  -1.713283  -1.448352
    15  H    0.369362  -0.108373  -0.001496   0.027663   0.005753   0.001141
    16  H   -0.019582   0.381366  -0.018783   0.014413  -0.001580  -0.000337
    17  H   -0.024906  -0.017876   0.377208  -0.069491   0.000276   0.000408
    18  H    0.050736   0.003068  -0.084263   0.463640   0.005293  -0.005148
    19  H   -0.045980  -0.007970   0.051571  -0.072568  -0.067061   0.051729
    20  H    0.006950   0.002108  -0.005214   0.005306   0.460114  -0.084456
    21  H   -0.001283  -0.000407   0.000400   0.000367  -0.068442   0.373422
    22  H    0.000645   0.000358  -0.000320  -0.001476   0.012463  -0.016141
    23  H    0.005780  -0.002513   0.001069   0.005217   0.028981  -0.000217
    24  H    0.035265   0.015098  -0.001550  -0.011891  -0.012423  -0.001686
    25  H    0.035265   0.015098  -0.001550  -0.011891  -0.012423  -0.001686
               7          8          9         10         11         12
     1  C   -0.017085   0.400794  -1.095367  -1.294993   0.333936  -2.165954
     2  C   -0.000221  -0.008340  -0.836582   0.235055  -0.853917   1.304279
     3  C   -0.013763  -0.099378   0.300422  -0.324784   0.965192  -1.401294
     4  C   -0.002522  -0.064532  -0.115581  -2.653871  -0.326449  -1.716727
     5  C   -1.157947   2.154121  -0.242840  -2.538661  -1.487718  -0.307016
     6  C    0.313831  -0.484808   0.300099  -0.373223  -0.154702  -0.222428
     7  C    7.196057   0.157654  -0.813042   0.288007  -0.258812  -0.156001
     8  C    0.157654   8.755858  -1.091291  -1.346452   0.267848  -1.079768
     9  C   -0.813042  -1.091291   9.539570   0.267669   1.508299  -1.929624
    10  C    0.288007  -1.346452   0.267669   9.077038  -0.332774   2.407846
    11  C   -0.258812   0.267848   1.508299  -0.332774  14.388067  -3.815010
    12  C   -0.156001  -1.079768  -1.929624   2.407846  -3.815010  16.132583
    13  C   -0.909213   0.325061   1.468700  -0.378904   1.106236  -4.732968
    14  C    1.502080  -2.389166  -1.822115   2.429983  -4.764036   3.191118
    15  H   -0.002687   0.005273   0.089685  -0.009161  -0.030253  -0.021383
    16  H    0.000382   0.000826   0.002291  -0.009342   0.024486  -0.030625
    17  H   -0.000395  -0.001332  -0.005294   0.020164  -0.026179   0.091349
    18  H    0.002132   0.006965  -0.023784   0.008646  -0.005574  -0.055105
    19  H   -0.007725  -0.047230   0.074877   0.421662   0.077345  -0.071489
    20  H    0.002522   0.052644  -0.024767   0.010747  -0.012040  -0.013524
    21  H   -0.013631  -0.028548  -0.005745   0.020230  -0.006225   0.005337
    22  H    0.378706  -0.018607   0.002921  -0.008657   0.002839  -0.008645
    23  H   -0.109034   0.370358   0.091778  -0.010099   0.002957   0.005927
    24  H    0.014258   0.032556   0.354806   0.005139   0.017027  -0.060610
    25  H    0.014258   0.032556   0.354806   0.005139   0.017027  -0.060610
              13         14         15         16         17         18
     1  C    0.241549  -1.104381   0.369362  -0.019582  -0.024906   0.050736
     2  C   -0.232142  -0.217217  -0.108373   0.381366  -0.017876   0.003068
     3  C   -0.186837  -0.174575  -0.001496  -0.018783   0.377208  -0.084263
     4  C   -1.538341  -0.373785   0.027663   0.014413  -0.069491   0.463640
     5  C   -0.322658  -1.713283   0.005753  -0.001580   0.000276   0.005293
     6  C    1.027737  -1.448352   0.001141  -0.000337   0.000408  -0.005148
     7  C   -0.909213   1.502080  -0.002687   0.000382  -0.000395   0.002132
     8  C    0.325061  -2.389166   0.005273   0.000826  -0.001332   0.006965
     9  C    1.468700  -1.822115   0.089685   0.002291  -0.005294  -0.023784
    10  C   -0.378904   2.429983  -0.009161  -0.009342   0.020164   0.008646
    11  C    1.106236  -4.764036  -0.030253   0.024486  -0.026179  -0.005574
    12  C   -4.732968   3.191118  -0.021383  -0.030625   0.091349  -0.055105
    13  C   14.308137  -3.600221  -0.000038   0.003118  -0.006247  -0.012148
    14  C   -3.600221  16.008139   0.006767  -0.009429   0.005317  -0.017186
    15  H   -0.000038   0.006767   0.438074  -0.009079   0.001535   0.000175
    16  H    0.003118  -0.009429  -0.009079   0.418795  -0.006777   0.001947
    17  H   -0.006247   0.005317   0.001535  -0.006777   0.421761  -0.010320
    18  H   -0.012148  -0.017186   0.000175   0.001947  -0.010320   0.452750
    19  H    0.078715  -0.060270   0.000348  -0.000567   0.001515  -0.006154
    20  H   -0.003770  -0.060069  -0.000118   0.000017  -0.000151   0.001241
    21  H   -0.026626   0.094599   0.000015  -0.000007   0.000010  -0.000138
    22  H    0.024767  -0.031498  -0.000127   0.000008  -0.000007   0.000014
    23  H   -0.031452  -0.027952   0.000551  -0.000129   0.000013  -0.000111
    24  H    0.010777  -0.060717  -0.000938   0.000634  -0.000142   0.000178
    25  H    0.010777  -0.060717  -0.000938   0.000634  -0.000142   0.000178
              19         20         21         22         23         24
     1  C   -0.045980   0.006950  -0.001283   0.000645   0.005780   0.035265
     2  C   -0.007970   0.002108  -0.000407   0.000358  -0.002513   0.015098
     3  C    0.051571  -0.005214   0.000400  -0.000320   0.001069  -0.001550
     4  C   -0.072568   0.005306   0.000367  -0.001476   0.005217  -0.011891
     5  C   -0.067061   0.460114  -0.068442   0.012463   0.028981  -0.012423
     6  C    0.051729  -0.084456   0.373422  -0.016141  -0.000217  -0.001686
     7  C   -0.007725   0.002522  -0.013631   0.378706  -0.109034   0.014258
     8  C   -0.047230   0.052644  -0.028548  -0.018607   0.370358   0.032556
     9  C    0.074877  -0.024767  -0.005745   0.002921   0.091778   0.354806
    10  C    0.421662   0.010747   0.020230  -0.008657  -0.010099   0.005139
    11  C    0.077345  -0.012040  -0.006225   0.002839   0.002957   0.017027
    12  C   -0.071489  -0.013524   0.005337  -0.008645   0.005927  -0.060610
    13  C    0.078715  -0.003770  -0.026626   0.024767  -0.031452   0.010777
    14  C   -0.060270  -0.060069   0.094599  -0.031498  -0.027952  -0.060717
    15  H    0.000348  -0.000118   0.000015  -0.000127   0.000551  -0.000938
    16  H   -0.000567   0.000017  -0.000007   0.000008  -0.000129   0.000634
    17  H    0.001515  -0.000151   0.000010  -0.000007   0.000013  -0.000142
    18  H   -0.006154   0.001241  -0.000138   0.000014  -0.000111   0.000178
    19  H    0.442946  -0.006463   0.001348  -0.000531   0.000295   0.000570
    20  H   -0.006463   0.455725  -0.010407   0.001923   0.000123   0.000201
    21  H    0.001348  -0.010407   0.423162  -0.006456   0.001410  -0.000146
    22  H   -0.000531   0.001923  -0.006456   0.420573  -0.009079   0.000636
    23  H    0.000295   0.000123   0.001410  -0.009079   0.441003  -0.000919
    24  H    0.000570   0.000201  -0.000146   0.000636  -0.000919   0.492921
    25  H    0.000570   0.000201  -0.000146   0.000636  -0.000919  -0.078396
              25
     1  C    0.035265
     2  C    0.015098
     3  C   -0.001550
     4  C   -0.011891
     5  C   -0.012423
     6  C   -0.001686
     7  C    0.014258
     8  C    0.032556
     9  C    0.354806
    10  C    0.005139
    11  C    0.017027
    12  C   -0.060610
    13  C    0.010777
    14  C   -0.060717
    15  H   -0.000938
    16  H    0.000634
    17  H   -0.000142
    18  H    0.000178
    19  H    0.000570
    20  H    0.000201
    21  H   -0.000146
    22  H    0.000636
    23  H   -0.000919
    24  H   -0.078396
    25  H    0.492921
 Mulliken charges:
               1
     1  C    0.085695
     2  C   -0.404713
     3  C   -0.438289
     4  C    0.010278
     5  C    0.001380
     6  C   -0.441468
     7  C   -0.407809
     8  C    0.096941
     9  C   -0.349890
    10  C    0.083596
    11  C   -0.637568
    12  C    0.710343
    13  C   -0.624007
    14  C    0.696966
    15  H    0.238250
    16  H    0.257321
    17  H    0.249702
    18  H    0.222970
    19  H    0.190519
    20  H    0.221158
    21  H    0.247908
    22  H    0.255054
    23  H    0.236960
    24  H    0.249352
    25  H    0.249352
 Sum of Mulliken charges =   1.00000
 Mulliken charges with hydrogens summed into heavy atoms:
               1
     1  C    0.323945
     2  C   -0.147392
     3  C   -0.188588
     4  C    0.233248
     5  C    0.222538
     6  C   -0.193560
     7  C   -0.152755
     8  C    0.333902
     9  C    0.148813
    10  C    0.274115
    11  C   -0.637568
    12  C    0.710343
    13  C   -0.624007
    14  C    0.696966
 Electronic spatial extent (au):  <R**2>=           2857.9544
 Charge=              1.0000 electrons
 Dipole moment (field-independent basis, Debye):
    X=              0.0371    Y=             -0.3377    Z=             -0.0000  Tot=              0.3397
 Quadrupole moment (field-independent basis, Debye-Ang):
   XX=            -50.7905   YY=            -36.5577   ZZ=            -84.1424
   XY=             10.3984   XZ=              0.0000   YZ=              0.0000
 Traceless Quadrupole moment (field-independent basis, Debye-Ang):
   XX=              6.3730   YY=             20.6058   ZZ=            -26.9789
   XY=             10.3984   XZ=              0.0000   YZ=              0.0000
 Octapole moment (field-independent basis, Debye-Ang**2):
  XXX=             -0.5069  YYY=              2.7444  ZZZ=             -0.0000  XYY=             -1.1154
  XXY=             -5.9688  XXZ=              0.0000  XZZ=             -2.9389  YZZ=              1.1091
  YYZ=             -0.0000  XYZ=              0.0000
 Hexadecapole moment (field-independent basis, Debye-Ang**3):
 XXXX=           -997.7001 YYYY=          -1843.6227 ZZZZ=            -99.3441 XXXY=           -350.2583
 XXXZ=             -0.0000 YYYX=           -276.9881 YYYZ=             -0.0000 ZZZX=              0.0000
 ZZZY=              0.0000 XXYY=           -453.9414 XXZZ=           -243.9253 YYZZ=           -493.0400
 XXYZ=             -0.0000 YYXZ=             -0.0000 ZZXY=           -184.6205
 N-N= 7.809015238435D+02 E-N=-2.798135587942D+03  KE= 5.374915818920D+02
 Symmetry A'   KE= 5.228439316405D+02
 Symmetry A"   KE= 1.464765025150D+01
 Unable to Open any file for archive entry.
 1\1\GINC-GADI-CPU-CLX-1762\SP\RM062X TD-FC\6-311++G(d,p)\C14H11(1+)\TS
 1578\02-Aug-2022\0\\#n M062X/6-311++G(d,p) TD(NStates=1) EmpiricalDisp
 ersion=GD3 SP\\SP_100\\1,1\C,0,2.488655,1.359831,0.\C,0,3.694708,0.667
 939,0.\C,0,3.682461,-0.72153,0.\C,0,2.471106,-1.412388,0.\C,0,-2.45550
 6,-1.403288,0.\C,0,-3.687061,-0.70913,0.\C,0,-3.711158,0.674989,0.\C,0
 ,-2.502355,1.359231,0.\C,0,-0.00445,1.459969,0.\C,0,0.0122,-1.429489,0
 .\C,0,1.264105,0.680965,0.\C,0,1.241871,-0.730954,0.\C,0,-1.260455,0.6
 73315,0.\C,0,-1.231871,-0.729754,0.\H,0,2.489271,2.442897,0.\H,0,4.630
 153,1.207689,0.\H,0,4.611162,-1.273999,0.\H,0,2.47075,-2.494709,0.\H,0
 ,0.01125,-2.510416,0.\H,0,-2.46345,-2.485859,0.\H,0,-4.608262,-1.27444
 9,0.\H,0,-4.646803,1.213439,0.\H,0,-2.493471,2.442447,0.\H,0,-0.016,2.
 147287,-0.861235\H,0,-0.016,2.147287,0.861235\\Version=ES64L-G16RevC.0
 1\State=1-A'\HF=-539.7598204\RMSD=5.833e-09\PG=CS [SG(C14H9),X(H2)]\\@
 The archive entry for this job was punched.


 AND THIS OUR LIFE, EXEMPT FROM PUBLIC HAUNT,
 FINDS TONGUES IN TREES, BOOKS IN THE RUNNING BROOKS,
 SERMONS IN STONES, AND GOOD IN EVERYTHING.
 I WOULD NOT CHANGE IT. -- W. SHAKESPEARE
 AS YOU LIKE IT, ACT II, SCENE 1.
 Job cpu time:       0 days  0 hours 51 minutes 36.5 seconds.
 Elapsed time:       0 days  0 hours  1 minutes  4.6 seconds.
 File lengths (MBytes):  RWF=    460 Int=      0 D2E=      0 Chk=     15 Scr=      1
 Normal termination of Gaussian 16 at Tue Aug  2 13:05:41 2022.
