 Entering Gaussian System, Link 0=g16
 Initial command:
 /apps/gaussian/g16c01/g16/l1.exe "/jobfs/53796104.gadi-pbs/Gau-3676627.inp" -scrdir="/jobfs/53796104.gadi-pbs/"
 Entering Link 1 = /apps/gaussian/g16c01/g16/l1.exe PID=   3676628.
  
 Copyright (c) 1988-2019, Gaussian, Inc.  All Rights Reserved.
  
 This is part of the Gaussian(R) 16 program.  It is based on
 the Gaussian(R) 09 system (copyright 2009, Gaussian, Inc.),
 the Gaussian(R) 03 system (copyright 2003, Gaussian, Inc.),
 the Gaussian(R) 98 system (copyright 1998, Gaussian, Inc.),
 the Gaussian(R) 94 system (copyright 1995, Gaussian, Inc.),
 the Gaussian 92(TM) system (copyright 1992, Gaussian, Inc.),
 the Gaussian 90(TM) system (copyright 1990, Gaussian, Inc.),
 the Gaussian 88(TM) system (copyright 1988, Gaussian, Inc.),
 the Gaussian 86(TM) system (copyright 1986, Carnegie Mellon
 University), and the Gaussian 82(TM) system (copyright 1983,
 Carnegie Mellon University). Gaussian is a federally registered
 trademark of Gaussian, Inc.
  
 This software contains proprietary and confidential information,
 including trade secrets, belonging to Gaussian, Inc.
  
 This software is provided under written license and may be
 used, copied, transmitted, or stored only in accord with that
 written license.
  
 The following legend is applicable only to US Government
 contracts under FAR:
  
                    RESTRICTED RIGHTS LEGEND
  
 Use, reproduction and disclosure by the US Government is
 subject to restrictions as set forth in subparagraphs (a)
 and (c) of the Commercial Computer Software - Restricted
 Rights clause in FAR 52.227-19.
  
 Gaussian, Inc.
 340 Quinnipiac St., Bldg. 40, Wallingford CT 06492
  
  
 ---------------------------------------------------------------
 Warning -- This program may not be used in any manner that
 competes with the business of Gaussian, Inc. or will provide
 assistance to any competitor of Gaussian, Inc.  The licensee
 of this program is prohibited from giving any competitor of
 Gaussian, Inc. access to this program.  By using this program,
 the user acknowledges that Gaussian, Inc. is engaged in the
 business of creating and licensing software in the field of
 computational chemistry and represents and warrants to the
 licensee that it is not a competitor of Gaussian, Inc. and that
 it will not use this program in any manner prohibited above.
 ---------------------------------------------------------------
  

 Cite this work as:
 Gaussian 16, Revision C.01,
 M. J. Frisch, G. W. Trucks, H. B. Schlegel, G. E. Scuseria, 
 M. A. Robb, J. R. Cheeseman, G. Scalmani, V. Barone, 
 G. A. Petersson, H. Nakatsuji, X. Li, M. Caricato, A. V. Marenich, 
 J. Bloino, B. G. Janesko, R. Gomperts, B. Mennucci, H. P. Hratchian, 
 J. V. Ortiz, A. F. Izmaylov, J. L. Sonnenberg, D. Williams-Young, 
 F. Ding, F. Lipparini, F. Egidi, J. Goings, B. Peng, A. Petrone, 
 T. Henderson, D. Ranasinghe, V. G. Zakrzewski, J. Gao, N. Rega, 
 G. Zheng, W. Liang, M. Hada, M. Ehara, K. Toyota, R. Fukuda, 
 J. Hasegawa, M. Ishida, T. Nakajima, Y. Honda, O. Kitao, H. Nakai, 
 T. Vreven, K. Throssell, J. A. Montgomery, Jr., J. E. Peralta, 
 F. Ogliaro, M. J. Bearpark, J. J. Heyd, E. N. Brothers, K. N. Kudin, 
 V. N. Staroverov, T. A. Keith, R. Kobayashi, J. Normand, 
 K. Raghavachari, A. P. Rendell, J. C. Burant, S. S. Iyengar, 
 J. Tomasi, M. Cossi, J. M. Millam, M. Klene, C. Adamo, R. Cammi, 
 J. W. Ochterski, R. L. Martin, K. Morokuma, O. Farkas, 
 J. B. Foresman, and D. J. Fox, Gaussian, Inc., Wallingford CT, 2019.
 
 ******************************************
 Gaussian 16:  ES64L-G16RevC.01  3-Jul-2019
                 2-Aug-2022 
 ******************************************
 %NProcShared=48
 Will use up to   48 processors via shared memory.
 %mem = 190GB
 ---------------------------------------------------------------
 #n M062X/6-311++G(d,p) TD(NStates=1) EmpiricalDispersion=GD3 SP
 ---------------------------------------------------------------
 1/38=1,172=1/1;
 2/12=2,17=6,18=5,40=1/2;
 3/5=4,6=6,7=1111,11=9,25=1,30=1,74=-55,124=31/1,2,3,8;
 4//1;
 5/5=2,38=5/2;
 8/6=1,10=2,108=1/1;
 9/41=1,42=1,70=2/14;
 6/7=2,8=2,9=2,10=2/1;
 99/5=1,9=1/99;
 ------
 SP_125
 ------
 Symbolic Z-matrix:
 Charge =  1 Multiplicity = 1
 C                     2.49741   1.35893   0. 
 C                     3.70388   0.67111   0. 
 C                     3.68536  -0.71633   0. 
 C                     2.46341  -1.40804   0. 
 C                    -2.46341  -1.40804   0. 
 C                    -3.68536  -0.71633   0. 
 C                    -3.70388   0.67111   0. 
 C                    -2.49741   1.35893   0. 
 C                    -0.00013   1.46437   0. 
 C                     0.       -1.42969   0. 
 C                     1.26243   0.67719   0. 
 C                     1.23647  -0.73005   0. 
 C                    -1.26243   0.67719   0. 
 C                    -1.23647  -0.73005   0. 
 H                     2.49357   2.44202   0. 
 H                     4.63963   1.20981   0. 
 H                     4.61001  -1.27547   0. 
 H                     2.4668   -2.49043   0. 
 H                     0.       -2.51052   0. 
 H                    -2.4668   -2.49043   0. 
 H                    -4.61001  -1.27547   0. 
 H                    -4.63963   1.20981   0. 
 H                    -2.49357   2.44202   0. 
 H                     0.        2.14829  -0.86234 
 H                     0.        2.14829   0.86234 
 
                          Input orientation:                          
 ---------------------------------------------------------------------
 Center     Atomic      Atomic             Coordinates (Angstroms)
 Number     Number       Type             X           Y           Z
 ---------------------------------------------------------------------
      1          6           0        2.497405    1.358931    0.000000
      2          6           0        3.703883    0.671114    0.000000
      3          6           0        3.685361   -0.716330    0.000000
      4          6           0        2.463406   -1.408038    0.000000
      5          6           0       -2.463406   -1.408038    0.000000
      6          6           0       -3.685361   -0.716330    0.000000
      7          6           0       -3.703883    0.671114    0.000000
      8          6           0       -2.497405    1.358931    0.000000
      9          6           0       -0.000125    1.464369    0.000000
     10          6           0        0.000000   -1.429689    0.000000
     11          6           0        1.262430    0.677190    0.000000
     12          6           0        1.236471   -0.730054    0.000000
     13          6           0       -1.262430    0.677190    0.000000
     14          6           0       -1.236471   -0.730054    0.000000
     15          1           0        2.493571    2.442022    0.000000
     16          1           0        4.639628    1.209814    0.000000
     17          1           0        4.610012   -1.275474    0.000000
     18          1           0        2.466800   -2.490434    0.000000
     19          1           0        0.000000   -2.510516    0.000000
     20          1           0       -2.466800   -2.490434    0.000000
     21          1           0       -4.610012   -1.275474    0.000000
     22          1           0       -4.639628    1.209814    0.000000
     23          1           0       -2.493571    2.442022    0.000000
     24          1           0        0.000000    2.148287   -0.862335
     25          1           0        0.000000    2.148287    0.862335
 ---------------------------------------------------------------------
                    Distance matrix (angstroms):
                    1          2          3          4          5
     1  C    0.000000
     2  C    1.388770   0.000000
     3  C    2.391223   1.387568   0.000000
     4  C    2.767178   2.421086   1.404149   0.000000
     5  C    5.680296   6.508327   6.187552   4.926812   0.000000
     6  C    6.521756   7.518373   7.370722   6.187552   1.404149
     7  C    6.239316   7.407766   7.518373   6.508327   2.421086
     8  C    4.994810   6.239316   6.521756   5.680296   2.767178
     9  C    2.499755   3.787998   4.282319   3.784139   3.783976
    10  C    3.743452   4.258183   3.753767   2.463501   2.463501
    11  C    1.410650   2.441461   2.795084   2.406350   4.269664
    12  C    2.440044   2.837498   2.448928   1.401796   3.761483
    13  C    3.821143   4.966317   5.140285   4.269664   2.406350
    14  C    4.278515   5.135209   4.921851   3.761483   1.401796
    15  H    1.083098   2.144987   3.375730   3.850178   6.276510
    16  H    2.147407   1.079730   2.149571   3.404275   7.570089
    17  H    3.376862   2.147155   1.080565   2.150695   7.074660
    18  H    3.849487   3.394961   2.152286   1.082401   5.047624
    19  H    4.605394   4.882778   4.098901   2.698857   2.698857
    20  H    6.281795   6.933449   6.402853   5.047624   1.082401
    21  H    7.579938   8.538738   8.314196   7.074660   2.150695
    22  H    7.138591   8.360884   8.544909   7.570089   3.404275
    23  H    5.107145   6.445506   6.939336   6.276510   3.850178
    24  H    2.757487   4.079756   4.746740   4.411285   4.411285
    25  H    2.757487   4.079756   4.746740   4.411285   4.411285
                    6          7          8          9         10
     6  C    0.000000
     7  C    1.387568   0.000000
     8  C    2.391223   1.388770   0.000000
     9  C    4.282104   3.787754   2.499505   0.000000
    10  C    3.753767   4.258183   3.743452   2.894058   0.000000
    11  C    5.140285   4.966317   3.821143   1.487849   2.456149
    12  C    4.921851   5.135209   4.278515   2.518861   1.420686
    13  C    2.795084   2.441461   1.410650   1.487637   2.456149
    14  C    2.448928   2.837498   2.440044   2.518739   1.420686
    15  H    6.939336   6.445506   5.107145   2.678493   4.605219
    16  H    8.544909   8.360884   7.138591   4.646731   5.337895
    17  H    8.314196   8.538738   7.579938   5.362845   4.612591
    18  H    6.402853   6.933449   6.281795   4.661136   2.685197
    19  H    4.098901   4.882778   4.605394   3.974885   1.080827
    20  H    2.152286   3.394961   3.849487   4.661003   2.685197
    21  H    1.080565   2.147155   3.376862   5.362630   4.612591
    22  H    2.149571   1.079730   2.147407   4.646481   5.337895
    23  H    3.375730   2.144987   1.083098   2.678260   4.605219
    24  H    4.746740   4.079756   2.757487   1.100621   3.680426
    25  H    4.746740   4.079756   2.757487   1.100621   3.680426
                   11         12         13         14         15
    11  C    0.000000
    12  C    1.407483   0.000000
    13  C    2.524860   2.867899   0.000000
    14  C    2.867899   2.472942   1.407483   0.000000
    15  H    2.151823   3.412091   4.149961   4.896456   0.000000
    16  H    3.418941   3.917214   5.926042   6.188023   2.474651
    17  H    3.875462   3.417347   6.188576   5.871869   4.277745
    18  H    3.388857   2.147707   4.892954   4.100385   4.932529
    19  H    3.428586   2.167696   3.428586   2.167696   5.544865
    20  H    4.892954   4.100385   3.388857   2.147707   6.995313
    21  H    6.188576   5.871869   3.875462   3.417347   8.017523
    22  H    5.926042   6.188023   3.418941   3.917214   7.238844
    23  H    4.149961   4.896456   2.151823   3.412091   4.987142
    24  H    2.121669   3.249204   2.121669   3.249204   2.654769
    25  H    2.121669   3.249204   2.121669   3.249204   2.654769
                   16         17         18         19         20
    16  H    0.000000
    17  H    2.485464   0.000000
    18  H    4.291039   2.463633   0.000000
    19  H    5.947016   4.772582   2.466882   0.000000
    20  H    8.012063   7.180348   4.933600   2.466882   0.000000
    21  H    9.577708   9.220024   7.180348   4.772582   2.463633
    22  H    9.279256   9.577708   8.012063   5.947016   4.291039
    23  H    7.238844   8.017523   6.995313   5.544865   4.932529
    24  H    4.811497   5.806718   5.324139   4.737939   5.324139
    25  H    4.811497   5.806718   5.324139   4.737939   5.324139
                   21         22         23         24         25
    21  H    0.000000
    22  H    2.485464   0.000000
    23  H    4.277745   2.474651   0.000000
    24  H    5.806718   4.811497   2.654769   0.000000
    25  H    5.806718   4.811497   2.654769   1.724670   0.000000
 Stoichiometry    C14H11(1+)
 Framework group  CS[SG(C14H9),X(H2)]
 Deg. of freedom    46
 Full point group                 CS      NOp   2
 Largest Abelian subgroup         CS      NOp   2
 Largest concise Abelian subgroup CS      NOp   2
                         Standard orientation:                         
 ---------------------------------------------------------------------
 Center     Atomic      Atomic             Coordinates (Angstroms)
 Number     Number       Type             X           Y           Z
 ---------------------------------------------------------------------
      1          6           0        1.358934    2.497413    0.000000
      2          6           0        0.671117    3.703891    0.000000
      3          6           0       -0.716327    3.685369    0.000000
      4          6           0       -1.408035    2.463414    0.000000
      5          6           0       -1.408035   -2.463398    0.000000
      6          6           0       -0.716327   -3.685353    0.000000
      7          6           0        0.671117   -3.703875    0.000000
      8          6           0        1.358934   -2.497397    0.000000
      9          6           0        1.464372   -0.000117    0.000000
     10          6           0       -1.429686    0.000008    0.000000
     11          6           0        0.677193    1.262438    0.000000
     12          6           0       -0.730051    1.236479    0.000000
     13          6           0        0.677193   -1.262422    0.000000
     14          6           0       -0.730051   -1.236463    0.000000
     15          1           0        2.442025    2.493579    0.000000
     16          1           0        1.209817    4.639636    0.000000
     17          1           0       -1.275471    4.610020    0.000000
     18          1           0       -2.490431    2.466808    0.000000
     19          1           0       -2.510513    0.000008    0.000000
     20          1           0       -2.490431   -2.466792    0.000000
     21          1           0       -1.275471   -4.610004    0.000000
     22          1           0        1.209817   -4.639620    0.000000
     23          1           0        2.442025   -2.493563    0.000000
     24          1           0        2.148290    0.000008    0.862335
     25          1           0        2.148290    0.000008   -0.862335
 ---------------------------------------------------------------------
 Rotational constants (GHZ):           2.1326138           0.4440899           0.3683549
 Standard basis: 6-311++G(d,p) (5D, 7F)
 There are   299 symmetry adapted cartesian basis functions of A'  symmetry.
 There are   100 symmetry adapted cartesian basis functions of A"  symmetry.
 There are   285 symmetry adapted basis functions of A'  symmetry.
 There are   100 symmetry adapted basis functions of A"  symmetry.
   385 basis functions,   603 primitive gaussians,   399 cartesian basis functions
    47 alpha electrons       47 beta electrons
       nuclear repulsion energy       780.7002063471 Hartrees.
 NAtoms=   25 NActive=   25 NUniq=   24 SFac= 1.09D+00 NAtFMM=   60 NAOKFM=F Big=F
 Integral buffers will be    131072 words long.
 Regular integral format.
 Two-electron integral symmetry is turned on.
 Nuclear repulsion after empirical dispersion term =      780.6992266954 Hartrees.
 One-electron integrals computed using PRISM.
 NBasis=   385 RedAO= T EigKep=  1.15D-06  NBF=   285   100
 NBsUse=   379 1.00D-06 EigRej=  8.45D-07 NBFU=   279   100
 ExpMin= 3.60D-02 ExpMax= 4.56D+03 ExpMxC= 6.82D+02 IAcc=3 IRadAn=         5 AccDes= 0.00D+00
 Harris functional with IExCor= 1009 and IRadAn=       5 diagonalized for initial guess.
 HarFok:  IExCor= 1009 AccDes= 0.00D+00 IRadAn=         5 IDoV= 1 UseB2=F ITyADJ=14
 ICtDFT=  3500011 ScaDFX=  1.000000  1.000000  1.000000  1.000000
 FoFCou: FMM=F IPFlag=           0 FMFlag=      100000 FMFlg1=           0
         NFxFlg=           0 DoJE=T BraDBF=F KetDBF=T FulRan=T
         wScrn=  0.000000 ICntrl=       500 IOpCl=  0 I1Cent=   200000004 NGrid=           0
         NMat0=    1 NMatS0=      1 NMatT0=    0 NMatD0=    1 NMtDS0=    0 NMtDT0=    0
 Petite list used in FoFCou.
 Initial guess orbital symmetries:
       Occupied  (A') (A') (A') (A') (A') (A') (A') (A') (A') (A')
                 (A') (A') (A') (A') (A') (A') (A') (A') (A') (A')
                 (A') (A') (A') (A') (A') (A') (A') (A') (A') (A')
                 (A') (A') (A") (A') (A') (A') (A') (A') (A') (A")
                 (A") (A') (A') (A") (A") (A") (A")
       Virtual   (A") (A") (A") (A") (A") (A') (A') (A') (A') (A")
                 (A") (A') (A') (A') (A") (A') (A') (A') (A') (A")
                 (A') (A") (A') (A') (A') (A") (A') (A") (A') (A')
                 (A') (A') (A') (A') (A") (A') (A") (A') (A') (A")
                 (A') (A') (A') (A") (A') (A') (A') (A') (A') (A")
                 (A') (A') (A") (A") (A') (A') (A') (A") (A") (A')
                 (A') (A') (A') (A') (A') (A') (A") (A') (A') (A")
                 (A') (A') (A') (A') (A') (A') (A') (A') (A') (A')
                 (A') (A') (A') (A') (A') (A') (A') (A') (A') (A')
                 (A') (A') (A') (A') (A') (A') (A') (A") (A') (A")
                 (A') (A') (A") (A") (A') (A") (A') (A") (A') (A")
                 (A") (A') (A') (A') (A") (A') (A') (A") (A') (A")
                 (A") (A") (A') (A') (A') (A") (A') (A') (A') (A")
                 (A') (A') (A') (A') (A') (A') (A") (A') (A') (A')
                 (A') (A') (A') (A') (A') (A') (A') (A') (A') (A")
                 (A') (A") (A") (A") (A') (A') (A') (A") (A") (A')
                 (A") (A') (A") (A") (A") (A') (A') (A') (A') (A')
                 (A') (A") (A") (A') (A') (A') (A') (A') (A') (A")
                 (A') (A') (A') (A') (A') (A") (A") (A') (A") (A")
                 (A') (A") (A') (A") (A') (A') (A') (A") (A') (A')
                 (A") (A") (A") (A') (A') (A") (A') (A") (A') (A')
                 (A") (A") (A') (A") (A') (A") (A') (A') (A') (A')
                 (A") (A') (A') (A') (A") (A') (A') (A') (A") (A")
                 (A') (A') (A') (A") (A') (A') (A") (A') (A") (A')
                 (A") (A') (A') (A') (A') (A") (A') (A') (A') (A")
                 (A') (A') (A") (A') (A") (A') (A') (A") (A') (A')
                 (A') (A") (A') (A") (A') (A') (A') (A") (A') (A")
                 (A') (A') (A') (A') (A") (A') (A") (A') (A") (A')
                 (A") (A') (A") (A") (A") (A') (A') (A') (A') (A')
                 (A') (A') (A') (A') (A') (A') (A') (A') (A') (A')
                 (A') (A') (A') (A') (A') (A") (A') (A') (A') (A')
                 (A') (A') (A') (A') (A') (A') (A') (A') (A') (A')
                 (A') (A') (A') (A') (A') (A') (A') (A') (A') (A')
                 (A') (A')
 The electronic state of the initial guess is 1-A'.
 Requested convergence on RMS density matrix=1.00D-08 within 128 cycles.
 Requested convergence on MAX density matrix=1.00D-06.
 Requested convergence on             energy=1.00D-06.
 No special actions if energy rises.
 SCF Done:  E(RM062X) =  -539.760258657     A.U. after   14 cycles
            NFock= 14  Conv=0.98D-08     -V/T= 2.0042
 DoSCS=F DFT=T ScalE2(SS,OS)=  1.000000  1.000000
 ExpMin= 3.60D-02 ExpMax= 4.56D+03 ExpMxC= 6.82D+02 IAcc=3 IRadAn=         5 AccDes= 0.00D+00
 HarFok:  IExCor=  205 AccDes= 0.00D+00 IRadAn=         5 IDoV=-2 UseB2=F ITyADJ=14
 ICtDFT= 12500011 ScaDFX=  1.000000  1.000000  1.000000  1.000000
 Range of M.O.s used for correlation:    15   379
 NBasis=   385 NAE=    47 NBE=    47 NFC=    14 NFV=     0
 NROrb=    365 NOA=    33 NOB=    33 NVA=   332 NVB=   332

 **** Warning!!: The largest alpha MO coefficient is  0.14779712D+03

 Orbital symmetries:
       Occupied  (A') (A') (A') (A') (A') (A') (A') (A') (A') (A')
                 (A') (A') (A') (A') (A') (A') (A') (A') (A') (A')
                 (A') (A') (A') (A') (A') (A') (A') (A') (A') (A')
                 (A') (A') (A") (A') (A') (A') (A') (A") (A") (A')
                 (A') (A') (A') (A") (A") (A") (A")
       Virtual   (A") (A") (A") (A") (A') (A') (A') (A") (A') (A')
                 (A') (A") (A') (A') (A") (A') (A") (A') (A') (A')
                 (A") (A") (A') (A') (A') (A") (A') (A") (A') (A')
                 (A") (A') (A") (A') (A') (A') (A') (A') (A") (A')
                 (A") (A') (A') (A") (A") (A') (A") (A') (A") (A')
                 (A') (A') (A') (A') (A') (A") (A') (A') (A') (A')
                 (A') (A") (A') (A') (A') (A') (A") (A') (A') (A')
                 (A') (A') (A') (A') (A') (A') (A') (A') (A') (A')
                 (A') (A') (A') (A') (A') (A') (A') (A') (A') (A')
                 (A') (A') (A') (A') (A") (A') (A") (A") (A') (A")
                 (A') (A') (A') (A') (A") (A") (A') (A") (A") (A')
                 (A') (A') (A") (A') (A') (A") (A') (A") (A') (A")
                 (A") (A') (A") (A') (A') (A') (A") (A') (A') (A')
                 (A') (A') (A') (A') (A') (A') (A') (A') (A') (A')
                 (A') (A') (A') (A") (A') (A') (A') (A') (A') (A')
                 (A') (A') (A") (A') (A") (A') (A") (A") (A') (A")
                 (A") (A') (A') (A") (A") (A") (A') (A") (A') (A')
                 (A') (A') (A') (A") (A") (A') (A') (A') (A') (A")
                 (A') (A') (A') (A") (A') (A") (A') (A') (A") (A")
                 (A") (A') (A') (A") (A") (A') (A') (A') (A') (A')
                 (A") (A") (A") (A') (A') (A") (A') (A") (A') (A')
                 (A') (A") (A') (A") (A") (A') (A") (A') (A') (A")
                 (A') (A') (A') (A') (A") (A') (A') (A') (A") (A")
                 (A') (A') (A') (A") (A') (A') (A') (A") (A") (A')
                 (A") (A') (A') (A") (A') (A') (A') (A') (A') (A')
                 (A') (A") (A') (A') (A') (A") (A") (A") (A') (A')
                 (A') (A') (A') (A') (A') (A') (A") (A') (A') (A')
                 (A') (A") (A') (A") (A") (A") (A') (A") (A') (A")
                 (A') (A") (A") (A') (A") (A") (A') (A') (A') (A')
                 (A') (A') (A') (A') (A') (A') (A') (A') (A') (A')
                 (A') (A') (A') (A') (A") (A') (A') (A') (A') (A')
                 (A') (A') (A') (A') (A') (A') (A') (A') (A') (A')
                 (A') (A') (A') (A') (A') (A') (A') (A') (A') (A')
                 (A') (A')
     4 initial guesses have been made.
 Convergence on wavefunction:    0.001000000000000
 Iteration     1 Dimension     4 NMult     0 NNew      4
 CISAX will form     4 AO SS matrices at one time.
 Iteration     2 Dimension     6 NMult     4 NNew      2
 Iteration     3 Dimension     8 NMult     6 NNew      2
 Iteration     4 Dimension    10 NMult     8 NNew      2
 Iteration     5 Dimension    12 NMult    10 NNew      2
 Iteration     6 Dimension    14 NMult    12 NNew      2
 ***********************************************************************
 Excited states from <AA,BB:AA,BB> singles matrix:
 ***********************************************************************
 
 Ground to excited state transition densities written to RWF  633
 Ground to excited state transition electric dipole moments (Au):
       state          X           Y           Z        Dip. S.      Osc.
         1         0.6384     -0.0000      0.0000      0.4076      0.0282
 Ground to excited state transition velocity dipole moments (Au):
       state          X           Y           Z        Dip. S.      Osc.
         1        -0.0739      0.0000     -0.0000      0.0055      0.0351
 Ground to excited state transition magnetic dipole moments (Au):
       state          X           Y           Z
         1        -0.0000      0.0000     -0.0001
 Ground to excited state transition velocity quadrupole moments (Au):
       state          XX          YY          ZZ          XY          XZ          YZ
         1         0.0359      0.3004     -0.0099      0.0000     -0.0000      0.0000
 <0|del|b> * <b|rxdel|0> + <0|del|b> * <b|delr+rdel|0>
 Rotatory Strengths (R) in cgs (10**-40 erg-esu-cm/Gauss)
       state          XX          YY          ZZ    R(velocity)    E-M Angle
         1         0.0000     -0.0000      0.0000      0.0000       90.00
 1/2[<0|r|b>*<b|rxdel|0> + (<0|rxdel|b>*<b|r|0>)*]
 Rotatory Strengths (R) in cgs (10**-40 erg-esu-cm/Gauss)
       state          XX          YY          ZZ     R(length)
         1         0.0000      0.0000      0.0000      0.0000
  1/2[<0|del|b>*<b|r|0> + (<0|r|b>*<b|del|0>)*] (Au)
       state          X           Y           Z        Dip. S.   Osc.(frdel)
         1        -0.0472     -0.0000     -0.0000      0.0472      0.0315

 Excitation energies and oscillator strengths:
 
 Excited State   1:      Singlet-A'     2.8237 eV  439.08 nm  f=0.0282  <S**2>=0.000
      47 -> 48         0.70426
 This state for optimization and/or second-order correction.
 Total Energy, E(TD-HF/TD-DFT) =  -539.656488716    
 Copying the excited state density for this state as the 1-particle RhoCI density.
 SavETr:  write IOETrn=   770 NScale= 10 NData=  16 NLR=1 NState=    1 LETran=      28.

 **********************************************************************

            Population analysis using the SCF Density.

 **********************************************************************

 Orbital symmetries:
       Occupied  (A') (A') (A') (A') (A') (A') (A') (A') (A') (A')
                 (A') (A') (A') (A') (A') (A') (A') (A') (A') (A')
                 (A') (A') (A') (A') (A') (A') (A') (A') (A') (A')
                 (A') (A') (A") (A') (A') (A') (A') (A") (A") (A')
                 (A') (A') (A') (A") (A") (A") (A")
       Virtual   (A") (A") (A") (A") (A') (A') (A') (A") (A') (A')
                 (A') (A") (A') (A') (A") (A') (A") (A') (A') (A')
                 (A") (A") (A') (A') (A') (A") (A') (A") (A') (A')
                 (A") (A') (A") (A') (A') (A') (A') (A') (A") (A')
                 (A") (A') (A') (A") (A") (A') (A") (A') (A") (A')
                 (A') (A') (A') (A') (A') (A") (A') (A') (A') (A')
                 (A') (A") (A') (A') (A') (A') (A") (A') (A') (A')
                 (A') (A') (A') (A') (A') (A') (A') (A') (A') (A')
                 (A') (A') (A') (A') (A') (A') (A') (A') (A') (A')
                 (A') (A') (A') (A') (A") (A') (A") (A") (A') (A")
                 (A') (A') (A') (A') (A") (A") (A') (A") (A") (A')
                 (A') (A') (A") (A') (A') (A") (A') (A") (A') (A")
                 (A") (A') (A") (A') (A') (A') (A") (A') (A') (A')
                 (A') (A') (A') (A') (A') (A') (A') (A') (A') (A')
                 (A') (A') (A') (A") (A') (A') (A') (A') (A') (A')
                 (A') (A') (A") (A') (A") (A') (A") (A") (A') (A")
                 (A") (A') (A') (A") (A") (A") (A') (A") (A') (A')
                 (A') (A') (A') (A") (A") (A') (A') (A') (A') (A")
                 (A') (A') (A') (A") (A') (A") (A') (A') (A") (A")
                 (A") (A') (A') (A") (A") (A') (A') (A') (A') (A')
                 (A") (A") (A") (A') (A') (A") (A') (A") (A') (A')
                 (A') (A") (A') (A") (A") (A') (A") (A') (A') (A")
                 (A') (A') (A') (A') (A") (A') (A') (A') (A") (A")
                 (A') (A') (A') (A") (A') (A') (A') (A") (A") (A')
                 (A") (A') (A') (A") (A') (A') (A') (A') (A') (A')
                 (A') (A") (A') (A') (A') (A") (A") (A") (A') (A')
                 (A') (A') (A') (A') (A') (A') (A") (A') (A') (A')
                 (A') (A") (A') (A") (A") (A") (A') (A") (A') (A")
                 (A') (A") (A") (A') (A") (A") (A') (A') (A') (A')
                 (A') (A') (A') (A') (A') (A') (A') (A') (A') (A')
                 (A') (A') (A') (A') (A") (A') (A') (A') (A') (A')
                 (A') (A') (A') (A') (A') (A') (A') (A') (A') (A')
                 (A') (A') (A') (A') (A') (A') (A') (A') (A') (A')
                 (A') (A')
 The electronic state is 1-A'.
 Alpha  occ. eigenvalues --  -10.77687 -10.73307 -10.73306 -10.72458 -10.72457
 Alpha  occ. eigenvalues --  -10.71375 -10.71375 -10.71015 -10.70994 -10.70994
 Alpha  occ. eigenvalues --  -10.69974 -10.69974 -10.69647 -10.69647  -1.16379
 Alpha  occ. eigenvalues --   -1.12423  -1.06946  -1.05626  -1.01312  -1.00110
 Alpha  occ. eigenvalues --   -0.95791  -0.91031  -0.86410  -0.85878  -0.83796
 Alpha  occ. eigenvalues --   -0.78389  -0.75968  -0.74411  -0.69590  -0.69230
 Alpha  occ. eigenvalues --   -0.68483  -0.68167  -0.68123  -0.64724  -0.64256
 Alpha  occ. eigenvalues --   -0.62970  -0.61860  -0.60076  -0.59650  -0.59106
 Alpha  occ. eigenvalues --   -0.56864  -0.55231  -0.54790  -0.52446  -0.46588
 Alpha  occ. eigenvalues --   -0.46055  -0.44537
 Alpha virt. eigenvalues --   -0.26113  -0.14663  -0.14100  -0.12778  -0.11175
 Alpha virt. eigenvalues --   -0.10078  -0.09230  -0.07983  -0.07982  -0.07474
 Alpha virt. eigenvalues --   -0.07195  -0.07140  -0.05646  -0.05578  -0.05328
 Alpha virt. eigenvalues --   -0.03826  -0.03644  -0.03278  -0.03138  -0.02169
 Alpha virt. eigenvalues --   -0.01363  -0.00928   0.00203   0.00592   0.00626
 Alpha virt. eigenvalues --    0.01053   0.01517   0.01951   0.02210   0.02306
 Alpha virt. eigenvalues --    0.02449   0.02666   0.02738   0.03363   0.03409
 Alpha virt. eigenvalues --    0.04245   0.04495   0.04701   0.05036   0.05366
 Alpha virt. eigenvalues --    0.06040   0.06285   0.06592   0.07021   0.07265
 Alpha virt. eigenvalues --    0.07887   0.08154   0.08347   0.08512   0.08929
 Alpha virt. eigenvalues --    0.09538   0.09555   0.10018   0.10838   0.10965
 Alpha virt. eigenvalues --    0.11127   0.12148   0.12233   0.12913   0.12926
 Alpha virt. eigenvalues --    0.13400   0.13527   0.13998   0.14397   0.16155
 Alpha virt. eigenvalues --    0.16259   0.16443   0.17343   0.17611   0.17792
 Alpha virt. eigenvalues --    0.18103   0.19107   0.19243   0.19609   0.19703
 Alpha virt. eigenvalues --    0.21492   0.21571   0.22709   0.23075   0.23529
 Alpha virt. eigenvalues --    0.23889   0.24626   0.25484   0.26919   0.27584
 Alpha virt. eigenvalues --    0.28808   0.29268   0.29809   0.31330   0.35738
 Alpha virt. eigenvalues --    0.36377   0.38193   0.39267   0.41142   0.41408
 Alpha virt. eigenvalues --    0.41906   0.42246   0.42986   0.43621   0.44286
 Alpha virt. eigenvalues --    0.44980   0.44989   0.46090   0.46142   0.48017
 Alpha virt. eigenvalues --    0.48522   0.48816   0.49050   0.50405   0.50988
 Alpha virt. eigenvalues --    0.51462   0.51621   0.52118   0.52843   0.53961
 Alpha virt. eigenvalues --    0.54094   0.54583   0.55687   0.55751   0.57662
 Alpha virt. eigenvalues --    0.58237   0.58804   0.61417   0.62250   0.62323
 Alpha virt. eigenvalues --    0.63189   0.63482   0.64854   0.65136   0.67100
 Alpha virt. eigenvalues --    0.70458   0.70672   0.70972   0.72377   0.72841
 Alpha virt. eigenvalues --    0.75798   0.75999   0.76240   0.76906   0.77084
 Alpha virt. eigenvalues --    0.77806   0.77825   0.78178   0.79915   0.80377
 Alpha virt. eigenvalues --    0.81192   0.81696   0.82139   0.82996   0.85125
 Alpha virt. eigenvalues --    0.87115   0.88088   0.88546   0.89139   0.90371
 Alpha virt. eigenvalues --    0.90972   0.91275   0.93184   0.94600   0.96407
 Alpha virt. eigenvalues --    0.96645   1.00437   1.01229   1.01711   1.02694
 Alpha virt. eigenvalues --    1.03182   1.03791   1.04725   1.05453   1.08713
 Alpha virt. eigenvalues --    1.19508   1.23305   1.23992   1.25205   1.27791
 Alpha virt. eigenvalues --    1.29796   1.31671   1.34405   1.35721   1.35986
 Alpha virt. eigenvalues --    1.39278   1.40136   1.40903   1.43123   1.43385
 Alpha virt. eigenvalues --    1.43500   1.45159   1.45245   1.46325   1.46660
 Alpha virt. eigenvalues --    1.47635   1.47951   1.51610   1.53585   1.55410
 Alpha virt. eigenvalues --    1.55844   1.56314   1.56616   1.57707   1.61343
 Alpha virt. eigenvalues --    1.63308   1.63550   1.63802   1.66049   1.68177
 Alpha virt. eigenvalues --    1.68360   1.68756   1.69778   1.74294   1.75942
 Alpha virt. eigenvalues --    1.77074   1.78042   1.79794   1.80059   1.80647
 Alpha virt. eigenvalues --    1.83097   1.83226   1.83520   1.83845   1.84215
 Alpha virt. eigenvalues --    1.84226   1.85904   1.86011   1.88187   1.91345
 Alpha virt. eigenvalues --    1.92002   1.94080   1.95126   1.97658   1.98098
 Alpha virt. eigenvalues --    1.99656   2.02057   2.04291   2.07258   2.11778
 Alpha virt. eigenvalues --    2.11965   2.14090   2.15227   2.18966   2.21056
 Alpha virt. eigenvalues --    2.22778   2.28765   2.29797   2.34513   2.34877
 Alpha virt. eigenvalues --    2.36212   2.38682   2.39589   2.42316   2.45173
 Alpha virt. eigenvalues --    2.46055   2.46115   2.49294   2.52831   2.53761
 Alpha virt. eigenvalues --    2.53971   2.56978   2.57817   2.58300   2.59605
 Alpha virt. eigenvalues --    2.59795   2.61555   2.62075   2.63484   2.63704
 Alpha virt. eigenvalues --    2.64760   2.65056   2.65245   2.65246   2.67702
 Alpha virt. eigenvalues --    2.68356   2.70915   2.71411   2.73324   2.74794
 Alpha virt. eigenvalues --    2.76306   2.78427   2.79662   2.82561   2.83014
 Alpha virt. eigenvalues --    2.84819   2.86158   2.92050   2.97048   2.99465
 Alpha virt. eigenvalues --    2.99988   3.04568   3.10781   3.11194   3.12929
 Alpha virt. eigenvalues --    3.20717   3.22778   3.26486   3.28062   3.30715
 Alpha virt. eigenvalues --    3.32799   3.33498   3.43410   3.45859   3.46236
 Alpha virt. eigenvalues --    3.48212   3.49902   3.56232   3.66444   3.67034
 Alpha virt. eigenvalues --    3.67325   3.94188   3.94595   3.95210   3.96138
 Alpha virt. eigenvalues --    4.03972   4.06801   4.07304   4.12571   4.35117
 Alpha virt. eigenvalues --    4.60604   4.69655   4.71527  23.45357  23.60370
 Alpha virt. eigenvalues --   23.82069  23.84942  23.87583  23.89118  23.90581
 Alpha virt. eigenvalues --   23.92210  23.97357  23.99621  23.99822  23.99823
 Alpha virt. eigenvalues --   24.10461  24.10564
          Condensed to atoms (all electrons):
               1          2          3          4          5          6
     1  C    8.714285   0.181524  -0.511735   2.147891  -0.066634  -0.097363
     2  C    0.181524   7.228727   0.329633  -1.160278  -0.004927  -0.013779
     3  C   -0.511735   0.329633   6.595732   0.790103  -0.129480   0.016954
     4  C    2.147891  -1.160278   0.790103  11.276159  -0.446821  -0.129515
     5  C   -0.066634  -0.004927  -0.129480  -0.446821  11.275639   0.790144
     6  C   -0.097363  -0.013779   0.016954  -0.129515   0.790144   6.595728
     7  C   -0.008453  -0.001315  -0.013779  -0.004894  -1.160385   0.329708
     8  C    0.397888  -0.008518  -0.097364  -0.066433   2.147412  -0.511721
     9  C   -1.048167  -0.838171   0.304596  -0.153817  -0.154406   0.304575
    10  C   -1.342969   0.269006  -0.345210  -2.602129  -2.602089  -0.345345
    11  C    0.344019  -0.863856   0.988681  -0.355708  -1.515061  -0.168886
    12  C   -2.395277   1.433582  -1.439151  -1.787842  -0.343681  -0.197491
    13  C    0.283158  -0.244620  -0.168923  -1.515213  -0.355664   0.988839
    14  C   -1.099626  -0.180625  -0.197480  -0.344127  -1.786642  -1.439295
    15  H    0.371360  -0.110435  -0.000500   0.028874   0.005311   0.001106
    16  H   -0.019155   0.380967  -0.018032   0.013341  -0.001517  -0.000329
    17  H   -0.027840  -0.015500   0.375665  -0.069684   0.000321   0.000408
    18  H    0.052665   0.002725  -0.084354   0.464234   0.004619  -0.005253
    19  H   -0.046632  -0.008009   0.052094  -0.069228  -0.069186   0.052101
    20  H    0.006820   0.002181  -0.005252   0.004625   0.464224  -0.084350
    21  H   -0.001305  -0.000402   0.000408   0.000321  -0.069683   0.375669
    22  H    0.000759   0.000374  -0.000329  -0.001517   0.013333  -0.018024
    23  H    0.005331  -0.002557   0.001106   0.005311   0.028873  -0.000500
    24  H    0.034655   0.014808  -0.001662  -0.012055  -0.012053  -0.001660
    25  H    0.034655   0.014808  -0.001662  -0.012055  -0.012053  -0.001660
               7          8          9         10         11         12
     1  C   -0.008453   0.397888  -1.048167  -1.342969   0.344019  -2.395277
     2  C   -0.001315  -0.008518  -0.838171   0.269006  -0.863856   1.433582
     3  C   -0.013779  -0.097364   0.304596  -0.345210   0.988681  -1.439151
     4  C   -0.004894  -0.066433  -0.153817  -2.602129  -0.355708  -1.787842
     5  C   -1.160385   2.147412  -0.154406  -2.602089  -1.515061  -0.343681
     6  C    0.329708  -0.511721   0.304575  -0.345345  -0.168886  -0.197491
     7  C    7.229273   0.181519  -0.838284   0.269123  -0.244874  -0.180717
     8  C    0.181519   8.714450  -1.048799  -1.342909   0.282811  -1.099884
     9  C   -0.838284  -1.048799   9.495716   0.273419   1.405802  -1.828652
    10  C    0.269123  -1.342909   0.273419   9.017930  -0.299053   2.410716
    11  C   -0.244874   0.282811   1.405802  -0.299053  14.255387  -3.669195
    12  C   -0.180717  -1.099884  -1.828652   2.410716  -3.669195  16.060764
    13  C   -0.864124   0.344779   1.406257  -0.299257   1.121081  -4.710220
    14  C    1.433657  -2.394548  -1.828161   2.410341  -4.710570   3.256379
    15  H   -0.002558   0.005331   0.090272  -0.009604  -0.030863  -0.024767
    16  H    0.000374   0.000761   0.002047  -0.008743   0.023284  -0.029750
    17  H   -0.000402  -0.001306  -0.005352   0.020012  -0.025703   0.093547
    18  H    0.002181   0.006823  -0.023948   0.008004  -0.003391  -0.059531
    19  H   -0.008010  -0.046632   0.074396   0.421382   0.077553  -0.065956
    20  H    0.002719   0.052660  -0.023958   0.008015  -0.012067  -0.016077
    21  H   -0.015495  -0.027848  -0.005350   0.020012  -0.006191   0.005333
    22  H    0.380978  -0.019181   0.002036  -0.008741   0.002954  -0.008999
    23  H   -0.110445   0.371340   0.090258  -0.009606   0.001399   0.006225
    24  H    0.014811   0.034667   0.353605   0.004929   0.014078  -0.060929
    25  H    0.014811   0.034667   0.353605   0.004929   0.014078  -0.060929
              13         14         15         16         17         18
     1  C    0.283158  -1.099626   0.371360  -0.019155  -0.027840   0.052665
     2  C   -0.244620  -0.180625  -0.110435   0.380967  -0.015500   0.002725
     3  C   -0.168923  -0.197480  -0.000500  -0.018032   0.375665  -0.084354
     4  C   -1.515213  -0.344127   0.028874   0.013341  -0.069684   0.464234
     5  C   -0.355664  -1.786642   0.005311  -0.001517   0.000321   0.004619
     6  C    0.988839  -1.439295   0.001106  -0.000329   0.000408  -0.005253
     7  C   -0.864124   1.433657  -0.002558   0.000374  -0.000402   0.002181
     8  C    0.344779  -2.394548   0.005331   0.000761  -0.001306   0.006823
     9  C    1.406257  -1.828161   0.090272   0.002047  -0.005352  -0.023948
    10  C   -0.299257   2.410341  -0.009604  -0.008743   0.020012   0.008004
    11  C    1.121081  -4.710570  -0.030863   0.023284  -0.025703  -0.003391
    12  C   -4.710220   3.256379  -0.024767  -0.029750   0.093547  -0.059531
    13  C   14.253995  -3.669445   0.001395   0.002956  -0.006190  -0.012067
    14  C   -3.669445  16.059322   0.006224  -0.009001   0.005333  -0.016088
    15  H    0.001395   0.006224   0.439865  -0.009143   0.001479   0.000132
    16  H    0.002956  -0.009001  -0.009143   0.419894  -0.006619   0.001945
    17  H   -0.006190   0.005333   0.001479  -0.006619   0.422490  -0.010436
    18  H   -0.012067  -0.016088   0.000132   0.001945  -0.010436   0.454667
    19  H    0.077584  -0.065950   0.000333  -0.000557   0.001447  -0.006393
    20  H   -0.003413  -0.059503  -0.000116   0.000016  -0.000146   0.001229
    21  H   -0.025705   0.093547   0.000015  -0.000007   0.000011  -0.000146
    22  H    0.023272  -0.029714  -0.000129   0.000008  -0.000007   0.000016
    23  H   -0.030843  -0.024752   0.000533  -0.000129   0.000015  -0.000116
    24  H    0.014096  -0.060927  -0.000941   0.000637  -0.000144   0.000194
    25  H    0.014096  -0.060927  -0.000941   0.000637  -0.000144   0.000194
              19         20         21         22         23         24
     1  C   -0.046632   0.006820  -0.001305   0.000759   0.005331   0.034655
     2  C   -0.008009   0.002181  -0.000402   0.000374  -0.002557   0.014808
     3  C    0.052094  -0.005252   0.000408  -0.000329   0.001106  -0.001662
     4  C   -0.069228   0.004625   0.000321  -0.001517   0.005311  -0.012055
     5  C   -0.069186   0.464224  -0.069683   0.013333   0.028873  -0.012053
     6  C    0.052101  -0.084350   0.375669  -0.018024  -0.000500  -0.001660
     7  C   -0.008010   0.002719  -0.015495   0.380978  -0.110445   0.014811
     8  C   -0.046632   0.052660  -0.027848  -0.019181   0.371340   0.034667
     9  C    0.074396  -0.023958  -0.005350   0.002036   0.090258   0.353605
    10  C    0.421382   0.008015   0.020012  -0.008741  -0.009606   0.004929
    11  C    0.077553  -0.012067  -0.006191   0.002954   0.001399   0.014078
    12  C   -0.065956  -0.016077   0.005333  -0.008999   0.006225  -0.060929
    13  C    0.077584  -0.003413  -0.025705   0.023272  -0.030843   0.014096
    14  C   -0.065950  -0.059503   0.093547  -0.029714  -0.024752  -0.060927
    15  H    0.000333  -0.000116   0.000015  -0.000129   0.000533  -0.000941
    16  H   -0.000557   0.000016  -0.000007   0.000008  -0.000129   0.000637
    17  H    0.001447  -0.000146   0.000011  -0.000007   0.000015  -0.000144
    18  H   -0.006393   0.001229  -0.000146   0.000016  -0.000116   0.000194
    19  H    0.443024  -0.006392   0.001447  -0.000557   0.000333   0.000550
    20  H   -0.006392   0.454664  -0.010436   0.001944   0.000132   0.000194
    21  H    0.001447  -0.010436   0.422491  -0.006619   0.001479  -0.000144
    22  H   -0.000557   0.001944  -0.006619   0.419895  -0.009142   0.000637
    23  H    0.000333   0.000132   0.001479  -0.009142   0.439864  -0.000941
    24  H    0.000550   0.000194  -0.000144   0.000637  -0.000941   0.492305
    25  H    0.000550   0.000194  -0.000144   0.000637  -0.000941  -0.077618
              25
     1  C    0.034655
     2  C    0.014808
     3  C   -0.001662
     4  C   -0.012055
     5  C   -0.012053
     6  C   -0.001660
     7  C    0.014811
     8  C    0.034667
     9  C    0.353605
    10  C    0.004929
    11  C    0.014078
    12  C   -0.060929
    13  C    0.014096
    14  C   -0.060927
    15  H   -0.000941
    16  H    0.000637
    17  H   -0.000144
    18  H    0.000194
    19  H    0.000550
    20  H    0.000194
    21  H   -0.000144
    22  H    0.000637
    23  H   -0.000941
    24  H   -0.077618
    25  H    0.492305
 Mulliken charges:
               1
     1  C    0.090147
     2  C   -0.405343
     3  C   -0.440057
     4  C    0.000458
     5  C    0.000406
     6  C   -0.440060
     7  C   -0.405417
     8  C    0.090034
     9  C   -0.359520
    10  C    0.077839
    11  C   -0.625710
    12  C    0.712503
    13  C   -0.625823
    14  C    0.712576
    15  H    0.237769
    16  H    0.256116
    17  H    0.248745
    18  H    0.222093
    19  H    0.190708
    20  H    0.222093
    21  H    0.248743
    22  H    0.256116
    23  H    0.237772
    24  H    0.248907
    25  H    0.248907
 Sum of Mulliken charges =   1.00000
 Mulliken charges with hydrogens summed into heavy atoms:
               1
     1  C    0.327916
     2  C   -0.149227
     3  C   -0.191313
     4  C    0.222551
     5  C    0.222499
     6  C   -0.191317
     7  C   -0.149301
     8  C    0.327806
     9  C    0.138294
    10  C    0.268547
    11  C   -0.625710
    12  C    0.712503
    13  C   -0.625823
    14  C    0.712576
 Electronic spatial extent (au):  <R**2>=           2859.2913
 Charge=              1.0000 electrons
 Dipole moment (field-independent basis, Debye):
    X=             -0.1963    Y=              0.0000    Z=              0.0000  Tot=              0.1963
 Quadrupole moment (field-independent basis, Debye-Ang):
   XX=            -56.2787   YY=            -31.0598   ZZ=            -84.1441
   XY=              0.0001   XZ=              0.0000   YZ=              0.0000
 Traceless Quadrupole moment (field-independent basis, Debye-Ang):
   XX=              0.8822   YY=             26.1011   ZZ=            -26.9832
   XY=              0.0001   XZ=              0.0000   YZ=              0.0000
 Octapole moment (field-independent basis, Debye-Ang**2):
  XXX=             -5.3132  YYY=              0.0015  ZZZ=              0.0000  XYY=              5.1811
  XXY=              0.0003  XXZ=              0.0000  XZZ=              3.1323  YZZ=             -0.0002
  YYZ=              0.0000  XYZ=             -0.0000
 Hexadecapole moment (field-independent basis, Debye-Ang**3):
 XXXX=           -610.3983 YYYY=          -2123.5212 ZZZZ=            -99.3565 XXXY=              0.0034
 XXXZ=              0.0000 YYYX=              0.0036 YYYZ=             -0.0000 ZZZX=              0.0000
 ZZZY=             -0.0000 XXYY=           -508.4164 XXZZ=           -145.8207 YYZZ=           -591.4927
 XXYZ=              0.0000 YYXZ=             -0.0000 ZZXY=              0.0009
 N-N= 7.806992266954D+02 E-N=-2.797723199286D+03  KE= 5.374794192660D+02
 Symmetry A'   KE= 5.228322012452D+02
 Symmetry A"   KE= 1.464721802080D+01
 Unable to Open any file for archive entry.
 1\1\GINC-GADI-CPU-CLX-1762\SP\RM062X TD-FC\6-311++G(d,p)\C14H11(1+)\TS
 1578\02-Aug-2022\0\\#n M062X/6-311++G(d,p) TD(NStates=1) EmpiricalDisp
 ersion=GD3 SP\\SP_125\\1,1\C,0,2.497405,1.358931,0.\C,0,3.703883,0.671
 114,0.\C,0,3.685361,-0.71633,0.\C,0,2.463406,-1.408038,0.\C,0,-2.46340
 6,-1.408038,0.\C,0,-3.685361,-0.71633,0.\C,0,-3.703883,0.671114,0.\C,0
 ,-2.497405,1.358931,0.\C,0,-0.000125,1.464369,0.\C,0,0.,-1.429689,0.\C
 ,0,1.26243,0.67719,0.\C,0,1.236471,-0.730054,0.\C,0,-1.26243,0.67719,0
 .\C,0,-1.236471,-0.730054,0.\H,0,2.493571,2.442022,0.\H,0,4.639628,1.2
 09814,0.\H,0,4.610012,-1.275474,0.\H,0,2.4668,-2.490434,0.\H,0,0.,-2.5
 10516,0.\H,0,-2.4668,-2.490434,0.\H,0,-4.610012,-1.275474,0.\H,0,-4.63
 9628,1.209814,0.\H,0,-2.493571,2.442022,0.\H,0,0.,2.148287,-0.862335\H
 ,0,0.,2.148287,0.862335\\Version=ES64L-G16RevC.01\State=1-A'\HF=-539.7
 602587\RMSD=9.841e-09\PG=CS [SG(C14H9),X(H2)]\\@
 The archive entry for this job was punched.


 KEEP CLOSE TO NATURES HEART, YOURSELF;
 AND BREAK CLEAR AWAY, ONCE IN A WHILE, AND
 CLIMB A MOUNTAIN OR SPEND A WEEK IN THE
 WOODS.  WASH YOUR SPIRIT CLEAN...
                                         -- JOHN MUIR
 Job cpu time:       0 days  0 hours 50 minutes 30.2 seconds.
 Elapsed time:       0 days  0 hours  1 minutes  3.2 seconds.
 File lengths (MBytes):  RWF=    460 Int=      0 D2E=      0 Chk=     15 Scr=      1
 Normal termination of Gaussian 16 at Tue Aug  2 13:23:24 2022.
