 Entering Gaussian System, Link 0=g16
 Initial command:
 /apps/gaussian/g16c01/g16/l1.exe "/jobfs/53796104.gadi-pbs/Gau-3620762.inp" -scrdir="/jobfs/53796104.gadi-pbs/"
 Entering Link 1 = /apps/gaussian/g16c01/g16/l1.exe PID=   3620763.
  
 Copyright (c) 1988-2019, Gaussian, Inc.  All Rights Reserved.
  
 This is part of the Gaussian(R) 16 program.  It is based on
 the Gaussian(R) 09 system (copyright 2009, Gaussian, Inc.),
 the Gaussian(R) 03 system (copyright 2003, Gaussian, Inc.),
 the Gaussian(R) 98 system (copyright 1998, Gaussian, Inc.),
 the Gaussian(R) 94 system (copyright 1995, Gaussian, Inc.),
 the Gaussian 92(TM) system (copyright 1992, Gaussian, Inc.),
 the Gaussian 90(TM) system (copyright 1990, Gaussian, Inc.),
 the Gaussian 88(TM) system (copyright 1988, Gaussian, Inc.),
 the Gaussian 86(TM) system (copyright 1986, Carnegie Mellon
 University), and the Gaussian 82(TM) system (copyright 1983,
 Carnegie Mellon University). Gaussian is a federally registered
 trademark of Gaussian, Inc.
  
 This software contains proprietary and confidential information,
 including trade secrets, belonging to Gaussian, Inc.
  
 This software is provided under written license and may be
 used, copied, transmitted, or stored only in accord with that
 written license.
  
 The following legend is applicable only to US Government
 contracts under FAR:
  
                    RESTRICTED RIGHTS LEGEND
  
 Use, reproduction and disclosure by the US Government is
 subject to restrictions as set forth in subparagraphs (a)
 and (c) of the Commercial Computer Software - Restricted
 Rights clause in FAR 52.227-19.
  
 Gaussian, Inc.
 340 Quinnipiac St., Bldg. 40, Wallingford CT 06492
  
  
 ---------------------------------------------------------------
 Warning -- This program may not be used in any manner that
 competes with the business of Gaussian, Inc. or will provide
 assistance to any competitor of Gaussian, Inc.  The licensee
 of this program is prohibited from giving any competitor of
 Gaussian, Inc. access to this program.  By using this program,
 the user acknowledges that Gaussian, Inc. is engaged in the
 business of creating and licensing software in the field of
 computational chemistry and represents and warrants to the
 licensee that it is not a competitor of Gaussian, Inc. and that
 it will not use this program in any manner prohibited above.
 ---------------------------------------------------------------
  

 Cite this work as:
 Gaussian 16, Revision C.01,
 M. J. Frisch, G. W. Trucks, H. B. Schlegel, G. E. Scuseria, 
 M. A. Robb, J. R. Cheeseman, G. Scalmani, V. Barone, 
 G. A. Petersson, H. Nakatsuji, X. Li, M. Caricato, A. V. Marenich, 
 J. Bloino, B. G. Janesko, R. Gomperts, B. Mennucci, H. P. Hratchian, 
 J. V. Ortiz, A. F. Izmaylov, J. L. Sonnenberg, D. Williams-Young, 
 F. Ding, F. Lipparini, F. Egidi, J. Goings, B. Peng, A. Petrone, 
 T. Henderson, D. Ranasinghe, V. G. Zakrzewski, J. Gao, N. Rega, 
 G. Zheng, W. Liang, M. Hada, M. Ehara, K. Toyota, R. Fukuda, 
 J. Hasegawa, M. Ishida, T. Nakajima, Y. Honda, O. Kitao, H. Nakai, 
 T. Vreven, K. Throssell, J. A. Montgomery, Jr., J. E. Peralta, 
 F. Ogliaro, M. J. Bearpark, J. J. Heyd, E. N. Brothers, K. N. Kudin, 
 V. N. Staroverov, T. A. Keith, R. Kobayashi, J. Normand, 
 K. Raghavachari, A. P. Rendell, J. C. Burant, S. S. Iyengar, 
 J. Tomasi, M. Cossi, J. M. Millam, M. Klene, C. Adamo, R. Cammi, 
 J. W. Ochterski, R. L. Martin, K. Morokuma, O. Farkas, 
 J. B. Foresman, and D. J. Fox, Gaussian, Inc., Wallingford CT, 2019.
 
 ******************************************
 Gaussian 16:  ES64L-G16RevC.01  3-Jul-2019
                 2-Aug-2022 
 ******************************************
 %NProcShared=48
 Will use up to   48 processors via shared memory.
 %mem = 190GB
 ---------------------------------------------------------------
 #n M062X/6-311++G(d,p) TD(NStates=1) EmpiricalDispersion=GD3 SP
 ---------------------------------------------------------------
 1/38=1,172=1/1;
 2/12=2,17=6,18=5,40=1/2;
 3/5=4,6=6,7=1111,11=9,25=1,30=1,74=-55,124=31/1,2,3,8;
 4//1;
 5/5=2,38=5/2;
 8/6=1,10=2,108=1/1;
 9/41=1,42=1,70=2/14;
 6/7=2,8=2,9=2,10=2/1;
 99/5=1,9=1/99;
 ------
 SP_-50
 ------
 Symbolic Z-matrix:
 Charge =  1 Multiplicity = 1
 C                     2.52196   1.35863   0. 
 C                     3.73536   0.68574   0. 
 C                     3.69366  -0.69003   0. 
 C                     2.43206  -1.38954   0. 
 C                    -2.49446  -1.42594   0. 
 C                    -3.67526  -0.73963   0. 
 C                    -3.66956   0.65754   0. 
 C                    -2.46715   1.36103   0. 
 C                     0.01745   1.45777   0. 
 C                    -0.0488   -1.42939   0. 
 C                     1.25491   0.66182   0. 
 C                     1.21707  -0.7281    0. 
 C                    -1.26951   0.69242   0. 
 C                    -1.25707  -0.7329    0. 
 H                     2.49867   2.4421    0. 
 H                     4.6712    1.22244   0. 
 H                     4.60376  -1.2745    0. 
 H                     2.45265  -2.47251   0. 
 H                    -0.045    -2.51037   0. 
 H                    -2.48185  -2.50791   0. 
 H                    -4.61536  -1.2727    0. 
 H                    -4.6046    1.19944   0. 
 H                    -2.48187   2.4439    0. 
 H                     0.064     2.14679  -0.86069 
 H                     0.064     2.14679   0.86069 
 
                          Input orientation:                          
 ---------------------------------------------------------------------
 Center     Atomic      Atomic             Coordinates (Angstroms)
 Number     Number       Type             X           Y           Z
 ---------------------------------------------------------------------
      1          6           0        2.521955    1.358631    0.000000
      2          6           0        3.735358    0.685739    0.000000
      3          6           0        3.693661   -0.690030    0.000000
      4          6           0        2.432056   -1.389538    0.000000
      5          6           0       -2.494456   -1.425938    0.000000
      6          6           0       -3.675261   -0.739630    0.000000
      7          6           0       -3.669558    0.657539    0.000000
      8          6           0       -2.467155    1.361031    0.000000
      9          6           0        0.017450    1.457769    0.000000
     10          6           0       -0.048800   -1.429389    0.000000
     11          6           0        1.254905    0.661815    0.000000
     12          6           0        1.217071   -0.728104    0.000000
     13          6           0       -1.269505    0.692415    0.000000
     14          6           0       -1.257071   -0.732904    0.000000
     15          1           0        2.498671    2.442097    0.000000
     16          1           0        4.671203    1.222439    0.000000
     17          1           0        4.603762   -1.274499    0.000000
     18          1           0        2.452650   -2.472509    0.000000
     19          1           0       -0.045000   -2.510366    0.000000
     20          1           0       -2.481850   -2.507909    0.000000
     21          1           0       -4.615362   -1.272699    0.000000
     22          1           0       -4.604603    1.199439    0.000000
     23          1           0       -2.481871    2.443897    0.000000
     24          1           0        0.064000    2.146787   -0.860685
     25          1           0        0.064000    2.146787    0.860685
 ---------------------------------------------------------------------
                    Distance matrix (angstroms):
                    1          2          3          4          5
     1  C    0.000000
     2  C    1.387491   0.000000
     3  C    2.360065   1.376401   0.000000
     4  C    2.749639   2.450586   1.442553   0.000000
     5  C    5.737439   6.577976   6.231721   4.926646   0.000000
     6  C    6.542796   7.546453   7.369089   6.141800   1.365767
     7  C    6.231080   7.404970   7.485515   6.435854   2.392016
     8  C    4.989111   6.239166   6.493266   5.618532   2.787103
     9  C    2.506466   3.797219   4.257648   3.733293   3.824322
    10  C    3.792339   4.335161   3.814796   2.481176   2.445658
    11  C    1.446018   2.480568   2.788372   2.365108   4.291436
    12  C    2.461135   2.888031   2.476883   1.383359   3.776560
    13  C    3.849547   5.004867   5.152104   4.246891   2.447024
    14  C    4.319208   5.190077   4.950918   3.747109   1.418245
    15  H    1.083716   2.148066   3.352346   3.832214   6.316092
    16  H    2.153559   1.078820   2.147819   3.440378   7.639409
    17  H    3.356679   2.143982   1.081614   2.174751   7.099833
    18  H    3.831767   3.408793   2.171944   1.083167   5.056597
    19  H    4.643102   4.950373   4.158270   2.718835   2.678772
    20  H    6.323622   6.989497   6.437517   5.039566   1.082044
    21  H    7.606917   8.577296   8.329428   7.048386   2.126435
    22  H    7.128336   8.355767   8.510657   7.497824   3.368282
    23  H    5.120164   6.461041   6.925222   6.232327   3.869855
    24  H    2.720939   4.044046   4.686443   4.342126   4.477816
    25  H    2.720939   4.044046   4.686443   4.342126   4.477816
                    6          7          8          9         10
     6  C    0.000000
     7  C    1.397181   0.000000
     8  C    2.423282   1.393081   0.000000
     9  C    4.297054   3.772850   2.486488   0.000000
    10  C    3.691475   4.179134   3.692544   2.887918   0.000000
    11  C    5.125484   4.924465   3.787167   1.471339   2.464301
    12  C    4.892346   5.079286   4.235328   2.493418   1.447145
    13  C    2.799717   2.400306   1.371646   1.497338   2.447892
    14  C    2.418199   2.784497   2.418443   2.534453   1.394636
    15  H    6.945561   6.421191   5.082138   2.669337   4.634438
    16  H    8.573983   8.359869   7.139703   4.659699   5.413928
    17  H    8.296283   8.495916   7.546117   5.338497   4.655140
    18  H    6.368215   6.875946   6.237027   4.623558   2.710231
    19  H    4.039097   4.813839   4.566678   3.968626   1.080984
    20  H    2.133317   3.380934   3.868968   4.687548   2.661379
    21  H    1.080718   2.149503   3.398724   5.377583   4.569249
    22  H    2.150271   1.080724   2.143548   4.629266   5.259855
    23  H    3.399856   2.145152   1.082966   2.686830   4.574077
    24  H    4.801485   4.110729   2.786564   1.103491   3.680019
    25  H    4.801485   4.110729   2.786564   1.103491   3.680019
                   11         12         13         14         15
    11  C    0.000000
    12  C    1.390434   0.000000
    13  C    2.524595   2.863727   0.000000
    14  C    2.873198   2.474147   1.425373   0.000000
    15  H    2.171718   3.419455   4.154580   4.917950   0.000000
    16  H    3.461992   3.966818   5.964305   6.242419   2.491478
    17  H    3.868353   3.430484   6.193869   5.885804   4.271357
    18  H    3.355381   2.137663   4.885814   4.097347   4.914821
    19  H    3.428190   2.183868   3.428880   2.151392   5.567509
    20  H    4.900050   4.104841   3.422259   2.156554   7.021976
    21  H    6.180807   5.857803   3.880262   3.401396   8.025533
    22  H    5.884120   6.132480   3.373418   3.865219   7.211151
    23  H    4.139965   4.872757   2.130146   3.404732   4.980542
    24  H    2.089061   3.214864   2.152722   3.283082   2.599156
    25  H    2.089061   3.214864   2.152722   3.283082   2.599156
                   16         17         18         19         20
    16  H    0.000000
    17  H    2.497849   0.000000
    18  H    4.309828   2.462217   0.000000
    19  H    6.014682   4.810234   2.497937   0.000000
    20  H    8.067321   7.192162   4.934627   2.436851   0.000000
    21  H    9.615924   9.219124   7.169124   4.734979   2.465282
    22  H    9.275835   9.534902   7.955377   5.878149   4.272062
    23  H    7.256613   8.002041   6.965669   5.521147   4.951806
    24  H    4.777187   5.749384   5.271084   4.737271   5.374786
    25  H    4.777187   5.749384   5.271084   4.737271   5.374786
                   21         22         23         24         25
    21  H    0.000000
    22  H    2.472161   0.000000
    23  H    4.285425   2.460623   0.000000
    24  H    5.859189   4.840878   2.703796   0.000000
    25  H    5.859189   4.840878   2.703796   1.721370   0.000000
 Stoichiometry    C14H11(1+)
 Framework group  CS[SG(C14H9),X(H2)]
 Deg. of freedom    46
 Full point group                 CS      NOp   2
 Largest Abelian subgroup         CS      NOp   2
 Largest concise Abelian subgroup CS      NOp   2
                         Standard orientation:                         
 ---------------------------------------------------------------------
 Center     Atomic      Atomic             Coordinates (Angstroms)
 Number     Number       Type             X           Y           Z
 ---------------------------------------------------------------------
      1          6           0        2.460670    1.465453    0.000000
      2          6           0        2.506534    2.852185    0.000000
      3          6           0        1.304678    3.523022    0.000000
      4          6           0        0.056508    2.799814    0.000000
      5          6           0       -2.505047   -1.408545    0.000000
      6          6           0       -2.522657   -2.774198    0.000000
      7          6           0       -1.320926   -3.486910    0.000000
      8          6           0       -0.099744   -2.816545    0.000000
      9          6           0        1.259385   -0.734385    0.000000
     10          6           0       -1.251886    0.691654    0.000000
     11          6           0        1.212013    0.736191    0.000000
     12          6           0        0.000000    1.417609    0.000000
     13          6           0       -0.058302   -1.445525    0.000000
     14          6           0       -1.274871   -0.702793    0.000000
     15          1           0        3.378348    0.888992    0.000000
     16          1           0        3.447697    3.379505    0.000000
     17          1           0        1.270631    4.604099    0.000000
     18          1           0       -0.862128    3.373712    0.000000
     19          1           0       -2.177436    1.250118    0.000000
     20          1           0       -3.426927   -0.842014    0.000000
     21          1           0       -3.462890   -3.307034    0.000000
     22          1           0       -1.336216   -4.567526    0.000000
     23          1           0        0.821820   -3.385346    0.000000
     24          1           0        1.874486   -1.048333    0.860685
     25          1           0        1.874486   -1.048333   -0.860685
 ---------------------------------------------------------------------
 Rotational constants (GHZ):           2.1352057           0.4443312           0.3685952
 Standard basis: 6-311++G(d,p) (5D, 7F)
 There are   299 symmetry adapted cartesian basis functions of A'  symmetry.
 There are   100 symmetry adapted cartesian basis functions of A"  symmetry.
 There are   285 symmetry adapted basis functions of A'  symmetry.
 There are   100 symmetry adapted basis functions of A"  symmetry.
   385 basis functions,   603 primitive gaussians,   399 cartesian basis functions
    47 alpha electrons       47 beta electrons
       nuclear repulsion energy       781.0528513327 Hartrees.
 NAtoms=   25 NActive=   25 NUniq=   24 SFac= 1.09D+00 NAtFMM=   60 NAOKFM=F Big=F
 Integral buffers will be    131072 words long.
 Regular integral format.
 Two-electron integral symmetry is turned on.
 Nuclear repulsion after empirical dispersion term =      781.0518722117 Hartrees.
 One-electron integrals computed using PRISM.
 NBasis=   385 RedAO= T EigKep=  1.13D-06  NBF=   285   100
 NBsUse=   379 1.00D-06 EigRej=  8.38D-07 NBFU=   279   100
 ExpMin= 3.60D-02 ExpMax= 4.56D+03 ExpMxC= 6.82D+02 IAcc=3 IRadAn=         5 AccDes= 0.00D+00
 Harris functional with IExCor= 1009 and IRadAn=       5 diagonalized for initial guess.
 HarFok:  IExCor= 1009 AccDes= 0.00D+00 IRadAn=         5 IDoV= 1 UseB2=F ITyADJ=14
 ICtDFT=  3500011 ScaDFX=  1.000000  1.000000  1.000000  1.000000
 FoFCou: FMM=F IPFlag=           0 FMFlag=      100000 FMFlg1=           0
         NFxFlg=           0 DoJE=T BraDBF=F KetDBF=T FulRan=T
         wScrn=  0.000000 ICntrl=       500 IOpCl=  0 I1Cent=   200000004 NGrid=           0
         NMat0=    1 NMatS0=      1 NMatT0=    0 NMatD0=    1 NMtDS0=    0 NMtDT0=    0
 Petite list used in FoFCou.
 Initial guess orbital symmetries:
       Occupied  (A') (A') (A') (A') (A') (A') (A') (A') (A') (A')
                 (A') (A') (A') (A') (A') (A') (A') (A') (A') (A')
                 (A') (A') (A') (A') (A') (A') (A') (A') (A') (A')
                 (A') (A') (A") (A') (A') (A') (A') (A') (A") (A')
                 (A") (A') (A') (A") (A") (A") (A")
       Virtual   (A") (A") (A") (A") (A") (A') (A') (A') (A') (A")
                 (A") (A') (A') (A') (A") (A') (A') (A') (A') (A")
                 (A') (A") (A') (A') (A') (A") (A') (A") (A') (A')
                 (A') (A') (A') (A') (A") (A') (A") (A') (A') (A')
                 (A") (A') (A") (A') (A') (A') (A') (A') (A") (A')
                 (A') (A') (A") (A") (A') (A') (A') (A") (A") (A')
                 (A') (A') (A') (A') (A') (A') (A") (A') (A') (A")
                 (A') (A') (A') (A') (A') (A') (A') (A') (A') (A')
                 (A') (A') (A') (A') (A') (A') (A') (A') (A') (A')
                 (A') (A') (A') (A') (A') (A') (A') (A") (A') (A")
                 (A') (A') (A") (A") (A') (A") (A') (A") (A") (A')
                 (A") (A') (A') (A') (A") (A') (A') (A") (A") (A')
                 (A") (A") (A') (A') (A') (A") (A') (A') (A') (A")
                 (A') (A') (A') (A') (A') (A') (A") (A') (A') (A')
                 (A') (A') (A') (A') (A') (A') (A') (A') (A') (A")
                 (A") (A') (A") (A") (A') (A') (A') (A") (A") (A')
                 (A") (A') (A") (A") (A") (A') (A') (A') (A') (A')
                 (A') (A") (A') (A') (A") (A') (A') (A') (A') (A")
                 (A') (A') (A') (A') (A") (A") (A') (A') (A") (A")
                 (A") (A') (A') (A") (A') (A') (A') (A") (A') (A')
                 (A") (A") (A") (A') (A') (A") (A') (A") (A') (A')
                 (A") (A") (A') (A") (A') (A") (A') (A') (A') (A")
                 (A') (A') (A') (A') (A") (A') (A') (A') (A") (A")
                 (A') (A') (A') (A") (A') (A') (A") (A') (A") (A')
                 (A") (A') (A') (A') (A') (A") (A') (A') (A') (A")
                 (A') (A') (A') (A") (A") (A') (A') (A") (A') (A')
                 (A') (A") (A') (A") (A') (A') (A') (A") (A') (A")
                 (A') (A') (A') (A') (A") (A') (A") (A') (A") (A')
                 (A") (A') (A") (A") (A") (A') (A') (A') (A') (A')
                 (A') (A') (A') (A') (A') (A') (A') (A') (A') (A')
                 (A') (A') (A') (A') (A') (A") (A') (A') (A') (A')
                 (A') (A') (A') (A') (A') (A') (A') (A') (A') (A')
                 (A') (A') (A') (A') (A') (A') (A') (A') (A') (A')
                 (A') (A')
 The electronic state of the initial guess is 1-A'.
 Requested convergence on RMS density matrix=1.00D-08 within 128 cycles.
 Requested convergence on MAX density matrix=1.00D-06.
 Requested convergence on             energy=1.00D-06.
 No special actions if energy rises.
 SCF Done:  E(RM062X) =  -539.753326547     A.U. after   16 cycles
            NFock= 16  Conv=0.33D-08     -V/T= 2.0041
 DoSCS=F DFT=T ScalE2(SS,OS)=  1.000000  1.000000
 ExpMin= 3.60D-02 ExpMax= 4.56D+03 ExpMxC= 6.82D+02 IAcc=3 IRadAn=         5 AccDes= 0.00D+00
 HarFok:  IExCor=  205 AccDes= 0.00D+00 IRadAn=         5 IDoV=-2 UseB2=F ITyADJ=14
 ICtDFT= 12500011 ScaDFX=  1.000000  1.000000  1.000000  1.000000
 Range of M.O.s used for correlation:    15   379
 NBasis=   385 NAE=    47 NBE=    47 NFC=    14 NFV=     0
 NROrb=    365 NOA=    33 NOB=    33 NVA=   332 NVB=   332

 **** Warning!!: The largest alpha MO coefficient is  0.13901403D+03

 Orbital symmetries:
       Occupied  (A') (A') (A') (A') (A') (A') (A') (A') (A') (A')
                 (A') (A') (A') (A') (A') (A') (A') (A') (A') (A')
                 (A') (A') (A') (A') (A') (A') (A') (A') (A') (A')
                 (A') (A") (A') (A') (A') (A') (A') (A") (A") (A')
                 (A') (A') (A') (A") (A") (A") (A")
       Virtual   (A") (A") (A") (A") (A') (A') (A') (A') (A") (A')
                 (A') (A") (A') (A') (A") (A') (A") (A') (A') (A')
                 (A") (A") (A') (A') (A') (A") (A') (A") (A') (A')
                 (A") (A') (A") (A') (A') (A') (A') (A') (A") (A')
                 (A") (A') (A') (A") (A") (A') (A") (A') (A") (A')
                 (A') (A') (A') (A') (A') (A") (A') (A') (A') (A')
                 (A') (A") (A') (A') (A') (A") (A') (A') (A') (A')
                 (A') (A') (A') (A') (A') (A') (A') (A') (A') (A')
                 (A') (A') (A') (A') (A') (A') (A') (A') (A') (A')
                 (A') (A') (A') (A') (A") (A') (A") (A") (A') (A")
                 (A') (A') (A') (A') (A") (A") (A') (A") (A") (A')
                 (A') (A') (A") (A') (A") (A') (A') (A") (A') (A")
                 (A") (A') (A") (A') (A') (A') (A") (A') (A') (A')
                 (A') (A') (A') (A') (A') (A') (A') (A') (A') (A')
                 (A') (A') (A') (A") (A') (A') (A') (A') (A') (A')
                 (A') (A") (A') (A') (A") (A') (A") (A") (A') (A")
                 (A") (A') (A') (A") (A") (A') (A") (A") (A') (A')
                 (A') (A') (A") (A') (A") (A') (A') (A') (A') (A")
                 (A') (A') (A') (A") (A") (A') (A') (A") (A") (A')
                 (A") (A') (A') (A") (A") (A') (A') (A') (A') (A')
                 (A") (A") (A") (A') (A") (A') (A') (A") (A') (A')
                 (A') (A") (A') (A") (A") (A') (A") (A') (A') (A")
                 (A') (A') (A') (A') (A") (A') (A') (A') (A") (A")
                 (A') (A') (A') (A") (A') (A') (A') (A") (A") (A')
                 (A") (A') (A') (A") (A') (A') (A') (A') (A') (A')
                 (A") (A') (A') (A') (A') (A") (A") (A") (A') (A')
                 (A') (A') (A') (A') (A') (A') (A') (A") (A') (A')
                 (A') (A") (A') (A") (A") (A") (A') (A") (A') (A")
                 (A') (A") (A") (A') (A") (A") (A') (A') (A') (A')
                 (A') (A') (A') (A') (A') (A') (A') (A') (A') (A')
                 (A') (A') (A') (A") (A') (A') (A') (A') (A') (A')
                 (A') (A') (A') (A') (A') (A') (A') (A') (A') (A')
                 (A') (A') (A') (A') (A') (A') (A') (A') (A') (A')
                 (A') (A')
     4 initial guesses have been made.
 Convergence on wavefunction:    0.001000000000000
 Iteration     1 Dimension     4 NMult     0 NNew      4
 CISAX will form     4 AO SS matrices at one time.
 Iteration     2 Dimension     6 NMult     4 NNew      2
 Iteration     3 Dimension     8 NMult     6 NNew      2
 Iteration     4 Dimension    10 NMult     8 NNew      2
 Iteration     5 Dimension    12 NMult    10 NNew      2
 Iteration     6 Dimension    14 NMult    12 NNew      2
 ***********************************************************************
 Excited states from <AA,BB:AA,BB> singles matrix:
 ***********************************************************************
 
 Ground to excited state transition densities written to RWF  633
 Ground to excited state transition electric dipole moments (Au):
       state          X           Y           Z        Dip. S.      Osc.
         1         0.4915     -0.2290      0.0000      0.2940      0.0191
 Ground to excited state transition velocity dipole moments (Au):
       state          X           Y           Z        Dip. S.      Osc.
         1        -0.0518      0.0292     -0.0000      0.0035      0.0241
 Ground to excited state transition magnetic dipole moments (Au):
       state          X           Y           Z
         1        -0.0000     -0.0000      0.1780
 Ground to excited state transition velocity quadrupole moments (Au):
       state          XX          YY          ZZ          XY          XZ          YZ
         1         0.0051      0.2558     -0.0081      0.0534     -0.0000      0.0000
 <0|del|b> * <b|rxdel|0> + <0|del|b> * <b|delr+rdel|0>
 Rotatory Strengths (R) in cgs (10**-40 erg-esu-cm/Gauss)
       state          XX          YY          ZZ    R(velocity)    E-M Angle
         1        -0.0000     -0.0000      0.0000     -0.0000       90.00
 1/2[<0|r|b>*<b|rxdel|0> + (<0|rxdel|b>*<b|r|0>)*]
 Rotatory Strengths (R) in cgs (10**-40 erg-esu-cm/Gauss)
       state          XX          YY          ZZ     R(length)
         1         0.0000     -0.0000     -0.0000     -0.0000
  1/2[<0|del|b>*<b|r|0> + (<0|r|b>*<b|del|0>)*] (Au)
       state          X           Y           Z        Dip. S.   Osc.(frdel)
         1        -0.0254     -0.0067     -0.0000      0.0321      0.0214

 Excitation energies and oscillator strengths:
 
 Excited State   1:      Singlet-A'     2.6537 eV  467.21 nm  f=0.0191  <S**2>=0.000
      47 -> 48         0.70351
 This state for optimization and/or second-order correction.
 Total Energy, E(TD-HF/TD-DFT) =  -539.655805187    
 Copying the excited state density for this state as the 1-particle RhoCI density.
 SavETr:  write IOETrn=   770 NScale= 10 NData=  16 NLR=1 NState=    1 LETran=      28.

 **********************************************************************

            Population analysis using the SCF Density.

 **********************************************************************

 Orbital symmetries:
       Occupied  (A') (A') (A') (A') (A') (A') (A') (A') (A') (A')
                 (A') (A') (A') (A') (A') (A') (A') (A') (A') (A')
                 (A') (A') (A') (A') (A') (A') (A') (A') (A') (A')
                 (A') (A") (A') (A') (A') (A') (A') (A") (A") (A')
                 (A') (A') (A') (A") (A") (A") (A")
       Virtual   (A") (A") (A") (A") (A') (A') (A') (A') (A") (A')
                 (A') (A") (A') (A') (A") (A') (A") (A') (A') (A')
                 (A") (A") (A') (A') (A') (A") (A') (A") (A') (A')
                 (A") (A') (A") (A') (A') (A') (A') (A') (A") (A')
                 (A") (A') (A') (A") (A") (A') (A") (A') (A") (A')
                 (A') (A') (A') (A') (A') (A") (A') (A') (A') (A')
                 (A') (A") (A') (A') (A') (A") (A') (A') (A') (A')
                 (A') (A') (A') (A') (A') (A') (A') (A') (A') (A')
                 (A') (A') (A') (A') (A') (A') (A') (A') (A') (A')
                 (A') (A') (A') (A') (A") (A') (A") (A") (A') (A")
                 (A') (A') (A') (A') (A") (A") (A') (A") (A") (A')
                 (A') (A') (A") (A') (A") (A') (A') (A") (A') (A")
                 (A") (A') (A") (A') (A') (A') (A") (A') (A') (A')
                 (A') (A') (A') (A') (A') (A') (A') (A') (A') (A')
                 (A') (A') (A') (A") (A') (A') (A') (A') (A') (A')
                 (A') (A") (A') (A') (A") (A') (A") (A") (A') (A")
                 (A") (A') (A') (A") (A") (A') (A") (A") (A') (A')
                 (A') (A') (A") (A') (A") (A') (A') (A') (A') (A")
                 (A') (A') (A') (A") (A") (A') (A') (A") (A") (A')
                 (A") (A') (A') (A") (A") (A') (A') (A') (A') (A')
                 (A") (A") (A") (A') (A") (A') (A') (A") (A') (A')
                 (A') (A") (A') (A") (A") (A') (A") (A') (A') (A")
                 (A') (A') (A') (A') (A") (A') (A') (A') (A") (A")
                 (A') (A') (A') (A") (A') (A') (A') (A") (A") (A')
                 (A") (A') (A') (A") (A') (A') (A') (A') (A') (A')
                 (A") (A') (A') (A') (A') (A") (A") (A") (A') (A')
                 (A') (A') (A') (A') (A') (A') (A') (A") (A') (A')
                 (A') (A") (A') (A") (A") (A") (A') (A") (A') (A")
                 (A') (A") (A") (A') (A") (A") (A') (A') (A') (A')
                 (A') (A') (A') (A') (A') (A') (A') (A') (A') (A')
                 (A') (A') (A') (A") (A') (A') (A') (A') (A') (A')
                 (A') (A') (A') (A') (A') (A') (A') (A') (A') (A')
                 (A') (A') (A') (A') (A') (A') (A') (A') (A') (A')
                 (A') (A')
 The electronic state is 1-A'.
 Alpha  occ. eigenvalues --  -10.77581 -10.73829 -10.72863 -10.72678 -10.72068
 Alpha  occ. eigenvalues --  -10.71936 -10.71884 -10.70998 -10.70797 -10.70235
 Alpha  occ. eigenvalues --  -10.70019 -10.69958 -10.69713 -10.69309  -1.16529
 Alpha  occ. eigenvalues --   -1.12457  -1.06937  -1.05829  -1.01283  -1.00407
 Alpha  occ. eigenvalues --   -0.95553  -0.91017  -0.86441  -0.85883  -0.83767
 Alpha  occ. eigenvalues --   -0.78324  -0.76129  -0.74360  -0.69805  -0.69322
 Alpha  occ. eigenvalues --   -0.68290  -0.68097  -0.68048  -0.65283  -0.64225
 Alpha  occ. eigenvalues --   -0.62716  -0.61554  -0.60490  -0.59238  -0.59171
 Alpha  occ. eigenvalues --   -0.56936  -0.55265  -0.54518  -0.52443  -0.47334
 Alpha  occ. eigenvalues --   -0.46128  -0.43762
 Alpha virt. eigenvalues --   -0.26115  -0.14664  -0.14076  -0.12761  -0.11190
 Alpha virt. eigenvalues --   -0.10092  -0.09261  -0.07958  -0.07928  -0.07484
 Alpha virt. eigenvalues --   -0.07210  -0.07133  -0.05648  -0.05572  -0.05353
 Alpha virt. eigenvalues --   -0.03852  -0.03665  -0.03272  -0.03134  -0.02156
 Alpha virt. eigenvalues --   -0.01346  -0.00958   0.00190   0.00593   0.00630
 Alpha virt. eigenvalues --    0.01065   0.01503   0.01933   0.02139   0.02307
 Alpha virt. eigenvalues --    0.02448   0.02673   0.02797   0.03253   0.03467
 Alpha virt. eigenvalues --    0.04220   0.04492   0.04729   0.05043   0.05393
 Alpha virt. eigenvalues --    0.06025   0.06286   0.06575   0.07049   0.07276
 Alpha virt. eigenvalues --    0.07905   0.08068   0.08345   0.08642   0.08907
 Alpha virt. eigenvalues --    0.09477   0.09588   0.09955   0.10801   0.10939
 Alpha virt. eigenvalues --    0.11133   0.12084   0.12245   0.12668   0.13030
 Alpha virt. eigenvalues --    0.13470   0.13526   0.13969   0.14319   0.15832
 Alpha virt. eigenvalues --    0.16396   0.16478   0.17325   0.17434   0.17775
 Alpha virt. eigenvalues --    0.18124   0.19076   0.19366   0.19667   0.19933
 Alpha virt. eigenvalues --    0.21460   0.21645   0.22645   0.23201   0.23564
 Alpha virt. eigenvalues --    0.23969   0.24542   0.25484   0.26949   0.27615
 Alpha virt. eigenvalues --    0.28846   0.29241   0.29921   0.31344   0.35743
 Alpha virt. eigenvalues --    0.36458   0.38220   0.39279   0.41030   0.41272
 Alpha virt. eigenvalues --    0.41963   0.42112   0.42983   0.43698   0.44403
 Alpha virt. eigenvalues --    0.44762   0.45126   0.45871   0.46415   0.47902
 Alpha virt. eigenvalues --    0.48380   0.48760   0.49049   0.50535   0.51032
 Alpha virt. eigenvalues --    0.51198   0.52072   0.52147   0.52740   0.54129
 Alpha virt. eigenvalues --    0.54163   0.54580   0.55631   0.55977   0.57633
 Alpha virt. eigenvalues --    0.58218   0.58983   0.61507   0.62284   0.62430
 Alpha virt. eigenvalues --    0.63152   0.63470   0.64889   0.65161   0.67452
 Alpha virt. eigenvalues --    0.70324   0.70473   0.71236   0.72525   0.72910
 Alpha virt. eigenvalues --    0.75548   0.76053   0.76440   0.76729   0.77120
 Alpha virt. eigenvalues --    0.77868   0.78015   0.78284   0.79933   0.80385
 Alpha virt. eigenvalues --    0.81229   0.81534   0.82456   0.82983   0.85236
 Alpha virt. eigenvalues --    0.87015   0.88068   0.88145   0.89349   0.90645
 Alpha virt. eigenvalues --    0.91015   0.91463   0.93320   0.94584   0.96246
 Alpha virt. eigenvalues --    0.96950   1.00116   1.01277   1.01497   1.02857
 Alpha virt. eigenvalues --    1.02884   1.03287   1.04901   1.06535   1.08898
 Alpha virt. eigenvalues --    1.19578   1.22907   1.24120   1.24167   1.29010
 Alpha virt. eigenvalues --    1.29254   1.32311   1.34299   1.35733   1.35952
 Alpha virt. eigenvalues --    1.39286   1.39569   1.40796   1.42945   1.43399
 Alpha virt. eigenvalues --    1.43467   1.44240   1.46355   1.46574   1.47006
 Alpha virt. eigenvalues --    1.47715   1.48227   1.51760   1.53682   1.55654
 Alpha virt. eigenvalues --    1.55760   1.56272   1.56594   1.57815   1.61458
 Alpha virt. eigenvalues --    1.62929   1.63410   1.64253   1.66064   1.68283
 Alpha virt. eigenvalues --    1.68350   1.68740   1.69876   1.74401   1.76025
 Alpha virt. eigenvalues --    1.77150   1.78090   1.79745   1.79963   1.80888
 Alpha virt. eigenvalues --    1.82780   1.83192   1.83590   1.83791   1.84198
 Alpha virt. eigenvalues --    1.84634   1.85415   1.86461   1.88384   1.91425
 Alpha virt. eigenvalues --    1.92154   1.94035   1.95355   1.97804   1.98145
 Alpha virt. eigenvalues --    1.99804   2.02301   2.04540   2.07328   2.11696
 Alpha virt. eigenvalues --    2.12176   2.14289   2.15282   2.19028   2.21153
 Alpha virt. eigenvalues --    2.22724   2.28470   2.30236   2.34404   2.34745
 Alpha virt. eigenvalues --    2.36380   2.38578   2.39701   2.42316   2.44678
 Alpha virt. eigenvalues --    2.46093   2.46367   2.49142   2.52942   2.53769
 Alpha virt. eigenvalues --    2.54211   2.56919   2.57926   2.58447   2.59387
 Alpha virt. eigenvalues --    2.59925   2.61512   2.62127   2.63563   2.63692
 Alpha virt. eigenvalues --    2.64839   2.65044   2.65051   2.65628   2.67871
 Alpha virt. eigenvalues --    2.68327   2.70913   2.71480   2.73377   2.74802
 Alpha virt. eigenvalues --    2.76278   2.78250   2.79615   2.83074   2.83236
 Alpha virt. eigenvalues --    2.84838   2.86233   2.92107   2.97144   2.99388
 Alpha virt. eigenvalues --    3.00150   3.04816   3.09221   3.11115   3.14227
 Alpha virt. eigenvalues --    3.20432   3.21813   3.26061   3.28695   3.30756
 Alpha virt. eigenvalues --    3.32810   3.34845   3.44021   3.46277   3.46722
 Alpha virt. eigenvalues --    3.48227   3.49967   3.56370   3.66129   3.66886
 Alpha virt. eigenvalues --    3.67956   3.93555   3.93993   3.95355   3.96547
 Alpha virt. eigenvalues --    4.03897   4.06391   4.07648   4.12537   4.35133
 Alpha virt. eigenvalues --    4.60632   4.68987   4.71066  23.45210  23.59956
 Alpha virt. eigenvalues --   23.79676  23.81939  23.84820  23.89100  23.92020
 Alpha virt. eigenvalues --   23.95211  23.95963  23.97751  24.03752  24.06474
 Alpha virt. eigenvalues --   24.11479  24.13438
          Condensed to atoms (all electrons):
               1          2          3          4          5          6
     1  C    9.092370  -0.105114  -0.347099   2.356706  -0.108208  -0.107555
     2  C   -0.105114   7.241321   0.218341  -1.245574   0.022935  -0.012782
     3  C   -0.347099   0.218341   6.606447   0.846363  -0.144824   0.016888
     4  C    2.356706  -1.245574   0.846363  10.727517  -0.410435  -0.112572
     5  C   -0.108208   0.022935  -0.144824  -0.410435  11.668150   0.717863
     6  C   -0.107555  -0.012782   0.016888  -0.112572   0.717863   6.612170
     7  C    0.003959  -0.000985  -0.015042  -0.038384  -1.007308   0.422463
     8  C    0.407785  -0.031613  -0.084829  -0.010321   1.786406  -0.654140
     9  C   -1.085417  -0.791400   0.298005  -0.417033   0.087715   0.297521
    10  C   -1.419970   0.367032  -0.444114  -2.362461  -2.819466  -0.249142
    11  C    0.305545  -0.979119   1.112651  -0.353376  -1.604097  -0.229981
    12  C   -2.769923   1.825928  -1.537512  -1.697537  -0.478504  -0.105015
    13  C    0.327165  -0.315320  -0.101584  -1.411193  -0.368048   0.868179
    14  C   -1.061936  -0.056440  -0.296846  -0.213850  -1.713215  -1.349791
    15  H    0.372232  -0.110235   0.002027   0.030593   0.004210   0.000965
    16  H   -0.016169   0.373443  -0.011948   0.009576  -0.001278  -0.000292
    17  H   -0.034507  -0.006149   0.367246  -0.066478   0.000470   0.000384
    18  H    0.055417   0.001531  -0.084182   0.455750   0.005529  -0.005338
    19  H   -0.048420  -0.007525   0.052063  -0.060442  -0.082514   0.051471
    20  H    0.006871   0.002180  -0.005077   0.005429   0.470178  -0.083282
    21  H   -0.001417  -0.000370   0.000417   0.000121  -0.070850   0.382288
    22  H    0.001099   0.000410  -0.000362  -0.001705   0.017338  -0.022463
    23  H    0.004650  -0.002910   0.001253   0.006390   0.025284  -0.003156
    24  H    0.027910   0.012859  -0.001867  -0.013277  -0.011033  -0.001306
    25  H    0.027910   0.012859  -0.001867  -0.013277  -0.011033  -0.001306
               7          8          9         10         11         12
     1  C    0.003959   0.407785  -1.085417  -1.419970   0.305545  -2.769923
     2  C   -0.000985  -0.031613  -0.791400   0.367032  -0.979119   1.825928
     3  C   -0.015042  -0.084829   0.298005  -0.444114   1.112651  -1.537512
     4  C   -0.038384  -0.010321  -0.417033  -2.362461  -0.353376  -1.697537
     5  C   -1.007308   1.786406   0.087715  -2.819466  -1.604097  -0.478504
     6  C    0.422463  -0.654140   0.297521  -0.249142  -0.229981  -0.105015
     7  C    7.218564   0.505566  -0.881603   0.155049  -0.208295  -0.303081
     8  C    0.505566   8.363398  -1.105059  -1.213474   0.214406  -1.155687
     9  C   -0.881603  -1.105059   9.602645   0.253370   1.392568  -1.670382
    10  C    0.155049  -1.213474   0.253370   9.066239  -0.439808   2.460262
    11  C   -0.208295   0.214406   1.392568  -0.439808  14.178025  -3.225213
    12  C   -0.303081  -1.155687  -1.670382   2.460262  -3.225213  15.839012
    13  C   -0.763978   0.354704   1.550662  -0.258384   1.064729  -4.790516
    14  C    1.032603  -1.870578  -2.093755   2.372605  -4.659264   3.162774
    15  H   -0.002202   0.006705   0.095689  -0.011371  -0.034644  -0.038122
    16  H    0.000312   0.000380   0.003610  -0.007546   0.024569  -0.031827
    17  H   -0.000420  -0.001221  -0.006348   0.020046  -0.026284   0.098205
    18  H    0.002069   0.006811  -0.025876   0.013440  -0.000952  -0.068430
    19  H   -0.008465  -0.043485   0.074363   0.422439   0.082092  -0.044097
    20  H    0.003750   0.047681  -0.021960   0.004913  -0.012473  -0.022906
    21  H   -0.022973  -0.020130  -0.004548   0.019922  -0.006293   0.005271
    22  H    0.384100  -0.020161   0.001107  -0.010322   0.003449  -0.010555
    23  H   -0.107287   0.368080   0.086714  -0.007594  -0.004052   0.007689
    24  H    0.016148   0.038760   0.355683   0.005340   0.000915  -0.060274
    25  H    0.016148   0.038760   0.355683   0.005340   0.000915  -0.060274
              13         14         15         16         17         18
     1  C    0.327165  -1.061936   0.372232  -0.016169  -0.034507   0.055417
     2  C   -0.315320  -0.056440  -0.110235   0.373443  -0.006149   0.001531
     3  C   -0.101584  -0.296846   0.002027  -0.011948   0.367246  -0.084182
     4  C   -1.411193  -0.213850   0.030593   0.009576  -0.066478   0.455750
     5  C   -0.368048  -1.713215   0.004210  -0.001278   0.000470   0.005529
     6  C    0.868179  -1.349791   0.000965  -0.000292   0.000384  -0.005338
     7  C   -0.763978   1.032603  -0.002202   0.000312  -0.000420   0.002069
     8  C    0.354704  -1.870578   0.006705   0.000380  -0.001221   0.006811
     9  C    1.550662  -2.093755   0.095689   0.003610  -0.006348  -0.025876
    10  C   -0.258384   2.372605  -0.011371  -0.007546   0.020046   0.013440
    11  C    1.064729  -4.659264  -0.034644   0.024569  -0.026284  -0.000952
    12  C   -4.790516   3.162774  -0.038122  -0.031827   0.098205  -0.068430
    13  C   14.517689  -4.102816   0.008132   0.002285  -0.006178  -0.012153
    14  C   -4.102816  16.345835   0.004205  -0.007382   0.005282  -0.008201
    15  H    0.008132   0.004205   0.445566  -0.008920   0.001195   0.000023
    16  H    0.002285  -0.007382  -0.008920   0.422748  -0.005850   0.001886
    17  H   -0.006178   0.005282   0.001195  -0.005850   0.425065  -0.010447
    18  H   -0.012153  -0.008201   0.000023   0.001886  -0.010447   0.460087
    19  H    0.077068  -0.089043   0.000226  -0.000478   0.001108  -0.007002
    20  H   -0.008111  -0.048847  -0.000102   0.000011  -0.000119   0.001246
    21  H   -0.024751   0.085617   0.000010  -0.000007   0.000010  -0.000170
    22  H    0.023547  -0.028471  -0.000132   0.000008  -0.000007   0.000021
    23  H   -0.029628  -0.011396   0.000548  -0.000124   0.000018  -0.000129
    24  H    0.025946  -0.059997  -0.000876   0.000635  -0.000151   0.000233
    25  H    0.025946  -0.059997  -0.000876   0.000635  -0.000151   0.000233
              19         20         21         22         23         24
     1  C   -0.048420   0.006871  -0.001417   0.001099   0.004650   0.027910
     2  C   -0.007525   0.002180  -0.000370   0.000410  -0.002910   0.012859
     3  C    0.052063  -0.005077   0.000417  -0.000362   0.001253  -0.001867
     4  C   -0.060442   0.005429   0.000121  -0.001705   0.006390  -0.013277
     5  C   -0.082514   0.470178  -0.070850   0.017338   0.025284  -0.011033
     6  C    0.051471  -0.083282   0.382288  -0.022463  -0.003156  -0.001306
     7  C   -0.008465   0.003750  -0.022973   0.384100  -0.107287   0.016148
     8  C   -0.043485   0.047681  -0.020130  -0.020161   0.368080   0.038760
     9  C    0.074363  -0.021960  -0.004548   0.001107   0.086714   0.355683
    10  C    0.422439   0.004913   0.019922  -0.010322  -0.007594   0.005340
    11  C    0.082092  -0.012473  -0.006293   0.003449  -0.004052   0.000915
    12  C   -0.044097  -0.022906   0.005271  -0.010555   0.007689  -0.060274
    13  C    0.077068  -0.008111  -0.024751   0.023547  -0.029628   0.025946
    14  C   -0.089043  -0.048847   0.085617  -0.028471  -0.011396  -0.059997
    15  H    0.000226  -0.000102   0.000010  -0.000132   0.000548  -0.000876
    16  H   -0.000478   0.000011  -0.000007   0.000008  -0.000124   0.000635
    17  H    0.001108  -0.000119   0.000010  -0.000007   0.000018  -0.000151
    18  H   -0.007002   0.001246  -0.000170   0.000021  -0.000129   0.000233
    19  H    0.444106  -0.005782   0.001775  -0.000619   0.000433   0.000580
    20  H   -0.005782   0.448272  -0.010127   0.001983   0.000227   0.000142
    21  H    0.001775  -0.010127   0.419489  -0.007115   0.001692  -0.000133
    22  H   -0.000619   0.001983  -0.007115   0.415788  -0.008911   0.000627
    23  H    0.000433   0.000227   0.001692  -0.008911   0.433906  -0.000951
    24  H    0.000580   0.000142  -0.000133   0.000627  -0.000951   0.492783
    25  H    0.000580   0.000142  -0.000133   0.000627  -0.000951  -0.078555
              25
     1  C    0.027910
     2  C    0.012859
     3  C   -0.001867
     4  C   -0.013277
     5  C   -0.011033
     6  C   -0.001306
     7  C    0.016148
     8  C    0.038760
     9  C    0.355683
    10  C    0.005340
    11  C    0.000915
    12  C   -0.060274
    13  C    0.025946
    14  C   -0.059997
    15  H   -0.000876
    16  H    0.000635
    17  H   -0.000151
    18  H    0.000233
    19  H    0.000580
    20  H    0.000142
    21  H   -0.000133
    22  H    0.000627
    23  H   -0.000951
    24  H   -0.078555
    25  H    0.492783
 Mulliken charges:
               1
     1  C    0.116117
     2  C   -0.413302
     3  C   -0.444549
     4  C   -0.010532
     5  C    0.024734
     6  C   -0.432070
     7  C   -0.400706
     8  C    0.071257
     9  C   -0.351954
    10  C    0.077656
    11  C   -0.596012
    12  C    0.670713
    13  C   -0.653390
    14  C    0.722905
    15  H    0.235154
    16  H    0.251722
    17  H    0.245280
    18  H    0.218604
    19  H    0.189568
    20  H    0.225759
    21  H    0.252405
    22  H    0.260720
    23  H    0.240205
    24  H    0.249857
    25  H    0.249857
 Sum of Mulliken charges =   1.00000
 Mulliken charges with hydrogens summed into heavy atoms:
               1
     1  C    0.351271
     2  C   -0.161579
     3  C   -0.199268
     4  C    0.208072
     5  C    0.250494
     6  C   -0.179665
     7  C   -0.139986
     8  C    0.311463
     9  C    0.147760
    10  C    0.267224
    11  C   -0.596012
    12  C    0.670713
    13  C   -0.653390
    14  C    0.722905
 Electronic spatial extent (au):  <R**2>=           2857.4926
 Charge=              1.0000 electrons
 Dipole moment (field-independent basis, Debye):
    X=             -0.7212    Y=             -0.8679    Z=             -0.0000  Tot=              1.1284
 Quadrupole moment (field-independent basis, Debye-Ang):
   XX=            -49.1337   YY=            -38.1289   ZZ=            -84.1314
   XY=             11.4117   XZ=             -0.0000   YZ=              0.0000
 Traceless Quadrupole moment (field-independent basis, Debye-Ang):
   XX=              7.9976   YY=             19.0024   ZZ=            -27.0001
   XY=             11.4117   XZ=             -0.0000   YZ=              0.0000
 Octapole moment (field-independent basis, Debye-Ang**2):
  XXX=             -4.4817  YYY=            -14.4728  ZZZ=             -0.0000  XYY=             -2.8661
  XXY=              2.1615  XXZ=              0.0000  XZZ=              1.8326  YZZ=             -2.9869
  YYZ=              0.0000  XYZ=             -0.0000
 Hexadecapole moment (field-independent basis, Debye-Ang**3):
 XXXX=          -1081.6070 YYYY=          -1775.2592 ZZZZ=            -99.3225 XXXY=           -367.7792
 XXXZ=              0.0000 YYYX=           -303.8451 YYYZ=              0.0000 ZZZX=              0.0000
 ZZZY=              0.0000 XXYY=           -445.2081 XXZZ=           -266.4248 YYZZ=           -470.3038
 XXYZ=             -0.0000 YYXZ=              0.0000 ZZXY=           -197.9011
 N-N= 7.810518722117D+02 E-N=-2.798456162539D+03  KE= 5.375238007283D+02
 Symmetry A'   KE= 5.228694589957D+02
 Symmetry A"   KE= 1.465434173266D+01
 Unable to Open any file for archive entry.
 1\1\GINC-GADI-CPU-CLX-1762\SP\RM062X TD-FC\6-311++G(d,p)\C14H11(1+)\TS
 1578\02-Aug-2022\0\\#n M062X/6-311++G(d,p) TD(NStates=1) EmpiricalDisp
 ersion=GD3 SP\\SP_-50\\1,1\C,0,2.521955,1.358631,0.\C,0,3.735358,0.685
 739,0.\C,0,3.693661,-0.69003,0.\C,0,2.432056,-1.389538,0.\C,0,-2.49445
 6,-1.425938,0.\C,0,-3.675261,-0.73963,0.\C,0,-3.669558,0.657539,0.\C,0
 ,-2.467155,1.361031,0.\C,0,0.01745,1.457769,0.\C,0,-0.0488,-1.429389,0
 .\C,0,1.254905,0.661815,0.\C,0,1.217071,-0.728104,0.\C,0,-1.269505,0.6
 92415,0.\C,0,-1.257071,-0.732904,0.\H,0,2.498671,2.442097,0.\H,0,4.671
 203,1.222439,0.\H,0,4.603762,-1.274499,0.\H,0,2.45265,-2.472509,0.\H,0
 ,-0.045,-2.510366,0.\H,0,-2.48185,-2.507909,0.\H,0,-4.615362,-1.272699
 ,0.\H,0,-4.604603,1.199439,0.\H,0,-2.481871,2.443897,0.\H,0,0.064,2.14
 6787,-0.860685\H,0,0.064,2.146787,0.860685\\Version=ES64L-G16RevC.01\S
 tate=1-A'\HF=-539.7533265\RMSD=3.329e-09\PG=CS [SG(C14H9),X(H2)]\\@
 The archive entry for this job was punched.


 SACRED COWS MAKE GREAT HAMBURGERS -- ROBERT REISNER
 Job cpu time:       0 days  0 hours 52 minutes 56.1 seconds.
 Elapsed time:       0 days  0 hours  1 minutes  6.3 seconds.
 File lengths (MBytes):  RWF=    460 Int=      0 D2E=      0 Chk=     15 Scr=      1
 Normal termination of Gaussian 16 at Tue Aug  2 11:44:40 2022.
