 Entering Gaussian System, Link 0=g16
 Initial command:
 /apps/gaussian/g16c01/g16/l1.exe "/jobfs/51991865.gadi-pbs/Gau-1170260.inp" -scrdir="/jobfs/51991865.gadi-pbs/"
 Entering Link 1 = /apps/gaussian/g16c01/g16/l1.exe PID=   1170261.
  
 Copyright (c) 1988-2019, Gaussian, Inc.  All Rights Reserved.
  
 This is part of the Gaussian(R) 16 program.  It is based on
 the Gaussian(R) 09 system (copyright 2009, Gaussian, Inc.),
 the Gaussian(R) 03 system (copyright 2003, Gaussian, Inc.),
 the Gaussian(R) 98 system (copyright 1998, Gaussian, Inc.),
 the Gaussian(R) 94 system (copyright 1995, Gaussian, Inc.),
 the Gaussian 92(TM) system (copyright 1992, Gaussian, Inc.),
 the Gaussian 90(TM) system (copyright 1990, Gaussian, Inc.),
 the Gaussian 88(TM) system (copyright 1988, Gaussian, Inc.),
 the Gaussian 86(TM) system (copyright 1986, Carnegie Mellon
 University), and the Gaussian 82(TM) system (copyright 1983,
 Carnegie Mellon University). Gaussian is a federally registered
 trademark of Gaussian, Inc.
  
 This software contains proprietary and confidential information,
 including trade secrets, belonging to Gaussian, Inc.
  
 This software is provided under written license and may be
 used, copied, transmitted, or stored only in accord with that
 written license.
  
 The following legend is applicable only to US Government
 contracts under FAR:
  
                    RESTRICTED RIGHTS LEGEND
  
 Use, reproduction and disclosure by the US Government is
 subject to restrictions as set forth in subparagraphs (a)
 and (c) of the Commercial Computer Software - Restricted
 Rights clause in FAR 52.227-19.
  
 Gaussian, Inc.
 340 Quinnipiac St., Bldg. 40, Wallingford CT 06492
  
  
 ---------------------------------------------------------------
 Warning -- This program may not be used in any manner that
 competes with the business of Gaussian, Inc. or will provide
 assistance to any competitor of Gaussian, Inc.  The licensee
 of this program is prohibited from giving any competitor of
 Gaussian, Inc. access to this program.  By using this program,
 the user acknowledges that Gaussian, Inc. is engaged in the
 business of creating and licensing software in the field of
 computational chemistry and represents and warrants to the
 licensee that it is not a competitor of Gaussian, Inc. and that
 it will not use this program in any manner prohibited above.
 ---------------------------------------------------------------
  

 Cite this work as:
 Gaussian 16, Revision C.01,
 M. J. Frisch, G. W. Trucks, H. B. Schlegel, G. E. Scuseria, 
 M. A. Robb, J. R. Cheeseman, G. Scalmani, V. Barone, 
 G. A. Petersson, H. Nakatsuji, X. Li, M. Caricato, A. V. Marenich, 
 J. Bloino, B. G. Janesko, R. Gomperts, B. Mennucci, H. P. Hratchian, 
 J. V. Ortiz, A. F. Izmaylov, J. L. Sonnenberg, D. Williams-Young, 
 F. Ding, F. Lipparini, F. Egidi, J. Goings, B. Peng, A. Petrone, 
 T. Henderson, D. Ranasinghe, V. G. Zakrzewski, J. Gao, N. Rega, 
 G. Zheng, W. Liang, M. Hada, M. Ehara, K. Toyota, R. Fukuda, 
 J. Hasegawa, M. Ishida, T. Nakajima, Y. Honda, O. Kitao, H. Nakai, 
 T. Vreven, K. Throssell, J. A. Montgomery, Jr., J. E. Peralta, 
 F. Ogliaro, M. J. Bearpark, J. J. Heyd, E. N. Brothers, K. N. Kudin, 
 V. N. Staroverov, T. A. Keith, R. Kobayashi, J. Normand, 
 K. Raghavachari, A. P. Rendell, J. C. Burant, S. S. Iyengar, 
 J. Tomasi, M. Cossi, J. M. Millam, M. Klene, C. Adamo, R. Cammi, 
 J. W. Ochterski, R. L. Martin, K. Morokuma, O. Farkas, 
 J. B. Foresman, and D. J. Fox, Gaussian, Inc., Wallingford CT, 2019.
 
 ******************************************
 Gaussian 16:  ES64L-G16RevC.01  3-Jul-2019
                21-Jul-2022 
 ******************************************
 %NProcShared=16
 Will use up to   16 processors via shared memory.
 %mem = 64GB
 %Chk=check_sp_14
 ----------------------------------------------
 #n M062X/cc-pvtz TD EmpiricalDispersion=GD3 SP
 ----------------------------------------------
 1/38=1,172=1/1;
 2/12=2,17=6,18=5,40=1/2;
 3/5=16,6=1,11=9,25=1,30=1,74=-55,124=31/1,2,3,8;
 4//1;
 5/5=2,38=5/2;
 8/6=1,10=1/1;
 9/42=1,70=2/14;
 6/7=2,8=2,9=2,10=2/1;
 99/5=1,9=1/99;
 -----
 SP_14
 -----
 Symbolic Z-matrix:
 Charge =  1 Multiplicity = 1
 C                     2.48874   1.36943   0. 
 C                     3.69712   0.67883   0. 
 C                     3.68234  -0.7083    0. 
 C                     2.46719  -1.40108   0. 
 C                    -2.45903  -1.39652   0. 
 C                    -3.68512  -0.7017    0. 
 C                    -3.70562   0.6825    0. 
 C                    -2.49581   1.36905   0. 
 C                    -0.0022    1.46106   0. 
 C                     0.0064   -1.42039   0. 
 C                     1.26321   0.68798   0. 
 C                     1.24005  -0.72239   0. 
 C                    -1.26086   0.68368   0. 
 C                    -1.23507  -0.72188   0. 
 H                     2.48673   2.45264   0. 
 H                     4.63234   1.21882   0. 
 H                     4.60969  -1.26351   0. 
 H                     2.4694   -2.48354   0. 
 H                     0.00594  -2.50147   0. 
 H                    -2.46567  -2.47914   0. 
 H                    -4.60866  -1.26347   0. 
 H                    -4.64081   1.22201   0. 
 H                    -2.48872   2.45233   0. 
 H                    -0.00864   2.15433  -0.85933 
 H                    -0.00864   2.15433   0.85933 
 
                          Input orientation:                          
 ---------------------------------------------------------------------
 Center     Atomic      Atomic             Coordinates (Angstroms)
 Number     Number       Type             X           Y           Z
 ---------------------------------------------------------------------
      1          6           0        2.488741    1.369433    0.000000
      2          6           0        3.697121    0.678831    0.000000
      3          6           0        3.682341   -0.708304    0.000000
      4          6           0        2.467187   -1.401078    0.000000
      5          6           0       -2.459029   -1.396518    0.000000
      6          6           0       -3.685119   -0.701697    0.000000
      7          6           0       -3.705620    0.682497    0.000000
      8          6           0       -2.495807    1.369048    0.000000
      9          6           0       -0.002197    1.461064    0.000000
     10          6           0        0.006402   -1.420389    0.000000
     11          6           0        1.263212    0.687983    0.000000
     12          6           0        1.240046   -0.722387    0.000000
     13          6           0       -1.260864    0.683680    0.000000
     14          6           0       -1.235074   -0.721883    0.000000
     15          1           0        2.486726    2.452635    0.000000
     16          1           0        4.632338    1.218824    0.000000
     17          1           0        4.609689   -1.263510    0.000000
     18          1           0        2.469401   -2.483536    0.000000
     19          1           0        0.005937   -2.501473    0.000000
     20          1           0       -2.465670   -2.479141    0.000000
     21          1           0       -4.608656   -1.263475    0.000000
     22          1           0       -4.640810    1.222008    0.000000
     23          1           0       -2.488719    2.452327    0.000000
     24          1           0       -0.008644    2.154331   -0.859329
     25          1           0       -0.008644    2.154331    0.859329
 ---------------------------------------------------------------------
                    Distance matrix (angstroms):
                    1          2          3          4          5
     1  C    0.000000
     2  C    1.391802   0.000000
     3  C    2.396178   1.387214   0.000000
     4  C    2.770595   2.416352   1.398762   0.000000
     5  C    5.668413   6.496557   6.179811   4.926218   0.000000
     6  C    6.511998   7.510215   7.367462   6.191930   1.409280
     7  C    6.232335   7.402743   7.517732   6.514970   2.424106
     8  C    4.984548   6.231273   6.518044   5.683741   2.765810
     9  C    2.492623   3.781117   4.275743   3.780174   3.768527
    10  C    3.734315   4.245955   3.744274   2.460861   2.465547
    11  C    1.402247   2.433927   2.793170   2.411168   4.266172
    12  C    2.436175   2.828538   2.442335   1.402319   3.760001
    13  C    3.811796   4.957987   5.135454   4.271368   2.400588
    14  C    4.270879   5.127237   4.917434   3.764047   1.397568
    15  H    1.083204   2.147426   3.379501   3.853763   6.267094
    16  H    2.148881   1.079918   2.148561   3.398789   7.558273
    17  H    3.380948   2.146036   1.080847   2.146914   7.069970
    18  H    3.853017   3.392324   2.150040   1.082460   5.046883
    19  H    4.598720   4.872286   4.090403   2.696038   2.701294
    20  H    6.273572   6.924795   6.397960   5.049287   1.082644
    21  H    7.570023   8.529859   8.309563   7.077181   2.153740
    22  H    7.131075   8.355605   8.544059   7.576556   3.408349
    23  H    5.093895   6.435053   6.933366   6.277717   3.848959
    24  H    2.755258   4.080226   4.749368   4.416913   4.399018
    25  H    2.755258   4.080226   4.749368   4.416913   4.399018
                    6          7          8          9         10
     6  C    0.000000
     7  C    1.384346   0.000000
     8  C    2.387980   1.391043   0.000000
     9  C    4.271000   3.784377   2.495307   0.000000
    10  C    3.760830   4.266291   3.747266   2.881465   0.000000
    11  C    5.139765   4.968835   3.820219   1.482874   2.454547
    12  C    4.925208   5.141334   4.281436   2.512096   1.417422
    13  C    2.792182   2.444757   1.412379   1.479380   2.456230
    14  C    2.450127   2.841809   2.441606   2.507039   1.424491
    15  H    6.931196   6.440383   5.098999   2.679170   4.599165
    16  H    8.536304   8.355189   7.129727   4.640861   5.325854
    17  H    8.313812   8.539984   7.577495   5.356566   4.605959
    18  H    6.407266   6.939355   6.284559   4.654961   2.682656
    19  H    4.106469   4.890126   4.608650   3.962546   1.081085
    20  H    2.155542   3.396091   3.848307   4.646925   2.689256
    21  H    1.080979   2.145292   3.375545   5.351875   4.617725
    22  H    2.148019   1.079653   2.150037   4.644769   5.345918
    23  H    3.373313   2.147824   1.083302   2.676825   4.606903
    24  H    4.734111   4.070918   2.746105   1.104132   3.676587
    25  H    4.734111   4.070918   2.746105   1.104132   3.676587
                   11         12         13         14         15
    11  C    0.000000
    12  C    1.410560   0.000000
    13  C    2.524079   2.869072   0.000000
    14  C    2.868651   2.475121   1.405800   0.000000
    15  H    2.147320   3.411007   4.144107   4.891764   0.000000
    16  H    3.410689   3.908445   5.917449   6.180038   2.475064
    17  H    3.873917   3.412815   6.185058   5.869806   4.279803
    18  H    3.393143   2.147780   4.893478   4.102019   4.936201
    19  H    3.428319   2.165219   3.427825   2.169574   5.540532
    20  H    4.892365   4.101039   3.384523   2.145302   6.989180
    21  H    6.187650   5.873678   3.872870   3.416778   8.009614
    22  H    5.928124   6.193960   3.422548   3.921447   7.232994
    23  H    4.146070   4.897192   2.153077   3.412804   4.975444
    24  H    2.122791   3.251642   2.114075   3.242713   2.655994
    25  H    2.122791   3.251642   2.114075   3.242713   2.655994
                   16         17         18         19         20
    16  H    0.000000
    17  H    2.482438   0.000000
    18  H    4.287863   2.463595   0.000000
    19  H    5.936682   4.767293   2.463529   0.000000
    20  H    8.003540   7.179029   4.935072   2.471708   0.000000
    21  H    9.568582   9.218345   7.182439   4.777773   2.463785
    22  H    9.273148   9.578598   8.017864   5.954542   4.292987
    23  H    7.227100   8.012168   6.996120   5.546481   4.931522
    24  H    4.811687   5.809396   5.328129   4.734466   5.314554
    25  H    4.811687   5.809396   5.328129   4.734466   5.314554
                   21         22         23         24         25
    21  H    0.000000
    22  H    2.485690   0.000000
    23  H    4.278004   2.478948   0.000000
    24  H    5.794821   4.802565   2.641594   0.000000
    25  H    5.794821   4.802565   2.641594   1.718659   0.000000
 Stoichiometry    C14H11(1+)
 Framework group  CS[SG(C14H9),X(H2)]
 Deg. of freedom    46
 Full point group                 CS      NOp   2
 Largest Abelian subgroup         CS      NOp   2
 Largest concise Abelian subgroup CS      NOp   2
                         Standard orientation:                         
 ---------------------------------------------------------------------
 Center     Atomic      Atomic             Coordinates (Angstroms)
 Number     Number       Type             X           Y           Z
 ---------------------------------------------------------------------
      1          6           0        2.494997   -1.349419    0.000000
      2          6           0        3.700225   -0.653331    0.000000
      3          6           0        3.679138    0.733722    0.000000
      4          6           0        2.460847    1.420965    0.000000
      5          6           0       -2.465297    1.394008    0.000000
      6          6           0       -3.688215    0.693621    0.000000
      7          6           0       -3.702424   -0.690652    0.000000
      8          6           0       -2.489502   -1.371696    0.000000
      9          6           0        0.004500   -1.452374    0.000000
     10          6           0        0.000000    1.429088    0.000000
     11          6           0        1.266382   -0.673548    0.000000
     12          6           0        1.236805    0.736701    0.000000
     13          6           0       -1.257687   -0.680721    0.000000
     14          6           0       -1.238288    0.724945    0.000000
     15          1           0        2.497906   -2.432620    0.000000
     16          1           0        4.637886   -1.189067    0.000000
     17          1           0        4.603953    1.293139    0.000000
     18          1           0        2.458140    2.503421    0.000000
     19          1           0       -0.005380    2.510159    0.000000
     20          1           0       -2.476860    2.476591    0.000000
     21          1           0       -4.614297    1.251194    0.000000
     22          1           0       -4.635151   -1.234409    0.000000
     23          1           0       -2.477488   -2.454932    0.000000
     24          1           0        0.001206   -2.145663    0.859329
     25          1           0        0.001206   -2.145663   -0.859329
 ---------------------------------------------------------------------
 Rotational constants (GHZ):           2.1365803           0.4446661           0.3688641
 Standard basis: CC-pVTZ (5D, 7F)
 There are   450 symmetry adapted cartesian basis functions of A'  symmetry.
 There are   205 symmetry adapted cartesian basis functions of A"  symmetry.
 There are   384 symmetry adapted basis functions of A'  symmetry.
 There are   190 symmetry adapted basis functions of A"  symmetry.
   574 basis functions,   915 primitive gaussians,   655 cartesian basis functions
    47 alpha electrons       47 beta electrons
       nuclear repulsion energy       781.2404136006 Hartrees.
 NAtoms=   25 NActive=   25 NUniq=   24 SFac= 1.09D+00 NAtFMM=   60 NAOKFM=F Big=F
 Integral buffers will be    131072 words long.
 Regular integral format.
 Two-electron integral symmetry is turned on.
 Nuclear repulsion after empirical dispersion term =      781.2394341286 Hartrees.
 One-electron integrals computed using PRISM.
 NBasis=   574 RedAO= T EigKep=  1.73D-05  NBF=   384   190
 NBsUse=   574 1.00D-06 EigRej= -1.00D+00 NBFU=   384   190
 ExpMin= 1.03D-01 ExpMax= 8.24D+03 ExpMxC= 2.81D+02 IAcc=3 IRadAn=         5 AccDes= 0.00D+00
 Harris functional with IExCor= 1009 and IRadAn=       5 diagonalized for initial guess.
 HarFok:  IExCor= 1009 AccDes= 0.00D+00 IRadAn=         5 IDoV= 1 UseB2=F ITyADJ=14
 ICtDFT=  3500011 ScaDFX=  1.000000  1.000000  1.000000  1.000000
 FoFCou: FMM=F IPFlag=           0 FMFlag=      100000 FMFlg1=           0
         NFxFlg=           0 DoJE=T BraDBF=F KetDBF=T FulRan=T
         wScrn=  0.000000 ICntrl=       500 IOpCl=  0 I1Cent=   200000004 NGrid=           0
         NMat0=    1 NMatS0=      1 NMatT0=    0 NMatD0=    1 NMtDS0=    0 NMtDT0=    0
 Petite list used in FoFCou.
 Initial guess orbital symmetries:
       Occupied  (A') (A') (A') (A') (A') (A') (A') (A') (A') (A')
                 (A') (A') (A') (A') (A') (A') (A') (A') (A') (A')
                 (A') (A') (A') (A') (A') (A') (A') (A') (A') (A')
                 (A') (A') (A") (A') (A') (A') (A') (A') (A') (A")
                 (A") (A') (A') (A") (A") (A") (A")
       Virtual   (A") (A") (A") (A") (A") (A') (A') (A") (A') (A")
                 (A') (A') (A') (A') (A') (A') (A') (A") (A') (A')
                 (A') (A') (A') (A') (A') (A') (A') (A') (A') (A')
                 (A") (A') (A") (A') (A") (A') (A") (A') (A') (A")
                 (A') (A') (A') (A') (A") (A') (A') (A") (A') (A")
                 (A") (A') (A') (A') (A") (A') (A") (A') (A') (A')
                 (A") (A') (A') (A') (A') (A") (A') (A") (A') (A')
                 (A") (A') (A') (A") (A') (A') (A') (A') (A") (A')
                 (A") (A') (A") (A") (A') (A") (A') (A") (A') (A')
                 (A') (A") (A') (A') (A') (A') (A") (A") (A') (A')
                 (A") (A') (A') (A') (A') (A") (A') (A') (A') (A")
                 (A") (A') (A') (A') (A") (A') (A') (A') (A") (A")
                 (A') (A") (A') (A') (A") (A') (A") (A') (A") (A')
                 (A') (A") (A") (A') (A') (A") (A") (A') (A') (A')
                 (A") (A') (A') (A") (A') (A') (A") (A') (A') (A")
                 (A') (A') (A") (A') (A') (A') (A') (A") (A") (A')
                 (A') (A') (A") (A') (A') (A') (A") (A') (A') (A')
                 (A") (A') (A') (A') (A') (A") (A') (A') (A') (A')
                 (A") (A') (A') (A") (A') (A") (A') (A') (A') (A')
                 (A') (A") (A') (A') (A") (A") (A') (A') (A') (A')
                 (A") (A') (A') (A') (A') (A") (A') (A") (A") (A")
                 (A') (A") (A") (A') (A') (A") (A') (A") (A') (A')
                 (A") (A') (A') (A') (A') (A') (A') (A") (A') (A')
                 (A') (A") (A') (A") (A") (A') (A') (A") (A") (A')
                 (A') (A') (A') (A') (A") (A") (A") (A") (A') (A")
                 (A") (A') (A') (A') (A") (A") (A") (A") (A') (A')
                 (A") (A') (A') (A') (A") (A") (A') (A') (A") (A')
                 (A") (A") (A') (A") (A") (A') (A") (A') (A') (A')
                 (A') (A') (A") (A") (A') (A') (A") (A') (A') (A")
                 (A') (A') (A") (A') (A') (A") (A') (A") (A') (A')
                 (A') (A') (A") (A') (A') (A") (A') (A') (A") (A')
                 (A") (A") (A') (A") (A') (A") (A") (A') (A') (A")
                 (A') (A") (A') (A') (A') (A") (A') (A") (A') (A")
                 (A') (A") (A") (A") (A') (A') (A') (A') (A") (A')
                 (A') (A") (A') (A") (A") (A") (A') (A') (A") (A")
                 (A') (A') (A") (A') (A') (A") (A') (A') (A") (A')
                 (A') (A") (A') (A") (A') (A') (A') (A") (A") (A')
                 (A') (A") (A') (A") (A') (A") (A") (A') (A') (A')
                 (A') (A") (A") (A") (A') (A") (A') (A') (A') (A')
                 (A") (A') (A') (A") (A") (A') (A") (A') (A') (A")
                 (A') (A") (A') (A") (A') (A') (A') (A') (A') (A")
                 (A') (A") (A') (A') (A") (A') (A') (A") (A') (A")
                 (A") (A') (A") (A') (A") (A") (A') (A') (A') (A")
                 (A') (A') (A') (A') (A') (A') (A") (A") (A') (A')
                 (A') (A") (A") (A') (A') (A') (A") (A') (A') (A')
                 (A") (A") (A") (A') (A") (A') (A') (A') (A") (A')
                 (A") (A') (A") (A') (A") (A') (A') (A") (A") (A')
                 (A') (A') (A") (A') (A') (A') (A') (A') (A') (A')
                 (A') (A") (A") (A') (A') (A') (A") (A') (A") (A')
                 (A') (A') (A') (A') (A') (A') (A') (A') (A') (A')
                 (A') (A') (A') (A") (A') (A') (A') (A') (A') (A')
                 (A') (A') (A') (A') (A') (A') (A') (A') (A') (A')
                 (A') (A') (A') (A') (A') (A') (A')
 The electronic state of the initial guess is 1-A'.
 Requested convergence on RMS density matrix=1.00D-08 within 128 cycles.
 Requested convergence on MAX density matrix=1.00D-06.
 Requested convergence on             energy=1.00D-06.
 No special actions if energy rises.
 Integral accuracy reduced to 1.0D-05 until final iterations.
 Initial convergence to 1.0D-05 achieved.  Increase integral accuracy.
 SCF Done:  E(RM062X) =  -539.815707919     A.U. after   14 cycles
            NFock= 14  Conv=0.53D-08     -V/T= 2.0063
 DoSCS=F DFT=T ScalE2(SS,OS)=  1.000000  1.000000
 ExpMin= 1.03D-01 ExpMax= 8.24D+03 ExpMxC= 2.81D+02 IAcc=3 IRadAn=         5 AccDes= 0.00D+00
 HarFok:  IExCor=  205 AccDes= 0.00D+00 IRadAn=         5 IDoV=-2 UseB2=F ITyADJ=14
 ICtDFT= 12500011 ScaDFX=  1.000000  1.000000  1.000000  1.000000
 Range of M.O.s used for correlation:    15   574
 NBasis=   574 NAE=    47 NBE=    47 NFC=    14 NFV=     0
 NROrb=    560 NOA=    33 NOB=    33 NVA=   527 NVB=   527

 **** Warning!!: The largest alpha MO coefficient is  0.55874900D+02

 Orbital symmetries:
       Occupied  (A') (A') (A') (A') (A') (A') (A') (A') (A') (A')
                 (A') (A') (A') (A') (A') (A') (A') (A') (A') (A')
                 (A') (A') (A') (A') (A') (A') (A') (A') (A') (A')
                 (A') (A") (A') (A') (A') (A') (A') (A") (A") (A')
                 (A') (A') (A') (A") (A") (A") (A")
       Virtual   (A") (A") (A") (A") (A") (A') (A') (A') (A') (A')
                 (A") (A') (A') (A') (A') (A") (A') (A") (A') (A')
                 (A') (A') (A') (A') (A') (A') (A') (A") (A') (A')
                 (A') (A") (A') (A") (A') (A") (A") (A') (A') (A')
                 (A") (A") (A') (A') (A') (A') (A") (A') (A') (A")
                 (A') (A') (A') (A") (A') (A") (A') (A') (A') (A")
                 (A') (A') (A') (A') (A") (A") (A") (A') (A') (A')
                 (A') (A') (A") (A') (A') (A') (A') (A') (A") (A")
                 (A") (A') (A") (A') (A') (A") (A') (A') (A") (A')
                 (A') (A") (A') (A') (A") (A") (A') (A') (A') (A')
                 (A') (A") (A') (A') (A') (A') (A') (A') (A") (A')
                 (A") (A") (A') (A') (A') (A") (A') (A') (A') (A')
                 (A") (A") (A") (A") (A') (A') (A') (A") (A") (A')
                 (A') (A") (A") (A') (A') (A") (A") (A') (A') (A')
                 (A') (A") (A') (A') (A') (A") (A') (A") (A') (A")
                 (A') (A') (A') (A") (A') (A') (A") (A') (A") (A')
                 (A') (A') (A') (A") (A') (A") (A') (A') (A') (A')
                 (A") (A') (A') (A") (A') (A') (A') (A') (A') (A")
                 (A') (A') (A') (A") (A') (A') (A") (A') (A') (A')
                 (A') (A") (A') (A') (A') (A') (A') (A") (A') (A")
                 (A') (A') (A") (A') (A') (A') (A") (A') (A") (A")
                 (A") (A') (A") (A') (A") (A') (A") (A") (A') (A')
                 (A") (A') (A') (A') (A') (A') (A') (A") (A') (A')
                 (A") (A') (A') (A') (A") (A") (A') (A") (A") (A')
                 (A') (A') (A') (A') (A") (A") (A") (A") (A') (A")
                 (A") (A') (A") (A') (A") (A") (A') (A') (A") (A")
                 (A') (A') (A') (A') (A") (A") (A') (A') (A") (A')
                 (A") (A") (A") (A') (A') (A") (A") (A') (A') (A')
                 (A') (A") (A") (A') (A') (A") (A") (A') (A') (A')
                 (A') (A') (A') (A") (A") (A') (A") (A') (A') (A')
                 (A') (A") (A") (A') (A') (A") (A') (A') (A') (A")
                 (A") (A') (A") (A') (A") (A") (A') (A') (A") (A')
                 (A') (A") (A') (A') (A') (A") (A") (A") (A') (A')
                 (A") (A") (A") (A') (A') (A') (A') (A") (A') (A')
                 (A") (A") (A') (A") (A') (A") (A') (A') (A") (A")
                 (A') (A") (A') (A") (A') (A') (A") (A') (A') (A')
                 (A") (A') (A") (A') (A") (A') (A") (A') (A') (A')
                 (A") (A") (A') (A") (A') (A") (A') (A") (A") (A')
                 (A") (A') (A") (A') (A') (A') (A") (A') (A') (A')
                 (A') (A") (A") (A") (A') (A') (A") (A') (A") (A')
                 (A') (A') (A") (A') (A') (A") (A') (A') (A') (A')
                 (A') (A") (A") (A') (A') (A') (A') (A") (A") (A')
                 (A") (A") (A') (A') (A") (A") (A') (A') (A') (A')
                 (A") (A') (A') (A') (A') (A") (A") (A') (A') (A')
                 (A') (A") (A") (A') (A') (A') (A") (A') (A') (A")
                 (A') (A') (A") (A") (A") (A') (A') (A') (A") (A")
                 (A') (A') (A") (A') (A") (A') (A') (A") (A") (A')
                 (A') (A") (A') (A') (A') (A') (A') (A') (A') (A')
                 (A') (A") (A") (A') (A') (A') (A") (A') (A") (A')
                 (A') (A') (A') (A') (A') (A') (A') (A') (A') (A')
                 (A') (A') (A") (A') (A') (A') (A') (A') (A') (A')
                 (A') (A') (A') (A') (A') (A') (A') (A') (A') (A')
                 (A') (A') (A') (A') (A') (A') (A')
    12 initial guesses have been made.
 Convergence on wavefunction:    0.001000000000000
 Iteration     1 Dimension    12 NMult     0 NNew     12
 CISAX will form    12 AO SS matrices at one time.
 New state      2 was old state      3
 New state      3 was old state      2
 Iteration     2 Dimension    18 NMult    12 NNew      6
 Iteration     3 Dimension    24 NMult    18 NNew      6
 Iteration     4 Dimension    30 NMult    24 NNew      6
 Iteration     5 Dimension    36 NMult    30 NNew      6
 Iteration     6 Dimension    40 NMult    36 NNew      4
 ***********************************************************************
 Excited states from <AA,BB:AA,BB> singles matrix:
 ***********************************************************************
 
 Ground to excited state transition densities written to RWF  633
 Ground to excited state transition electric dipole moments (Au):
       state          X           Y           Z        Dip. S.      Osc.
         1        -0.0053     -0.6291      0.0000      0.3958      0.0273
         2        -0.2179      0.0669      0.0000      0.0519      0.0042
         3        -2.5286     -0.0183      0.0000      6.3943      0.5461
 Ground to excited state transition velocity dipole moments (Au):
       state          X           Y           Z        Dip. S.      Osc.
         1         0.0004      0.0690     -0.0000      0.0048      0.0306
         2         0.0253     -0.0084     -0.0000      0.0007      0.0039
         3         0.3335      0.0024     -0.0000      0.1112      0.5787
 Ground to excited state transition magnetic dipole moments (Au):
       state          X           Y           Z
         1         0.0000      0.0000     -0.0419
         2         0.0000      0.0000     -0.9365
         3         0.0000     -0.0000     -1.1125
 Ground to excited state transition velocity quadrupole moments (Au):
       state          XX          YY          ZZ          XY          XZ          YZ
         1         0.2711      0.0296     -0.0077     -0.0167     -0.0000      0.0000
         2        -0.0298     -0.0074      0.0010     -0.2795     -0.0000      0.0000
         3         0.0175     -0.0021      0.0000     -0.1122      0.0000      0.0000
 <0|del|b> * <b|rxdel|0> + <0|del|b> * <b|delr+rdel|0>
 Rotatory Strengths (R) in cgs (10**-40 erg-esu-cm/Gauss)
       state          XX          YY          ZZ    R(velocity)    E-M Angle
         1         0.0000      0.0000      0.0000      0.0000       90.00
         2         0.0000      0.0000      0.0000      0.0000       90.00
         3         0.0000      0.0000      0.0000      0.0000       90.00
 1/2[<0|r|b>*<b|rxdel|0> + (<0|rxdel|b>*<b|r|0>)*]
 Rotatory Strengths (R) in cgs (10**-40 erg-esu-cm/Gauss)
       state          XX          YY          ZZ     R(length)
         1         0.0000      0.0000      0.0000      0.0000
         2         0.0000     -0.0000      0.0000      0.0000
         3         0.0000     -0.0000      0.0000      0.0000
  1/2[<0|del|b>*<b|r|0> + (<0|r|b>*<b|del|0>)*] (Au)
       state          X           Y           Z        Dip. S.   Osc.(frdel)
         1        -0.0000     -0.0434     -0.0000      0.0434      0.0289
         2        -0.0055     -0.0006     -0.0000      0.0061      0.0040
         3        -0.8432     -0.0000     -0.0000      0.8433      0.5622

 Excitation energies and oscillator strengths:
 
 Excited State   1:      Singlet-A'     2.8185 eV  439.89 nm  f=0.0273  <S**2>=0.000
      47 -> 48         0.70410
 This state for optimization and/or second-order correction.
 Total Energy, E(TD-HF/TD-DFT) =  -539.712130047    
 Copying the excited state density for this state as the 1-particle RhoCI density.
 
 Excited State   2:      Singlet-A'     3.2705 eV  379.10 nm  f=0.0042  <S**2>=0.000
      45 -> 48         0.61753
      46 -> 48         0.33275
 
 Excited State   3:      Singlet-A'     3.4861 eV  355.66 nm  f=0.5461  <S**2>=0.000
      45 -> 48        -0.33482
      46 -> 48         0.61311
 SavETr:  write IOETrn=   770 NScale= 10 NData=  16 NLR=1 NState=    3 LETran=      64.

 **********************************************************************

            Population analysis using the SCF Density.

 **********************************************************************

 Orbital symmetries:
       Occupied  (A') (A') (A') (A') (A') (A') (A') (A') (A') (A')
                 (A') (A') (A') (A') (A') (A') (A') (A') (A') (A')
                 (A') (A') (A') (A') (A') (A') (A') (A') (A') (A')
                 (A') (A") (A') (A') (A') (A') (A') (A") (A") (A')
                 (A') (A') (A') (A") (A") (A") (A")
       Virtual   (A") (A") (A") (A") (A") (A') (A') (A') (A') (A')
                 (A") (A') (A') (A') (A') (A") (A') (A") (A') (A')
                 (A') (A') (A') (A') (A') (A') (A') (A") (A') (A')
                 (A') (A") (A') (A") (A') (A") (A") (A') (A') (A')
                 (A") (A") (A') (A') (A') (A') (A") (A') (A') (A")
                 (A') (A') (A') (A") (A') (A") (A') (A') (A') (A")
                 (A') (A') (A') (A') (A") (A") (A") (A') (A') (A')
                 (A') (A') (A") (A') (A') (A') (A') (A') (A") (A")
                 (A") (A') (A") (A') (A') (A") (A') (A') (A") (A')
                 (A') (A") (A') (A') (A") (A") (A') (A') (A') (A')
                 (A') (A") (A') (A') (A') (A') (A') (A') (A") (A')
                 (A") (A") (A') (A') (A') (A") (A') (A') (A') (A')
                 (A") (A") (A") (A") (A') (A') (A') (A") (A") (A')
                 (A') (A") (A") (A') (A') (A") (A") (A') (A') (A')
                 (A') (A") (A') (A') (A') (A") (A') (A") (A') (A")
                 (A') (A') (A') (A") (A') (A') (A") (A') (A") (A')
                 (A') (A') (A') (A") (A') (A") (A') (A') (A') (A')
                 (A") (A') (A') (A") (A') (A') (A') (A') (A') (A")
                 (A') (A') (A') (A") (A') (A') (A") (A') (A') (A')
                 (A') (A") (A') (A') (A') (A') (A') (A") (A') (A")
                 (A') (A') (A") (A') (A') (A') (A") (A') (A") (A")
                 (A") (A') (A") (A') (A") (A') (A") (A") (A') (A')
                 (A") (A') (A') (A') (A') (A') (A') (A") (A') (A')
                 (A") (A') (A') (A') (A") (A") (A') (A") (A") (A')
                 (A') (A') (A') (A') (A") (A") (A") (A") (A') (A")
                 (A") (A') (A") (A') (A") (A") (A') (A') (A") (A")
                 (A') (A') (A') (A') (A") (A") (A') (A') (A") (A')
                 (A") (A") (A") (A') (A') (A") (A") (A') (A') (A')
                 (A') (A") (A") (A') (A') (A") (A") (A') (A') (A')
                 (A') (A') (A') (A") (A") (A') (A") (A') (A') (A')
                 (A') (A") (A") (A') (A') (A") (A') (A') (A') (A")
                 (A") (A') (A") (A') (A") (A") (A') (A') (A") (A')
                 (A') (A") (A') (A') (A') (A") (A") (A") (A') (A')
                 (A") (A") (A") (A') (A') (A') (A') (A") (A') (A')
                 (A") (A") (A') (A") (A') (A") (A') (A') (A") (A")
                 (A') (A") (A') (A") (A') (A') (A") (A') (A') (A')
                 (A") (A') (A") (A') (A") (A') (A") (A') (A') (A')
                 (A") (A") (A') (A") (A') (A") (A') (A") (A") (A')
                 (A") (A') (A") (A') (A') (A') (A") (A') (A') (A')
                 (A') (A") (A") (A") (A') (A') (A") (A') (A") (A')
                 (A') (A') (A") (A') (A') (A") (A') (A') (A') (A')
                 (A') (A") (A") (A') (A') (A') (A') (A") (A") (A')
                 (A") (A") (A') (A') (A") (A") (A') (A') (A') (A')
                 (A") (A') (A') (A') (A') (A") (A") (A') (A') (A')
                 (A') (A") (A") (A') (A') (A') (A") (A') (A') (A")
                 (A') (A') (A") (A") (A") (A') (A') (A') (A") (A")
                 (A') (A') (A") (A') (A") (A') (A') (A") (A") (A')
                 (A') (A") (A') (A') (A') (A') (A') (A') (A') (A')
                 (A') (A") (A") (A') (A') (A') (A") (A') (A") (A')
                 (A') (A') (A') (A') (A') (A') (A') (A') (A') (A')
                 (A') (A') (A") (A') (A') (A') (A') (A') (A') (A')
                 (A') (A') (A') (A') (A') (A') (A') (A') (A') (A')
                 (A') (A') (A') (A') (A') (A') (A')
 The electronic state is 1-A'.
 Alpha  occ. eigenvalues --  -10.77530 -10.73179 -10.73025 -10.72320 -10.72193
 Alpha  occ. eigenvalues --  -10.71305 -10.71161 -10.71059 -10.70837 -10.70777
 Alpha  occ. eigenvalues --  -10.69874 -10.69808 -10.69566 -10.69484  -1.16266
 Alpha  occ. eigenvalues --   -1.12291  -1.06776  -1.05590  -1.01157  -1.00048
 Alpha  occ. eigenvalues --   -0.95629  -0.90881  -0.86213  -0.85734  -0.83651
 Alpha  occ. eigenvalues --   -0.78240  -0.75793  -0.74198  -0.69354  -0.69081
 Alpha  occ. eigenvalues --   -0.68297  -0.68014  -0.67978  -0.64518  -0.64060
 Alpha  occ. eigenvalues --   -0.62822  -0.61656  -0.59960  -0.59646  -0.58899
 Alpha  occ. eigenvalues --   -0.56695  -0.54990  -0.54602  -0.52414  -0.46597
 Alpha  occ. eigenvalues --   -0.46001  -0.44418
 Alpha virt. eigenvalues --   -0.25958  -0.14401  -0.13959  -0.12485  -0.06850
 Alpha virt. eigenvalues --   -0.05511  -0.05368  -0.04073  -0.02675  -0.01624
 Alpha virt. eigenvalues --   -0.00210   0.00381   0.00578   0.01935   0.02309
 Alpha virt. eigenvalues --    0.04321   0.04509   0.07196   0.07822   0.09470
 Alpha virt. eigenvalues --    0.09935   0.10395   0.12691   0.14070   0.14176
 Alpha virt. eigenvalues --    0.15726   0.15917   0.16471   0.16722   0.16967
 Alpha virt. eigenvalues --    0.17743   0.17945   0.19453   0.19683   0.20385
 Alpha virt. eigenvalues --    0.20770   0.21989   0.22523   0.22925   0.24300
 Alpha virt. eigenvalues --    0.25252   0.26409   0.26754   0.27014   0.27435
 Alpha virt. eigenvalues --    0.28176   0.28321   0.28666   0.29125   0.29466
 Alpha virt. eigenvalues --    0.30110   0.30256   0.30728   0.31351   0.32303
 Alpha virt. eigenvalues --    0.33071   0.33141   0.34441   0.34535   0.34626
 Alpha virt. eigenvalues --    0.36028   0.37013   0.38307   0.38565   0.38708
 Alpha virt. eigenvalues --    0.39413   0.39476   0.39651   0.41054   0.43051
 Alpha virt. eigenvalues --    0.43395   0.44779   0.44960   0.45707   0.46696
 Alpha virt. eigenvalues --    0.47943   0.49079   0.49579   0.49683   0.50968
 Alpha virt. eigenvalues --    0.52933   0.53235   0.55887   0.55993   0.58083
 Alpha virt. eigenvalues --    0.58500   0.58601   0.58937   0.61196   0.61496
 Alpha virt. eigenvalues --    0.61997   0.62524   0.63203   0.63647   0.65985
 Alpha virt. eigenvalues --    0.66250   0.66763   0.67304   0.68270   0.69893
 Alpha virt. eigenvalues --    0.70265   0.71264   0.71495   0.72208   0.73987
 Alpha virt. eigenvalues --    0.75101   0.76401   0.76729   0.77207   0.79170
 Alpha virt. eigenvalues --    0.80468   0.80614   0.82068   0.83852   0.84671
 Alpha virt. eigenvalues --    0.85515   0.85837   0.86031   0.86221   0.88350
 Alpha virt. eigenvalues --    0.88667   0.88930   0.89663   0.92109   0.93136
 Alpha virt. eigenvalues --    0.93424   0.94873   0.94934   0.95324   0.95979
 Alpha virt. eigenvalues --    0.96862   0.97504   0.99258   1.01185   1.03346
 Alpha virt. eigenvalues --    1.04064   1.04768   1.05289   1.06367   1.07346
 Alpha virt. eigenvalues --    1.07801   1.09615   1.10494   1.12034   1.12345
 Alpha virt. eigenvalues --    1.12817   1.13887   1.14631   1.15386   1.15758
 Alpha virt. eigenvalues --    1.16684   1.16726   1.18021   1.18156   1.19945
 Alpha virt. eigenvalues --    1.22108   1.22141   1.22366   1.24429   1.24584
 Alpha virt. eigenvalues --    1.25703   1.26645   1.27612   1.28128   1.28827
 Alpha virt. eigenvalues --    1.29255   1.29984   1.30502   1.31921   1.32742
 Alpha virt. eigenvalues --    1.34881   1.35910   1.37236   1.37544   1.37723
 Alpha virt. eigenvalues --    1.41420   1.42318   1.42729   1.43960   1.45565
 Alpha virt. eigenvalues --    1.46727   1.47152   1.47317   1.49734   1.50647
 Alpha virt. eigenvalues --    1.56548   1.56814   1.62761   1.63356   1.65565
 Alpha virt. eigenvalues --    1.68698   1.70208   1.73341   1.76705   1.81497
 Alpha virt. eigenvalues --    1.81876   1.82303   1.86664   1.86665   1.89593
 Alpha virt. eigenvalues --    1.91199   1.92337   1.92871   1.94209   1.94832
 Alpha virt. eigenvalues --    1.96777   2.00084   2.03248   2.03662   2.04576
 Alpha virt. eigenvalues --    2.04759   2.06438   2.08376   2.09068   2.10316
 Alpha virt. eigenvalues --    2.13024   2.13513   2.15551   2.15872   2.19103
 Alpha virt. eigenvalues --    2.22987   2.23325   2.23968   2.26673   2.28522
 Alpha virt. eigenvalues --    2.28545   2.29308   2.30282   2.32108   2.32343
 Alpha virt. eigenvalues --    2.33327   2.33679   2.34852   2.35911   2.36155
 Alpha virt. eigenvalues --    2.36620   2.37099   2.38376   2.38807   2.39057
 Alpha virt. eigenvalues --    2.39442   2.43573   2.44526   2.45253   2.46819
 Alpha virt. eigenvalues --    2.48397   2.50358   2.50628   2.52953   2.53347
 Alpha virt. eigenvalues --    2.53813   2.55596   2.57298   2.57464   2.57491
 Alpha virt. eigenvalues --    2.58026   2.58549   2.59174   2.59553   2.59708
 Alpha virt. eigenvalues --    2.61492   2.61666   2.64330   2.64863   2.65381
 Alpha virt. eigenvalues --    2.66260   2.66801   2.68282   2.69232   2.70882
 Alpha virt. eigenvalues --    2.72528   2.74441   2.74583   2.75102   2.75549
 Alpha virt. eigenvalues --    2.76215   2.76390   2.78098   2.79431   2.80195
 Alpha virt. eigenvalues --    2.80236   2.81077   2.81186   2.82545   2.83680
 Alpha virt. eigenvalues --    2.84741   2.84908   2.85397   2.85605   2.85865
 Alpha virt. eigenvalues --    2.87951   2.88803   2.89061   2.89718   2.91475
 Alpha virt. eigenvalues --    2.92262   2.92481   2.92602   2.93017   2.93884
 Alpha virt. eigenvalues --    2.93994   2.95394   2.95971   2.96093   2.96921
 Alpha virt. eigenvalues --    2.98096   2.98314   2.98946   3.00184   3.01402
 Alpha virt. eigenvalues --    3.01818   3.02007   3.03350   3.03374   3.04124
 Alpha virt. eigenvalues --    3.05680   3.06040   3.06235   3.07644   3.07980
 Alpha virt. eigenvalues --    3.10719   3.12743   3.13187   3.15209   3.15362
 Alpha virt. eigenvalues --    3.15418   3.15599   3.16209   3.16992   3.17907
 Alpha virt. eigenvalues --    3.20434   3.20815   3.21014   3.21496   3.22255
 Alpha virt. eigenvalues --    3.22749   3.23560   3.24089   3.24285   3.26881
 Alpha virt. eigenvalues --    3.28985   3.29041   3.29376   3.29806   3.31384
 Alpha virt. eigenvalues --    3.33051   3.33945   3.33971   3.34655   3.36568
 Alpha virt. eigenvalues --    3.39304   3.40262   3.41138   3.43673   3.45321
 Alpha virt. eigenvalues --    3.46705   3.46982   3.49145   3.50585   3.50670
 Alpha virt. eigenvalues --    3.50699   3.53677   3.53744   3.54632   3.55973
 Alpha virt. eigenvalues --    3.56409   3.56897   3.57010   3.57461   3.59742
 Alpha virt. eigenvalues --    3.60547   3.61191   3.61730   3.61939   3.63270
 Alpha virt. eigenvalues --    3.63997   3.65431   3.66397   3.67762   3.67780
 Alpha virt. eigenvalues --    3.67917   3.68169   3.68655   3.69378   3.70867
 Alpha virt. eigenvalues --    3.72034   3.75762   3.76251   3.76769   3.78408
 Alpha virt. eigenvalues --    3.78552   3.78654   3.80623   3.83102   3.83285
 Alpha virt. eigenvalues --    3.83340   3.85192   3.85374   3.85636   3.87905
 Alpha virt. eigenvalues --    3.89332   3.89407   3.89950   3.92054   3.94455
 Alpha virt. eigenvalues --    3.95226   3.95498   3.95849   3.96854   3.97919
 Alpha virt. eigenvalues --    3.98063   3.98190   4.01298   4.01869   4.02190
 Alpha virt. eigenvalues --    4.03787   4.05692   4.05800   4.06648   4.07458
 Alpha virt. eigenvalues --    4.07656   4.08475   4.08549   4.11229   4.11386
 Alpha virt. eigenvalues --    4.12236   4.12735   4.13160   4.14303   4.15009
 Alpha virt. eigenvalues --    4.15665   4.17061   4.18580   4.18837   4.21575
 Alpha virt. eigenvalues --    4.21602   4.23823   4.24352   4.27912   4.30094
 Alpha virt. eigenvalues --    4.31184   4.32584   4.33735   4.36203   4.37460
 Alpha virt. eigenvalues --    4.40644   4.42997   4.43138   4.47217   4.50856
 Alpha virt. eigenvalues --    4.50867   4.52853   4.53400   4.53896   4.54263
 Alpha virt. eigenvalues --    4.56703   4.58091   4.58218   4.61216   4.63169
 Alpha virt. eigenvalues --    4.66356   4.66696   4.68960   4.69800   4.70273
 Alpha virt. eigenvalues --    4.76142   4.76562   4.79961   4.80261   4.82019
 Alpha virt. eigenvalues --    4.83302   4.83599   4.83865   4.86716   4.88768
 Alpha virt. eigenvalues --    4.90112   4.91506   4.93029   4.96699   4.98542
 Alpha virt. eigenvalues --    5.00362   5.02310   5.05503   5.07522   5.10782
 Alpha virt. eigenvalues --    5.16342   5.16373   5.16847   5.19511   5.23461
 Alpha virt. eigenvalues --    5.24230   5.27723   5.31980   5.33196   5.43411
 Alpha virt. eigenvalues --    5.46267   5.48579   5.50882   5.58238   5.61778
 Alpha virt. eigenvalues --    5.62717   5.64988   5.69223   5.70265   5.78007
 Alpha virt. eigenvalues --    5.78996   5.83529   5.87092   5.99762   6.11391
 Alpha virt. eigenvalues --    6.14559   6.48206   6.63286   8.16910   9.51704
 Alpha virt. eigenvalues --   11.52742  12.20514  12.43987  12.69482  12.83498
 Alpha virt. eigenvalues --   12.93599  13.07304  13.36941  14.49342  14.59807
 Alpha virt. eigenvalues --   15.10196  15.66348
          Condensed to atoms (all electrons):
               1          2          3          4          5          6
     1  C    4.935855   0.499178  -0.062389  -0.019396   0.000046   0.000001
     2  C    0.499178   4.825201   0.470458  -0.064731  -0.000004  -0.000000
     3  C   -0.062389   0.470458   4.904109   0.519866   0.000012   0.000000
     4  C   -0.019396  -0.064731   0.519866   4.908217  -0.000255   0.000011
     5  C    0.000046  -0.000004   0.000012  -0.000255   4.918781   0.520593
     6  C    0.000001  -0.000000   0.000000   0.000011   0.520593   4.902256
     7  C    0.000006  -0.000000  -0.000000  -0.000003  -0.063880   0.472519
     8  C   -0.000053   0.000006   0.000001   0.000044  -0.020987  -0.063986
     9  C   -0.065703   0.004559  -0.001441   0.005369   0.005593  -0.001409
    10  C    0.006559  -0.001600   0.007728  -0.041396  -0.041621   0.007416
    11  C    0.482270  -0.040304  -0.039927  -0.072897  -0.001973   0.000164
    12  C   -0.055362  -0.025020  -0.042922   0.414738   0.007517  -0.000427
    13  C    0.008677  -0.000133   0.000169  -0.001926  -0.074597  -0.040698
    14  C   -0.001463  -0.000056  -0.000446   0.007456   0.414854  -0.043270
    15  H    0.430712  -0.037102   0.005383  -0.000829  -0.000000   0.000000
    16  H   -0.044248   0.437533  -0.043901   0.005802   0.000000  -0.000000
    17  H    0.005725  -0.043792   0.435666  -0.041763  -0.000000   0.000000
    18  H   -0.000608   0.004780  -0.031438   0.439758  -0.000007   0.000001
    19  H   -0.000164   0.000038   0.000189  -0.001227  -0.001114   0.000155
    20  H   -0.000001  -0.000000   0.000001  -0.000007   0.439861  -0.030575
    21  H    0.000000   0.000000   0.000000  -0.000000  -0.041033   0.435204
    22  H   -0.000000   0.000000  -0.000000   0.000000   0.005776  -0.043979
    23  H    0.000018   0.000001   0.000000  -0.000000  -0.000809   0.005524
    24  H   -0.009745  -0.000088   0.000023   0.000156   0.000168   0.000023
    25  H   -0.009745  -0.000088   0.000023   0.000156   0.000168   0.000023
               7          8          9         10         11         12
     1  C    0.000006  -0.000053  -0.065703   0.006559   0.482270  -0.055362
     2  C   -0.000000   0.000006   0.004559  -0.001600  -0.040304  -0.025020
     3  C   -0.000000   0.000001  -0.001441   0.007728  -0.039927  -0.042922
     4  C   -0.000003   0.000044   0.005369  -0.041396  -0.072897   0.414738
     5  C   -0.063880  -0.020987   0.005593  -0.041621  -0.001973   0.007517
     6  C    0.472519  -0.063986  -0.001409   0.007416   0.000164  -0.000427
     7  C    4.822647   0.500232   0.004434  -0.001537  -0.000132  -0.000051
     8  C    0.500232   4.937282  -0.065845   0.006342   0.008704  -0.001437
     9  C    0.004434  -0.065845   5.049005  -0.023712   0.326732  -0.040702
    10  C   -0.001537   0.006342  -0.023712   4.874223  -0.039090   0.469605
    11  C   -0.000132   0.008704   0.326732  -0.039090   5.097039   0.341830
    12  C   -0.000051  -0.001437  -0.040702   0.469605   0.341830   5.042953
    13  C   -0.039558   0.484867   0.322162  -0.038547  -0.001889  -0.049293
    14  C   -0.023430  -0.056284  -0.040459   0.471831  -0.049105  -0.046566
    15  H    0.000001   0.000015   0.001605  -0.000072  -0.056483   0.008490
    16  H    0.000000  -0.000000  -0.000225   0.000040   0.007166  -0.000862
    17  H    0.000000   0.000000   0.000058  -0.000299  -0.000586   0.006543
    18  H   -0.000000  -0.000001  -0.000113  -0.000646   0.005004  -0.063051
    19  H    0.000039  -0.000162  -0.000192   0.417584   0.004895  -0.035854
    20  H    0.004617  -0.000556  -0.000118  -0.000805  -0.000060   0.000826
    21  H   -0.044144   0.005863   0.000057  -0.000283  -0.000005   0.000014
    22  H    0.437234  -0.043986  -0.000224   0.000039   0.000008  -0.000001
    23  H   -0.037177   0.430333   0.002084  -0.000067   0.000323  -0.000008
    24  H   -0.000074  -0.010082   0.413700  -0.002299  -0.038685   0.007716
    25  H   -0.000074  -0.010082   0.413700  -0.002299  -0.038685   0.007716
              13         14         15         16         17         18
     1  C    0.008677  -0.001463   0.430712  -0.044248   0.005725  -0.000608
     2  C   -0.000133  -0.000056  -0.037102   0.437533  -0.043792   0.004780
     3  C    0.000169  -0.000446   0.005383  -0.043901   0.435666  -0.031438
     4  C   -0.001926   0.007456  -0.000829   0.005802  -0.041763   0.439758
     5  C   -0.074597   0.414854  -0.000000   0.000000  -0.000000  -0.000007
     6  C   -0.040698  -0.043270   0.000000  -0.000000   0.000000   0.000001
     7  C   -0.039558  -0.023430   0.000001   0.000000   0.000000  -0.000000
     8  C    0.484867  -0.056284   0.000015  -0.000000   0.000000  -0.000001
     9  C    0.322162  -0.040459   0.001605  -0.000225   0.000058  -0.000113
    10  C   -0.038547   0.471831  -0.000072   0.000040  -0.000299  -0.000646
    11  C   -0.001889  -0.049105  -0.056483   0.007166  -0.000586   0.005004
    12  C   -0.049293  -0.046566   0.008490  -0.000862   0.006543  -0.063051
    13  C    5.108364   0.339150   0.000301   0.000008  -0.000005  -0.000056
    14  C    0.339150   5.038321  -0.000006  -0.000001   0.000015   0.000812
    15  H    0.000301  -0.000006   0.516215  -0.006098  -0.000192   0.000035
    16  H    0.000008  -0.000001  -0.006098   0.503111  -0.005966  -0.000154
    17  H   -0.000005   0.000015  -0.000192  -0.005966   0.508354  -0.006477
    18  H   -0.000056   0.000812   0.000035  -0.000154  -0.006477   0.517812
    19  H    0.004932  -0.034634   0.000011  -0.000002  -0.000028   0.002699
    20  H    0.005155  -0.063840   0.000000   0.000000   0.000000   0.000003
    21  H   -0.000543   0.006391  -0.000000   0.000000  -0.000000   0.000000
    22  H    0.007039  -0.000874  -0.000000  -0.000000   0.000000   0.000000
    23  H   -0.056600   0.008378   0.000010  -0.000000  -0.000000   0.000000
    24  H   -0.039541   0.007863   0.000441  -0.000009  -0.000000   0.000012
    25  H   -0.039541   0.007863   0.000441  -0.000009  -0.000000   0.000012
              19         20         21         22         23         24
     1  C   -0.000164  -0.000001   0.000000  -0.000000   0.000018  -0.009745
     2  C    0.000038  -0.000000   0.000000   0.000000   0.000001  -0.000088
     3  C    0.000189   0.000001   0.000000  -0.000000   0.000000   0.000023
     4  C   -0.001227  -0.000007  -0.000000   0.000000  -0.000000   0.000156
     5  C   -0.001114   0.439861  -0.041033   0.005776  -0.000809   0.000168
     6  C    0.000155  -0.030575   0.435204  -0.043979   0.005524   0.000023
     7  C    0.000039   0.004617  -0.044144   0.437234  -0.037177  -0.000074
     8  C   -0.000162  -0.000556   0.005863  -0.043986   0.430333  -0.010082
     9  C   -0.000192  -0.000118   0.000057  -0.000224   0.002084   0.413700
    10  C    0.417584  -0.000805  -0.000283   0.000039  -0.000067  -0.002299
    11  C    0.004895  -0.000060  -0.000005   0.000008   0.000323  -0.038685
    12  C   -0.035854   0.000826   0.000014  -0.000001  -0.000008   0.007716
    13  C    0.004932   0.005155  -0.000543   0.007039  -0.056600  -0.039541
    14  C   -0.034634  -0.063840   0.006391  -0.000874   0.008378   0.007863
    15  H    0.000011   0.000000  -0.000000  -0.000000   0.000010   0.000441
    16  H   -0.000002   0.000000   0.000000  -0.000000  -0.000000  -0.000009
    17  H   -0.000028   0.000000  -0.000000   0.000000  -0.000000  -0.000000
    18  H    0.002699   0.000003   0.000000   0.000000   0.000000   0.000012
    19  H    0.480168   0.002688  -0.000026  -0.000002   0.000011   0.000017
    20  H    0.002688   0.518470  -0.006324  -0.000154   0.000034   0.000013
    21  H   -0.000026  -0.006324   0.508235  -0.005953  -0.000199  -0.000000
    22  H   -0.000002  -0.000154  -0.005953   0.503140  -0.006068  -0.000009
    23  H    0.000011   0.000034  -0.000199  -0.006068   0.516790   0.000393
    24  H    0.000017   0.000013  -0.000000  -0.000009   0.000393   0.499635
    25  H    0.000017   0.000013  -0.000000  -0.000009   0.000393  -0.032394
              25
     1  C   -0.009745
     2  C   -0.000088
     3  C    0.000023
     4  C    0.000156
     5  C    0.000168
     6  C    0.000023
     7  C   -0.000074
     8  C   -0.010082
     9  C    0.413700
    10  C   -0.002299
    11  C   -0.038685
    12  C    0.007716
    13  C   -0.039541
    14  C    0.007863
    15  H    0.000441
    16  H   -0.000009
    17  H   -0.000000
    18  H    0.000012
    19  H    0.000017
    20  H    0.000013
    21  H   -0.000000
    22  H   -0.000009
    23  H    0.000393
    24  H   -0.032394
    25  H    0.499635
 Mulliken charges:
               1
     1  C   -0.100170
     2  C   -0.028837
     3  C   -0.121165
     4  C   -0.057142
     5  C   -0.067089
     6  C   -0.119548
     7  C   -0.031668
     8  C   -0.100227
     9  C   -0.308915
    10  C   -0.067094
    11  C    0.105686
    12  C    0.053609
    13  C    0.102101
    14  C    0.057498
    15  H    0.137121
    16  H    0.147814
    17  H    0.142748
    18  H    0.131623
    19  H    0.159962
    20  H    0.130757
    21  H    0.142745
    22  H    0.148021
    23  H    0.136638
    24  H    0.202766
    25  H    0.202766
 Sum of Mulliken charges =   1.00000
 Mulliken charges with hydrogens summed into heavy atoms:
               1
     1  C    0.036951
     2  C    0.118977
     3  C    0.021583
     4  C    0.074481
     5  C    0.063668
     6  C    0.023197
     7  C    0.116353
     8  C    0.036411
     9  C    0.096617
    10  C    0.092868
    11  C    0.105686
    12  C    0.053609
    13  C    0.102101
    14  C    0.057498
 Electronic spatial extent (au):  <R**2>=           2855.0664
 Charge=              1.0000 electrons
 Dipole moment (field-independent basis, Debye):
    X=              0.1494    Y=              0.1958    Z=              0.0000  Tot=              0.2463
 Quadrupole moment (field-independent basis, Debye-Ang):
   XX=            -30.9546   YY=            -56.4092   ZZ=            -83.3714
   XY=              0.1812   XZ=             -0.0000   YZ=             -0.0000
 Traceless Quadrupole moment (field-independent basis, Debye-Ang):
   XX=             25.9571   YY=              0.5025   ZZ=            -26.4597
   XY=              0.1812   XZ=             -0.0000   YZ=             -0.0000
 Octapole moment (field-independent basis, Debye-Ang**2):
  XXX=              1.6434  YYY=              5.2246  ZZZ=              0.0000  XYY=              0.3039
  XXY=             -5.1254  XXZ=             -0.0000  XZZ=              0.2198  YZZ=             -2.9560
  YYZ=              0.0000  XYZ=              0.0000
 Hexadecapole moment (field-independent basis, Debye-Ang**3):
 XXXX=          -2120.6603 YYYY=           -609.6933 ZZZZ=            -97.6068 XXXY=             -3.3401
 XXXZ=             -0.0000 YYYX=             -5.1215 YYYZ=             -0.0000 ZZZX=             -0.0000
 ZZZY=             -0.0000 XXYY=           -508.0117 XXZZ=           -584.4929 YYZZ=           -144.3283
 XXYZ=             -0.0000 YYXZ=             -0.0000 ZZXY=             -2.4716
 N-N= 7.812394341286D+02 E-N=-2.797992706400D+03  KE= 5.364436541263D+02
 Symmetry A'   KE= 5.218083240516D+02
 Symmetry A"   KE= 1.463533007466D+01
 Unable to Open any file for archive entry.
 1\1\GINC-GADI-CPU-CLX-1450\SP\RM062X TD-FC\CC-pVTZ\C14H11(1+)\TS1578\2
 1-Jul-2022\0\\#n M062X/cc-pvtz TD EmpiricalDispersion=GD3 SP\\SP_14\\1
 ,1\C,0,2.4887410895,1.3694327812,0.\C,0,3.6971213595,0.6788310353,0.\C
 ,0,3.6823408552,-0.7083037801,0.\C,0,2.4671873624,-1.4010780106,0.\C,0
 ,-2.4590289923,-1.396517615,0.\C,0,-3.6851185507,-0.701697129,0.\C,0,-
 3.7056202787,0.6824971195,0.\C,0,-2.4958067414,1.3690478128,0.\C,0,-0.
 0021972815,1.4610638885,0.\C,0,0.0064023217,-1.4203885869,0.\C,0,1.263
 2119441,0.6879828171,0.\C,0,1.2400463274,-0.7223865166,0.\C,0,-1.26086
 36365,0.6836800542,0.\C,0,-1.2350743116,-0.7218830963,0.\H,0,2.4867255
 717,2.4526350135,0.\H,0,4.6323376692,1.2188242036,0.\H,0,4.6096893879,
 -1.26351009,0.\H,0,2.4694008099,-2.4835358234,0.\H,0,0.0059373982,-2.5
 014733933,0.\H,0,-2.4656695771,-2.4791412603,0.\H,0,-4.6086558956,-1.2
 634745545,0.\H,0,-4.6408099366,1.2220075966,0.\H,0,-2.4887185238,2.452
 3270387,0.\H,0,-0.0086440226,2.1543308191,-0.859329406\H,0,-0.00864402
 26,2.1543308191,0.859329406\\Version=ES64L-G16RevC.01\State=1-A'\HF=-5
 39.8157079\RMSD=5.286e-09\PG=CS [SG(C14H9),X(H2)]\\@
 The archive entry for this job was punched.


 THE REASON MAN'S BEST FRIEND IS A DOG IS BECAUSE
 HE WAGS HIS TAIL INSTEAD OF HIS TONGUE.
 Job cpu time:       0 days  2 hours 11 minutes 45.1 seconds.
 Elapsed time:       0 days  0 hours  9 minutes  6.5 seconds.
 File lengths (MBytes):  RWF=    833 Int=      0 D2E=      0 Chk=     49 Scr=      1
 Normal termination of Gaussian 16 at Thu Jul 21 13:21:24 2022.
