 Entering Gaussian System, Link 0=g16
 Initial command:
 /apps/gaussian/g16c01/g16/l1.exe "/jobfs/51991865.gadi-pbs/Gau-1170516.inp" -scrdir="/jobfs/51991865.gadi-pbs/"
 Entering Link 1 = /apps/gaussian/g16c01/g16/l1.exe PID=   1170517.
  
 Copyright (c) 1988-2019, Gaussian, Inc.  All Rights Reserved.
  
 This is part of the Gaussian(R) 16 program.  It is based on
 the Gaussian(R) 09 system (copyright 2009, Gaussian, Inc.),
 the Gaussian(R) 03 system (copyright 2003, Gaussian, Inc.),
 the Gaussian(R) 98 system (copyright 1998, Gaussian, Inc.),
 the Gaussian(R) 94 system (copyright 1995, Gaussian, Inc.),
 the Gaussian 92(TM) system (copyright 1992, Gaussian, Inc.),
 the Gaussian 90(TM) system (copyright 1990, Gaussian, Inc.),
 the Gaussian 88(TM) system (copyright 1988, Gaussian, Inc.),
 the Gaussian 86(TM) system (copyright 1986, Carnegie Mellon
 University), and the Gaussian 82(TM) system (copyright 1983,
 Carnegie Mellon University). Gaussian is a federally registered
 trademark of Gaussian, Inc.
  
 This software contains proprietary and confidential information,
 including trade secrets, belonging to Gaussian, Inc.
  
 This software is provided under written license and may be
 used, copied, transmitted, or stored only in accord with that
 written license.
  
 The following legend is applicable only to US Government
 contracts under FAR:
  
                    RESTRICTED RIGHTS LEGEND
  
 Use, reproduction and disclosure by the US Government is
 subject to restrictions as set forth in subparagraphs (a)
 and (c) of the Commercial Computer Software - Restricted
 Rights clause in FAR 52.227-19.
  
 Gaussian, Inc.
 340 Quinnipiac St., Bldg. 40, Wallingford CT 06492
  
  
 ---------------------------------------------------------------
 Warning -- This program may not be used in any manner that
 competes with the business of Gaussian, Inc. or will provide
 assistance to any competitor of Gaussian, Inc.  The licensee
 of this program is prohibited from giving any competitor of
 Gaussian, Inc. access to this program.  By using this program,
 the user acknowledges that Gaussian, Inc. is engaged in the
 business of creating and licensing software in the field of
 computational chemistry and represents and warrants to the
 licensee that it is not a competitor of Gaussian, Inc. and that
 it will not use this program in any manner prohibited above.
 ---------------------------------------------------------------
  

 Cite this work as:
 Gaussian 16, Revision C.01,
 M. J. Frisch, G. W. Trucks, H. B. Schlegel, G. E. Scuseria, 
 M. A. Robb, J. R. Cheeseman, G. Scalmani, V. Barone, 
 G. A. Petersson, H. Nakatsuji, X. Li, M. Caricato, A. V. Marenich, 
 J. Bloino, B. G. Janesko, R. Gomperts, B. Mennucci, H. P. Hratchian, 
 J. V. Ortiz, A. F. Izmaylov, J. L. Sonnenberg, D. Williams-Young, 
 F. Ding, F. Lipparini, F. Egidi, J. Goings, B. Peng, A. Petrone, 
 T. Henderson, D. Ranasinghe, V. G. Zakrzewski, J. Gao, N. Rega, 
 G. Zheng, W. Liang, M. Hada, M. Ehara, K. Toyota, R. Fukuda, 
 J. Hasegawa, M. Ishida, T. Nakajima, Y. Honda, O. Kitao, H. Nakai, 
 T. Vreven, K. Throssell, J. A. Montgomery, Jr., J. E. Peralta, 
 F. Ogliaro, M. J. Bearpark, J. J. Heyd, E. N. Brothers, K. N. Kudin, 
 V. N. Staroverov, T. A. Keith, R. Kobayashi, J. Normand, 
 K. Raghavachari, A. P. Rendell, J. C. Burant, S. S. Iyengar, 
 J. Tomasi, M. Cossi, J. M. Millam, M. Klene, C. Adamo, R. Cammi, 
 J. W. Ochterski, R. L. Martin, K. Morokuma, O. Farkas, 
 J. B. Foresman, and D. J. Fox, Gaussian, Inc., Wallingford CT, 2019.
 
 ******************************************
 Gaussian 16:  ES64L-G16RevC.01  3-Jul-2019
                21-Jul-2022 
 ******************************************
 %NProcShared=16
 Will use up to   16 processors via shared memory.
 %mem = 64GB
 %Chk=check_sp_15
 ----------------------------------------------
 #n M062X/cc-pvtz TD EmpiricalDispersion=GD3 SP
 ----------------------------------------------
 1/38=1,172=1/1;
 2/12=2,17=6,18=5,40=1/2;
 3/5=16,6=1,11=9,25=1,30=1,74=-55,124=31/1,2,3,8;
 4//1;
 5/5=2,38=5/2;
 8/6=1,10=1/1;
 9/42=1,70=2/14;
 6/7=2,8=2,9=2,10=2/1;
 99/5=1,9=1/99;
 -----
 SP_15
 -----
 Symbolic Z-matrix:
 Charge =  1 Multiplicity = 1
 C                     2.48679   1.36959   0. 
 C                     3.69493   0.67791   0. 
 C                     3.68158  -0.70988   0. 
 C                     2.4692   -1.40219   0. 
 C                    -2.45696  -1.39535   0. 
 C                    -3.68575  -0.69997   0. 
 C                    -3.70768   0.68341   0. 
 C                    -2.49739   1.36902   0. 
 C                    -0.0033    1.46057   0. 
 C                     0.0096   -1.42033   0. 
 C                     1.26379   0.6891    0. 
 C                     1.24133  -0.72252   0. 
 C                    -1.26027   0.68265   0. 
 C                    -1.23388  -0.72176   0. 
 H                     2.48605   2.45279   0. 
 H                     4.63013   1.21805   0. 
 H                     4.6099   -1.26343   0. 
 H                     2.47033  -2.48461   0. 
 H                     0.00891  -2.50142   0. 
 H                    -2.46473  -2.47802   0. 
 H                    -4.60835  -1.26338   0. 
 H                    -4.64284   1.22283   0. 
 H                    -2.48904   2.45233   0. 
 H                    -0.01297   2.15426  -0.8592 
 H                    -0.01297   2.15426   0.8592 
 
                          Input orientation:                          
 ---------------------------------------------------------------------
 Center     Atomic      Atomic             Coordinates (Angstroms)
 Number     Number       Type             X           Y           Z
 ---------------------------------------------------------------------
      1          6           0        2.486787    1.369594    0.000000
      2          6           0        3.694927    0.677912    0.000000
      3          6           0        3.681581   -0.709881    0.000000
      4          6           0        2.469201   -1.402187    0.000000
      5          6           0       -2.456963   -1.395346    0.000000
      6          6           0       -3.685748   -0.699971    0.000000
      7          6           0       -3.707675    0.683411    0.000000
      8          6           0       -2.497385    1.369017    0.000000
      9          6           0       -0.003296    1.460571    0.000000
     10          6           0        0.009603   -1.420328    0.000000
     11          6           0        1.263788    0.689099    0.000000
     12          6           0        1.241334   -0.722520    0.000000
     13          6           0       -1.260265    0.682645    0.000000
     14          6           0       -1.233876   -0.721765    0.000000
     15          1           0        2.486053    2.452788    0.000000
     16          1           0        4.630132    1.218051    0.000000
     17          1           0        4.609904   -1.263430    0.000000
     18          1           0        2.470326   -2.484614    0.000000
     19          1           0        0.008906   -2.501420    0.000000
     20          1           0       -2.464729   -2.478022    0.000000
     21          1           0       -4.608354   -1.263377    0.000000
     22          1           0       -4.642840    1.222826    0.000000
     23          1           0       -2.489043    2.452326    0.000000
     24          1           0       -0.012966    2.154261   -0.859199
     25          1           0       -0.012966    2.154261    0.859199
 ---------------------------------------------------------------------
                    Distance matrix (angstroms):
                    1          2          3          4          5
     1  C    0.000000
     2  C    1.392131   0.000000
     3  C    2.398281   1.387856   0.000000
     4  C    2.771837   2.414377   1.396121   0.000000
     5  C    5.664412   6.491853   6.176698   4.926169   0.000000
     6  C    6.510244   7.508190   7.367336   6.194877   1.411899
     7  C    6.232352   7.402604   7.519466   6.519472   2.426007
     8  C    4.984172   6.230759   6.519313   5.687403   2.764659
     9  C    2.491744   3.780133   4.276585   3.782674   3.765202
    10  C    3.730965   4.240780   3.740074   2.459664   2.466693
    11  C    1.399571   2.431165   2.793362   2.413814   4.264845
    12  C    2.434767   2.825124   2.440280   1.403426   3.759003
    13  C    3.809501   4.955195   5.134294   4.272639   2.397944
    14  C    4.268151   5.123690   4.915472   3.765071   1.396300
    15  H    1.083194   2.147454   3.381088   3.855011   6.264308
    16  H    2.148696   1.079981   2.148644   3.396361   7.553593
    17  H    3.382373   2.146157   1.080833   2.145195   7.068099
    18  H    3.854243   3.391344   2.148678   1.082427   5.046255
    19  H    4.596155   4.867741   4.086338   2.694692   2.702575
    20  H    6.270699   6.921075   6.395581   5.049860   1.082703
    21  H    7.567929   8.527196   8.308392   7.078916   2.155434
    22  H    7.131137   8.355554   8.545838   7.581017   3.410701
    23  H    5.092267   6.433508   6.933697   6.280243   3.847806
    24  H    2.757297   4.082438   4.753021   4.421278   4.394435
    25  H    2.757297   4.082438   4.753021   4.421278   4.394435
                    6          7          8          9         10
     6  C    0.000000
     7  C    1.383555   0.000000
     8  C    2.385983   1.390992   0.000000
     9  C    4.269472   3.785024   2.495769   0.000000
    10  C    3.764908   4.271285   3.750391   2.880928   0.000000
    11  C    5.140761   4.971467   3.822134   1.483466   2.454111
    12  C    4.927134   5.144836   4.283988   2.512964   1.415661
    13  C    2.791879   2.447410   1.414769   1.478222   2.456636
    14  C    2.451968   2.845031   2.442912   2.505378   1.426265
    15  H    6.930441   6.441504   5.099923   2.679805   4.597154
    16  H    8.534205   8.354931   7.129115   4.639770   5.320745
    17  H    8.314766   8.542384   7.579138   5.357406   4.602975
    18  H    6.409540   6.942916   6.287179   4.656532   2.681019
    19  H    4.110436   4.894499   4.611049   3.962010   1.081092
    20  H    2.156931   3.396994   3.847177   4.644477   2.690918
    21  H    1.081031   2.145042   3.374268   5.350369   4.620624
    22  H    2.147830   1.079584   2.150430   4.645631   5.350840
    23  H    3.371806   2.148052   1.083341   2.676288   4.608761
    24  H    4.730136   4.068477   2.743569   1.104320   3.676468
    25  H    4.730136   4.068477   2.743569   1.104320   3.676468
                   11         12         13         14         15
    11  C    0.000000
    12  C    1.411798   0.000000
    13  C    2.524062   2.869232   0.000000
    14  C    2.868600   2.475211   1.404658   0.000000
    15  H    2.145817   3.410557   4.143466   4.890364   0.000000
    16  H    3.407647   3.905094   5.914680   6.176526   2.474196
    17  H    3.874128   3.411722   6.184343   5.868831   4.280306
    18  H    3.395319   2.148347   4.893755   4.102286   4.937426
    19  H    3.428431   2.164109   3.427691   2.170641   5.538992
    20  H    4.892085   4.100817   3.382388   2.144630   6.987355
    21  H    6.188232   5.874639   3.872557   3.417666   8.008776
    22  H    5.930693   6.197409   3.425435   3.924598   7.234219
    23  H    4.146409   4.898506   2.154452   3.413252   4.975096
    24  H    2.124858   3.253823   2.111784   3.240427   2.659406
    25  H    2.124858   3.253823   2.111784   3.240427   2.659406
                   16         17         18         19         20
    16  H    0.000000
    17  H    2.481564   0.000000
    18  H    4.286547   2.463551   0.000000
    19  H    5.932132   4.764641   2.461477   0.000000
    20  H    7.999875   7.178138   4.935060   2.473746   0.000000
    21  H    9.565934   9.218258   7.183254   4.780360   2.463836
    22  H    9.272973   9.580957   8.021362   5.958922   4.294234
    23  H    7.225377   8.012608   6.997765   5.547914   4.930407
    24  H    4.813841   5.812896   5.331428   4.734350   5.311065
    25  H    4.813841   5.812896   5.331428   4.734350   5.311065
                   21         22         23         24         25
    21  H    0.000000
    22  H    2.486442   0.000000
    23  H    4.277607   2.480022   0.000000
    24  H    5.791033   4.800159   2.637806   0.000000
    25  H    5.791033   4.800159   2.637806   1.718398   0.000000
 Stoichiometry    C14H11(1+)
 Framework group  CS[SG(C14H9),X(H2)]
 Deg. of freedom    46
 Full point group                 CS      NOp   2
 Largest Abelian subgroup         CS      NOp   2
 Largest concise Abelian subgroup CS      NOp   2
                         Standard orientation:                         
 ---------------------------------------------------------------------
 Center     Atomic      Atomic             Coordinates (Angstroms)
 Number     Number       Type             X           Y           Z
 ---------------------------------------------------------------------
      1          6           0       -2.372936   -1.551148    0.000000
      2          6           0       -2.332791   -2.942700    0.000000
      3          6           0       -1.102739   -3.585442    0.000000
      4          6           0        0.079520   -2.842867    0.000000
      5          6           0        2.396764    1.504261    0.000000
      6          6           0        2.363098    2.915759    0.000000
      7          6           0        1.153571    3.587524    0.000000
      8          6           0       -0.021794    2.843633    0.000000
      9          6           0       -1.278788    0.687518    0.000000
     10          6           0        1.255511   -0.682544    0.000000
     11          6           0       -1.196084   -0.793640    0.000000
     12          6           0        0.059274   -1.439588    0.000000
     13          6           0       -0.000000    1.429032    0.000000
     14          6           0        1.225966    0.743415    0.000000
     15          1           0       -3.327752   -1.039647    0.000000
     16          1           0       -3.250148   -3.512625    0.000000
     17          1           0       -1.052433   -4.665103    0.000000
     18          1           0        1.033476   -3.354353    0.000000
     19          1           0        2.209150   -1.191794    0.000000
     20          1           0        3.355132    1.000499    0.000000
     21          1           0        3.295030    3.463602    0.000000
     22          1           0        1.118955    4.666553    0.000000
     23          1           0       -0.980993    3.347186    0.000000
     24          1           0       -1.885925    1.023203    0.859199
     25          1           0       -1.885925    1.023203   -0.859199
 ---------------------------------------------------------------------
 Rotational constants (GHZ):           2.1367631           0.4446849           0.3688822
 Standard basis: CC-pVTZ (5D, 7F)
 There are   450 symmetry adapted cartesian basis functions of A'  symmetry.
 There are   205 symmetry adapted cartesian basis functions of A"  symmetry.
 There are   384 symmetry adapted basis functions of A'  symmetry.
 There are   190 symmetry adapted basis functions of A"  symmetry.
   574 basis functions,   915 primitive gaussians,   655 cartesian basis functions
    47 alpha electrons       47 beta electrons
       nuclear repulsion energy       781.2627175918 Hartrees.
 NAtoms=   25 NActive=   25 NUniq=   24 SFac= 1.09D+00 NAtFMM=   60 NAOKFM=F Big=F
 Integral buffers will be    131072 words long.
 Regular integral format.
 Two-electron integral symmetry is turned on.
 Nuclear repulsion after empirical dispersion term =      781.2617381358 Hartrees.
 One-electron integrals computed using PRISM.
 NBasis=   574 RedAO= T EigKep=  1.73D-05  NBF=   384   190
 NBsUse=   574 1.00D-06 EigRej= -1.00D+00 NBFU=   384   190
 ExpMin= 1.03D-01 ExpMax= 8.24D+03 ExpMxC= 2.81D+02 IAcc=3 IRadAn=         5 AccDes= 0.00D+00
 Harris functional with IExCor= 1009 and IRadAn=       5 diagonalized for initial guess.
 HarFok:  IExCor= 1009 AccDes= 0.00D+00 IRadAn=         5 IDoV= 1 UseB2=F ITyADJ=14
 ICtDFT=  3500011 ScaDFX=  1.000000  1.000000  1.000000  1.000000
 FoFCou: FMM=F IPFlag=           0 FMFlag=      100000 FMFlg1=           0
         NFxFlg=           0 DoJE=T BraDBF=F KetDBF=T FulRan=T
         wScrn=  0.000000 ICntrl=       500 IOpCl=  0 I1Cent=   200000004 NGrid=           0
         NMat0=    1 NMatS0=      1 NMatT0=    0 NMatD0=    1 NMtDS0=    0 NMtDT0=    0
 Petite list used in FoFCou.
 Initial guess orbital symmetries:
       Occupied  (A') (A') (A') (A') (A') (A') (A') (A') (A') (A')
                 (A') (A') (A') (A') (A') (A') (A') (A') (A') (A')
                 (A') (A') (A') (A') (A') (A') (A') (A') (A') (A')
                 (A') (A') (A") (A') (A') (A') (A') (A') (A") (A')
                 (A") (A') (A') (A") (A") (A") (A")
       Virtual   (A") (A") (A") (A") (A") (A') (A') (A") (A') (A")
                 (A') (A') (A') (A') (A') (A') (A') (A") (A') (A')
                 (A') (A') (A') (A') (A') (A') (A') (A') (A') (A')
                 (A") (A') (A") (A') (A") (A') (A") (A') (A') (A")
                 (A') (A') (A') (A') (A') (A") (A') (A") (A') (A")
                 (A") (A') (A') (A') (A") (A') (A") (A') (A') (A")
                 (A') (A') (A') (A') (A') (A") (A') (A") (A') (A')
                 (A") (A') (A') (A") (A') (A') (A') (A') (A") (A')
                 (A") (A') (A") (A") (A') (A") (A') (A") (A') (A')
                 (A') (A") (A') (A') (A') (A') (A") (A") (A') (A')
                 (A") (A') (A') (A') (A') (A") (A') (A') (A') (A")
                 (A") (A') (A') (A') (A") (A') (A') (A') (A") (A")
                 (A') (A") (A') (A') (A") (A') (A") (A') (A") (A')
                 (A') (A") (A") (A') (A') (A") (A") (A') (A') (A')
                 (A") (A') (A') (A') (A") (A') (A") (A') (A') (A")
                 (A') (A') (A") (A') (A') (A') (A') (A") (A") (A')
                 (A') (A') (A") (A') (A') (A') (A") (A') (A') (A')
                 (A") (A') (A') (A') (A') (A") (A') (A') (A') (A')
                 (A") (A') (A') (A") (A') (A") (A') (A') (A') (A')
                 (A') (A") (A') (A') (A") (A") (A') (A') (A') (A')
                 (A") (A') (A') (A') (A') (A") (A') (A") (A") (A")
                 (A') (A") (A") (A') (A') (A") (A') (A") (A') (A')
                 (A") (A') (A') (A') (A') (A') (A') (A") (A') (A')
                 (A') (A") (A') (A") (A") (A') (A') (A") (A") (A')
                 (A') (A') (A') (A') (A") (A") (A") (A") (A') (A")
                 (A") (A') (A') (A') (A") (A") (A") (A") (A') (A')
                 (A") (A') (A') (A') (A") (A") (A') (A') (A") (A')
                 (A") (A") (A') (A") (A") (A') (A") (A') (A') (A')
                 (A') (A') (A") (A") (A') (A') (A") (A') (A') (A")
                 (A') (A') (A") (A') (A') (A") (A') (A") (A') (A')
                 (A') (A') (A") (A') (A') (A") (A') (A') (A") (A')
                 (A") (A") (A') (A") (A') (A") (A") (A') (A') (A")
                 (A') (A") (A') (A') (A') (A") (A') (A") (A') (A")
                 (A') (A") (A") (A") (A') (A') (A') (A') (A") (A')
                 (A') (A") (A') (A") (A") (A") (A') (A') (A") (A")
                 (A') (A') (A") (A') (A') (A") (A') (A') (A") (A')
                 (A') (A") (A') (A") (A') (A') (A') (A") (A") (A')
                 (A') (A") (A') (A") (A') (A") (A") (A') (A') (A')
                 (A') (A") (A") (A") (A') (A") (A') (A') (A') (A')
                 (A") (A') (A') (A") (A") (A') (A") (A') (A') (A")
                 (A') (A") (A') (A") (A') (A') (A') (A') (A') (A")
                 (A') (A") (A') (A') (A") (A') (A') (A") (A') (A")
                 (A") (A') (A") (A') (A") (A') (A") (A') (A') (A")
                 (A') (A') (A') (A') (A') (A') (A") (A") (A') (A')
                 (A') (A") (A") (A') (A') (A') (A") (A') (A') (A')
                 (A") (A") (A") (A') (A") (A') (A') (A') (A") (A')
                 (A") (A') (A") (A') (A") (A') (A') (A") (A") (A')
                 (A') (A') (A") (A') (A') (A') (A') (A') (A') (A')
                 (A') (A") (A") (A') (A') (A') (A") (A') (A") (A')
                 (A') (A') (A') (A') (A') (A') (A') (A') (A') (A')
                 (A') (A') (A') (A") (A') (A') (A') (A') (A') (A')
                 (A') (A') (A') (A') (A') (A') (A') (A') (A') (A')
                 (A') (A') (A') (A') (A') (A') (A')
 The electronic state of the initial guess is 1-A'.
 Requested convergence on RMS density matrix=1.00D-08 within 128 cycles.
 Requested convergence on MAX density matrix=1.00D-06.
 Requested convergence on             energy=1.00D-06.
 No special actions if energy rises.
 Integral accuracy reduced to 1.0D-05 until final iterations.
 Initial convergence to 1.0D-05 achieved.  Increase integral accuracy.
 SCF Done:  E(RM062X) =  -539.815531909     A.U. after   14 cycles
            NFock= 14  Conv=0.61D-08     -V/T= 2.0063
 DoSCS=F DFT=T ScalE2(SS,OS)=  1.000000  1.000000
 ExpMin= 1.03D-01 ExpMax= 8.24D+03 ExpMxC= 2.81D+02 IAcc=3 IRadAn=         5 AccDes= 0.00D+00
 HarFok:  IExCor=  205 AccDes= 0.00D+00 IRadAn=         5 IDoV=-2 UseB2=F ITyADJ=14
 ICtDFT= 12500011 ScaDFX=  1.000000  1.000000  1.000000  1.000000
 Range of M.O.s used for correlation:    15   574
 NBasis=   574 NAE=    47 NBE=    47 NFC=    14 NFV=     0
 NROrb=    560 NOA=    33 NOB=    33 NVA=   527 NVB=   527

 **** Warning!!: The largest alpha MO coefficient is  0.55893896D+02

 Orbital symmetries:
       Occupied  (A') (A') (A') (A') (A') (A') (A') (A') (A') (A')
                 (A') (A') (A') (A') (A') (A') (A') (A') (A') (A')
                 (A') (A') (A') (A') (A') (A') (A') (A') (A') (A')
                 (A') (A") (A') (A') (A') (A') (A') (A") (A") (A')
                 (A') (A') (A') (A") (A") (A") (A")
       Virtual   (A") (A") (A") (A") (A") (A') (A') (A') (A') (A')
                 (A") (A') (A') (A') (A') (A") (A') (A") (A') (A')
                 (A') (A') (A') (A') (A') (A') (A') (A") (A') (A')
                 (A') (A") (A') (A") (A') (A") (A") (A') (A') (A')
                 (A") (A") (A') (A') (A') (A') (A") (A') (A') (A")
                 (A') (A') (A') (A") (A') (A") (A') (A') (A') (A")
                 (A') (A') (A') (A') (A") (A") (A") (A') (A') (A')
                 (A') (A') (A") (A') (A') (A') (A') (A') (A") (A")
                 (A") (A') (A") (A') (A') (A") (A') (A') (A") (A')
                 (A') (A") (A') (A') (A") (A") (A') (A') (A') (A')
                 (A') (A") (A') (A') (A') (A') (A') (A') (A") (A')
                 (A") (A") (A') (A') (A') (A") (A') (A') (A') (A')
                 (A") (A") (A") (A") (A') (A') (A') (A") (A") (A')
                 (A') (A") (A") (A') (A') (A") (A") (A') (A') (A')
                 (A') (A") (A') (A') (A') (A") (A') (A") (A') (A")
                 (A') (A') (A') (A") (A') (A') (A") (A') (A") (A')
                 (A') (A') (A') (A") (A') (A") (A') (A') (A') (A')
                 (A") (A') (A') (A") (A') (A') (A') (A') (A') (A")
                 (A') (A') (A') (A") (A') (A') (A") (A') (A') (A')
                 (A') (A") (A') (A') (A') (A') (A') (A") (A') (A")
                 (A') (A') (A") (A') (A') (A') (A") (A') (A") (A")
                 (A") (A') (A") (A') (A") (A') (A") (A") (A') (A')
                 (A") (A') (A') (A') (A') (A') (A') (A") (A') (A')
                 (A") (A') (A') (A') (A") (A") (A') (A") (A") (A')
                 (A') (A') (A') (A') (A") (A") (A") (A") (A') (A")
                 (A") (A') (A") (A') (A") (A") (A') (A') (A") (A")
                 (A') (A') (A') (A') (A") (A") (A') (A') (A") (A')
                 (A") (A") (A") (A') (A') (A") (A") (A') (A') (A')
                 (A') (A") (A") (A') (A') (A") (A") (A') (A') (A')
                 (A') (A') (A') (A") (A") (A') (A") (A') (A') (A')
                 (A') (A") (A") (A') (A') (A") (A') (A') (A') (A")
                 (A") (A') (A") (A') (A") (A") (A') (A') (A") (A')
                 (A') (A") (A') (A') (A') (A") (A") (A") (A') (A')
                 (A") (A") (A") (A') (A') (A') (A') (A") (A') (A')
                 (A") (A") (A') (A") (A') (A") (A') (A') (A") (A")
                 (A') (A") (A') (A") (A') (A') (A") (A') (A') (A')
                 (A") (A') (A") (A') (A") (A') (A") (A') (A') (A')
                 (A") (A") (A') (A") (A') (A") (A') (A") (A") (A')
                 (A") (A') (A") (A') (A') (A') (A") (A') (A') (A')
                 (A') (A") (A") (A") (A') (A') (A") (A') (A") (A')
                 (A') (A') (A") (A') (A') (A") (A') (A') (A') (A')
                 (A') (A") (A") (A') (A') (A') (A') (A") (A") (A')
                 (A") (A") (A') (A') (A") (A") (A') (A') (A') (A')
                 (A") (A') (A') (A') (A") (A') (A") (A') (A') (A')
                 (A') (A") (A") (A') (A') (A') (A") (A') (A') (A")
                 (A') (A') (A") (A") (A") (A') (A') (A') (A") (A")
                 (A') (A') (A") (A') (A") (A') (A') (A") (A") (A')
                 (A') (A") (A') (A') (A') (A') (A') (A') (A') (A')
                 (A') (A") (A") (A') (A') (A') (A") (A') (A") (A')
                 (A') (A') (A') (A') (A') (A') (A') (A') (A') (A')
                 (A') (A') (A") (A') (A') (A') (A') (A') (A') (A')
                 (A') (A') (A') (A') (A') (A') (A') (A') (A') (A')
                 (A') (A') (A') (A') (A') (A') (A')
    12 initial guesses have been made.
 Convergence on wavefunction:    0.001000000000000
 Iteration     1 Dimension    12 NMult     0 NNew     12
 CISAX will form    12 AO SS matrices at one time.
 New state      2 was old state      3
 New state      3 was old state      2
 Iteration     2 Dimension    18 NMult    12 NNew      6
 Iteration     3 Dimension    24 NMult    18 NNew      6
 Iteration     4 Dimension    30 NMult    24 NNew      6
 Iteration     5 Dimension    36 NMult    30 NNew      6
 Iteration     6 Dimension    40 NMult    36 NNew      4
 ***********************************************************************
 Excited states from <AA,BB:AA,BB> singles matrix:
 ***********************************************************************
 
 Ground to excited state transition densities written to RWF  633
 Ground to excited state transition electric dipole moments (Au):
       state          X           Y           Z        Dip. S.      Osc.
         1        -0.5454      0.3057      0.0000      0.3909      0.0269
         2         0.1948      0.1519      0.0000      0.0610      0.0049
         3         1.1828      2.2336      0.0000      6.3881      0.5457
 Ground to excited state transition velocity dipole moments (Au):
       state          X           Y           Z        Dip. S.      Osc.
         1         0.0599     -0.0332     -0.0000      0.0047      0.0302
         2        -0.0236     -0.0172      0.0000      0.0009      0.0047
         3        -0.1560     -0.2946      0.0000      0.1111      0.5783
 Ground to excited state transition magnetic dipole moments (Au):
       state          X           Y           Z
         1         0.0000     -0.0000     -0.0610
         2        -0.0000      0.0000     -0.9402
         3        -0.0000      0.0000     -1.1086
 Ground to excited state transition velocity quadrupole moments (Au):
       state          XX          YY          ZZ          XY          XZ          YZ
         1         0.1043      0.1936     -0.0076      0.1140     -0.0000      0.0000
         2         0.2162     -0.2710      0.0014      0.1383     -0.0000     -0.0000
         3         0.0968     -0.0736      0.0000      0.0728     -0.0000     -0.0000
 <0|del|b> * <b|rxdel|0> + <0|del|b> * <b|delr+rdel|0>
 Rotatory Strengths (R) in cgs (10**-40 erg-esu-cm/Gauss)
       state          XX          YY          ZZ    R(velocity)    E-M Angle
         1         0.0000      0.0000      0.0000      0.0000       90.00
         2        -0.0000      0.0000      0.0000      0.0000       90.00
         3        -0.0000      0.0000      0.0000      0.0000       90.00
 1/2[<0|r|b>*<b|rxdel|0> + (<0|rxdel|b>*<b|r|0>)*]
 Rotatory Strengths (R) in cgs (10**-40 erg-esu-cm/Gauss)
       state          XX          YY          ZZ     R(length)
         1         0.0000      0.0000      0.0000      0.0000
         2         0.0000     -0.0000      0.0000      0.0000
         3         0.0000     -0.0000      0.0000      0.0000
  1/2[<0|del|b>*<b|r|0> + (<0|r|b>*<b|del|0>)*] (Au)
       state          X           Y           Z        Dip. S.   Osc.(frdel)
         1        -0.0326     -0.0102     -0.0000      0.0428      0.0285
         2        -0.0046     -0.0026      0.0000      0.0072      0.0048
         3        -0.1845     -0.6581      0.0000      0.8426      0.5617

 Excitation energies and oscillator strengths:
 
 Excited State   1:      Singlet-A'     2.8135 eV  440.68 nm  f=0.0269  <S**2>=0.000
      47 -> 48         0.70405
 This state for optimization and/or second-order correction.
 Total Energy, E(TD-HF/TD-DFT) =  -539.712137970    
 Copying the excited state density for this state as the 1-particle RhoCI density.
 
 Excited State   2:      Singlet-A'     3.2763 eV  378.42 nm  f=0.0049  <S**2>=0.000
      45 -> 48         0.62116
      46 -> 48         0.32585
 
 Excited State   3:      Singlet-A'     3.4866 eV  355.60 nm  f=0.5457  <S**2>=0.000
      45 -> 48        -0.32799
      46 -> 48         0.61674
 SavETr:  write IOETrn=   770 NScale= 10 NData=  16 NLR=1 NState=    3 LETran=      64.

 **********************************************************************

            Population analysis using the SCF Density.

 **********************************************************************

 Orbital symmetries:
       Occupied  (A') (A') (A') (A') (A') (A') (A') (A') (A') (A')
                 (A') (A') (A') (A') (A') (A') (A') (A') (A') (A')
                 (A') (A') (A') (A') (A') (A') (A') (A') (A') (A')
                 (A') (A") (A') (A') (A') (A') (A') (A") (A") (A')
                 (A') (A') (A') (A") (A") (A") (A")
       Virtual   (A") (A") (A") (A") (A") (A') (A') (A') (A') (A')
                 (A") (A') (A') (A') (A') (A") (A') (A") (A') (A')
                 (A') (A') (A') (A') (A') (A') (A') (A") (A') (A')
                 (A') (A") (A') (A") (A') (A") (A") (A') (A') (A')
                 (A") (A") (A') (A') (A') (A') (A") (A') (A') (A")
                 (A') (A') (A') (A") (A') (A") (A') (A') (A') (A")
                 (A') (A') (A') (A') (A") (A") (A") (A') (A') (A')
                 (A') (A') (A") (A') (A') (A') (A') (A') (A") (A")
                 (A") (A') (A") (A') (A') (A") (A') (A') (A") (A')
                 (A') (A") (A') (A') (A") (A") (A') (A') (A') (A')
                 (A') (A") (A') (A') (A') (A') (A') (A') (A") (A')
                 (A") (A") (A') (A') (A') (A") (A') (A') (A') (A')
                 (A") (A") (A") (A") (A') (A') (A') (A") (A") (A')
                 (A') (A") (A") (A') (A') (A") (A") (A') (A') (A')
                 (A') (A") (A') (A') (A') (A") (A') (A") (A') (A")
                 (A') (A') (A') (A") (A') (A') (A") (A') (A") (A')
                 (A') (A') (A') (A") (A') (A") (A') (A') (A') (A')
                 (A") (A') (A') (A") (A') (A') (A') (A') (A') (A")
                 (A') (A') (A') (A") (A') (A') (A") (A') (A') (A')
                 (A') (A") (A') (A') (A') (A') (A') (A") (A') (A")
                 (A') (A') (A") (A') (A') (A') (A") (A') (A") (A")
                 (A") (A') (A") (A') (A") (A') (A") (A") (A') (A')
                 (A") (A') (A') (A') (A') (A') (A') (A") (A') (A')
                 (A") (A') (A') (A') (A") (A") (A') (A") (A") (A')
                 (A') (A') (A') (A') (A") (A") (A") (A") (A') (A")
                 (A") (A') (A") (A') (A") (A") (A') (A') (A") (A")
                 (A') (A') (A') (A') (A") (A") (A') (A') (A") (A')
                 (A") (A") (A") (A') (A') (A") (A") (A') (A') (A')
                 (A') (A") (A") (A') (A') (A") (A") (A') (A') (A')
                 (A') (A') (A') (A") (A") (A') (A") (A') (A') (A')
                 (A') (A") (A") (A') (A') (A") (A') (A') (A') (A")
                 (A") (A') (A") (A') (A") (A") (A') (A') (A") (A')
                 (A') (A") (A') (A') (A') (A") (A") (A") (A') (A')
                 (A") (A") (A") (A') (A') (A') (A') (A") (A') (A')
                 (A") (A") (A') (A") (A') (A") (A') (A') (A") (A")
                 (A') (A") (A') (A") (A') (A') (A") (A') (A') (A')
                 (A") (A') (A") (A') (A") (A') (A") (A') (A') (A')
                 (A") (A") (A') (A") (A') (A") (A') (A") (A") (A')
                 (A") (A') (A") (A') (A') (A') (A") (A') (A') (A')
                 (A') (A") (A") (A") (A') (A') (A") (A') (A") (A')
                 (A') (A') (A") (A') (A') (A") (A') (A') (A') (A')
                 (A') (A") (A") (A') (A') (A') (A') (A") (A") (A')
                 (A") (A") (A') (A') (A") (A") (A') (A') (A') (A')
                 (A") (A') (A') (A') (A") (A') (A") (A') (A') (A')
                 (A') (A") (A") (A') (A') (A') (A") (A') (A') (A")
                 (A') (A') (A") (A") (A") (A') (A') (A') (A") (A")
                 (A') (A') (A") (A') (A") (A') (A') (A") (A") (A')
                 (A') (A") (A') (A') (A') (A') (A') (A') (A') (A')
                 (A') (A") (A") (A') (A') (A') (A") (A') (A") (A')
                 (A') (A') (A') (A') (A') (A') (A') (A') (A') (A')
                 (A') (A') (A") (A') (A') (A') (A') (A') (A') (A')
                 (A') (A') (A') (A') (A') (A') (A') (A') (A') (A')
                 (A') (A') (A') (A') (A') (A') (A')
 The electronic state is 1-A'.
 Alpha  occ. eigenvalues --  -10.77526 -10.73214 -10.72983 -10.72349 -10.72160
 Alpha  occ. eigenvalues --  -10.71340 -10.71132 -10.71125 -10.70834 -10.70708
 Alpha  occ. eigenvalues --  -10.69891 -10.69792 -10.69586 -10.69462  -1.16271
 Alpha  occ. eigenvalues --   -1.12294  -1.06776  -1.05598  -1.01156  -1.00057
 Alpha  occ. eigenvalues --   -0.95623  -0.90882  -0.86214  -0.85735  -0.83651
 Alpha  occ. eigenvalues --   -0.78239  -0.75799  -0.74197  -0.69360  -0.69083
 Alpha  occ. eigenvalues --   -0.68293  -0.68013  -0.67975  -0.64536  -0.64057
 Alpha  occ. eigenvalues --   -0.62816  -0.61649  -0.59981  -0.59622  -0.58901
 Alpha  occ. eigenvalues --   -0.56697  -0.54994  -0.54595  -0.52414  -0.46618
 Alpha  occ. eigenvalues --   -0.46004  -0.44394
 Alpha virt. eigenvalues --   -0.25958  -0.14402  -0.13958  -0.12484  -0.06849
 Alpha virt. eigenvalues --   -0.05512  -0.05370  -0.04075  -0.02673  -0.01625
 Alpha virt. eigenvalues --   -0.00211   0.00379   0.00579   0.01933   0.02312
 Alpha virt. eigenvalues --    0.04321   0.04510   0.07202   0.07824   0.09471
 Alpha virt. eigenvalues --    0.09936   0.10393   0.12686   0.14039   0.14196
 Alpha virt. eigenvalues --    0.15720   0.15926   0.16465   0.16725   0.16968
 Alpha virt. eigenvalues --    0.17751   0.17948   0.19457   0.19674   0.20381
 Alpha virt. eigenvalues --    0.20771   0.21996   0.22525   0.22924   0.24302
 Alpha virt. eigenvalues --    0.25252   0.26410   0.26742   0.27020   0.27423
 Alpha virt. eigenvalues --    0.28190   0.28309   0.28658   0.29136   0.29474
 Alpha virt. eigenvalues --    0.30111   0.30254   0.30733   0.31351   0.32309
 Alpha virt. eigenvalues --    0.33073   0.33144   0.34441   0.34536   0.34624
 Alpha virt. eigenvalues --    0.36025   0.37016   0.38310   0.38562   0.38708
 Alpha virt. eigenvalues --    0.39399   0.39492   0.39658   0.41058   0.43042
 Alpha virt. eigenvalues --    0.43408   0.44783   0.44962   0.45703   0.46705
 Alpha virt. eigenvalues --    0.47943   0.49080   0.49584   0.49676   0.50963
 Alpha virt. eigenvalues --    0.52949   0.53238   0.55890   0.55997   0.58084
 Alpha virt. eigenvalues --    0.58501   0.58604   0.58936   0.61197   0.61490
 Alpha virt. eigenvalues --    0.62006   0.62521   0.63200   0.63651   0.65979
 Alpha virt. eigenvalues --    0.66259   0.66771   0.67303   0.68281   0.69895
 Alpha virt. eigenvalues --    0.70268   0.71267   0.71496   0.72208   0.73989
 Alpha virt. eigenvalues --    0.75101   0.76401   0.76727   0.77203   0.79172
 Alpha virt. eigenvalues --    0.80437   0.80649   0.82069   0.83856   0.84673
 Alpha virt. eigenvalues --    0.85514   0.85799   0.86013   0.86277   0.88354
 Alpha virt. eigenvalues --    0.88670   0.88934   0.89659   0.92112   0.93129
 Alpha virt. eigenvalues --    0.93438   0.94876   0.94936   0.95319   0.95976
 Alpha virt. eigenvalues --    0.96868   0.97506   0.99266   1.01187   1.03342
 Alpha virt. eigenvalues --    1.04076   1.04769   1.05295   1.06367   1.07348
 Alpha virt. eigenvalues --    1.07810   1.09608   1.10494   1.12004   1.12385
 Alpha virt. eigenvalues --    1.12820   1.13888   1.14629   1.15387   1.15763
 Alpha virt. eigenvalues --    1.16681   1.16731   1.18022   1.18160   1.19952
 Alpha virt. eigenvalues --    1.22089   1.22133   1.22382   1.24434   1.24576
 Alpha virt. eigenvalues --    1.25704   1.26641   1.27615   1.28130   1.28826
 Alpha virt. eigenvalues --    1.29256   1.29985   1.30497   1.31924   1.32741
 Alpha virt. eigenvalues --    1.34880   1.35905   1.37232   1.37555   1.37724
 Alpha virt. eigenvalues --    1.41421   1.42314   1.42729   1.43962   1.45570
 Alpha virt. eigenvalues --    1.46698   1.47170   1.47342   1.49730   1.50666
 Alpha virt. eigenvalues --    1.56549   1.56821   1.62760   1.63368   1.65568
 Alpha virt. eigenvalues --    1.68707   1.70209   1.73350   1.76708   1.81435
 Alpha virt. eigenvalues --    1.81836   1.82388   1.86662   1.86698   1.89593
 Alpha virt. eigenvalues --    1.91161   1.92379   1.92876   1.94219   1.94845
 Alpha virt. eigenvalues --    1.96785   2.00083   2.03251   2.03662   2.04571
 Alpha virt. eigenvalues --    2.04771   2.06449   2.08373   2.09066   2.10318
 Alpha virt. eigenvalues --    2.13026   2.13517   2.15558   2.15868   2.19098
 Alpha virt. eigenvalues --    2.22992   2.23302   2.24004   2.26673   2.28528
 Alpha virt. eigenvalues --    2.28540   2.29321   2.30281   2.32109   2.32347
 Alpha virt. eigenvalues --    2.33327   2.33684   2.34860   2.35900   2.36158
 Alpha virt. eigenvalues --    2.36624   2.37110   2.38375   2.38830   2.39042
 Alpha virt. eigenvalues --    2.39458   2.43575   2.44529   2.45258   2.46827
 Alpha virt. eigenvalues --    2.48393   2.50354   2.50641   2.52944   2.53346
 Alpha virt. eigenvalues --    2.53814   2.55618   2.57293   2.57455   2.57486
 Alpha virt. eigenvalues --    2.58026   2.58554   2.59181   2.59553   2.59725
 Alpha virt. eigenvalues --    2.61480   2.61680   2.64342   2.64853   2.65352
 Alpha virt. eigenvalues --    2.66271   2.66792   2.68299   2.69244   2.70876
 Alpha virt. eigenvalues --    2.72520   2.74418   2.74604   2.75103   2.75542
 Alpha virt. eigenvalues --    2.76220   2.76403   2.78112   2.79424   2.80199
 Alpha virt. eigenvalues --    2.80250   2.81083   2.81177   2.82547   2.83678
 Alpha virt. eigenvalues --    2.84735   2.84923   2.85395   2.85597   2.85876
 Alpha virt. eigenvalues --    2.87949   2.88809   2.89080   2.89714   2.91475
 Alpha virt. eigenvalues --    2.92253   2.92478   2.92601   2.93025   2.93888
 Alpha virt. eigenvalues --    2.94005   2.95389   2.95978   2.96096   2.96923
 Alpha virt. eigenvalues --    2.98100   2.98331   2.98955   3.00193   3.01390
 Alpha virt. eigenvalues --    3.01818   3.02004   3.03363   3.03379   3.04127
 Alpha virt. eigenvalues --    3.05678   3.06000   3.06286   3.07639   3.07992
 Alpha virt. eigenvalues --    3.10725   3.12745   3.13181   3.15199   3.15392
 Alpha virt. eigenvalues --    3.15414   3.15605   3.16206   3.16999   3.17901
 Alpha virt. eigenvalues --    3.20436   3.20794   3.21033   3.21488   3.22264
 Alpha virt. eigenvalues --    3.22743   3.23567   3.24092   3.24289   3.26883
 Alpha virt. eigenvalues --    3.28970   3.29057   3.29385   3.29827   3.31390
 Alpha virt. eigenvalues --    3.33059   3.33945   3.33976   3.34650   3.36582
 Alpha virt. eigenvalues --    3.39304   3.40260   3.41137   3.43671   3.45324
 Alpha virt. eigenvalues --    3.46704   3.46999   3.49153   3.50571   3.50678
 Alpha virt. eigenvalues --    3.50697   3.53671   3.53741   3.54635   3.55979
 Alpha virt. eigenvalues --    3.56407   3.56901   3.56985   3.57466   3.59745
 Alpha virt. eigenvalues --    3.60545   3.61192   3.61717   3.61945   3.63249
 Alpha virt. eigenvalues --    3.63999   3.65434   3.66398   3.67761   3.67785
 Alpha virt. eigenvalues --    3.67917   3.68180   3.68662   3.69389   3.70888
 Alpha virt. eigenvalues --    3.72029   3.75761   3.76228   3.76791   3.78407
 Alpha virt. eigenvalues --    3.78567   3.78650   3.80622   3.83113   3.83274
 Alpha virt. eigenvalues --    3.83354   3.85195   3.85386   3.85622   3.87907
 Alpha virt. eigenvalues --    3.89343   3.89417   3.89969   3.92039   3.94488
 Alpha virt. eigenvalues --    3.95244   3.95491   3.95860   3.96864   3.97909
 Alpha virt. eigenvalues --    3.98074   3.98184   4.01282   4.01896   4.02189
 Alpha virt. eigenvalues --    4.03815   4.05711   4.05796   4.06657   4.07462
 Alpha virt. eigenvalues --    4.07635   4.08499   4.08560   4.11233   4.11337
 Alpha virt. eigenvalues --    4.12313   4.12746   4.13178   4.14323   4.15016
 Alpha virt. eigenvalues --    4.15711   4.17062   4.18584   4.18844   4.21588
 Alpha virt. eigenvalues --    4.21590   4.23835   4.24355   4.27914   4.30103
 Alpha virt. eigenvalues --    4.31212   4.32579   4.33759   4.36211   4.37481
 Alpha virt. eigenvalues --    4.40664   4.42987   4.43160   4.47224   4.50869
 Alpha virt. eigenvalues --    4.50869   4.52856   4.53403   4.53895   4.54268
 Alpha virt. eigenvalues --    4.56714   4.58107   4.58229   4.61220   4.63132
 Alpha virt. eigenvalues --    4.66288   4.66784   4.68958   4.69817   4.70254
 Alpha virt. eigenvalues --    4.76143   4.76560   4.79930   4.80291   4.82042
 Alpha virt. eigenvalues --    4.83303   4.83600   4.83866   4.86719   4.88773
 Alpha virt. eigenvalues --    4.90121   4.91515   4.93037   4.96690   4.98525
 Alpha virt. eigenvalues --    5.00362   5.02280   5.05519   5.07510   5.10784
 Alpha virt. eigenvalues --    5.16246   5.16372   5.16926   5.19533   5.23440
 Alpha virt. eigenvalues --    5.24289   5.27741   5.31977   5.33257   5.43391
 Alpha virt. eigenvalues --    5.46245   5.48595   5.50902   5.58287   5.61789
 Alpha virt. eigenvalues --    5.62714   5.65014   5.69239   5.70272   5.78045
 Alpha virt. eigenvalues --    5.78995   5.83542   5.87096   5.99771   6.11375
 Alpha virt. eigenvalues --    6.14585   6.48204   6.63320   8.16960   9.51745
 Alpha virt. eigenvalues --   11.52642  12.20492  12.43709  12.69408  12.83370
 Alpha virt. eigenvalues --   12.94220  13.07666  13.37365  14.49505  14.59998
 Alpha virt. eigenvalues --   15.10482  15.66535
          Condensed to atoms (all electrons):
               1          2          3          4          5          6
     1  C    4.935526   0.498855  -0.061979  -0.018949   0.000046   0.000001
     2  C    0.498855   4.825907   0.469988  -0.064898  -0.000004  -0.000000
     3  C   -0.061979   0.469988   4.904622   0.519628   0.000012   0.000000
     4  C   -0.018949  -0.064898   0.519628   4.905682  -0.000254   0.000011
     5  C    0.000046  -0.000004   0.000012  -0.000254   4.921507   0.520675
     6  C    0.000001  -0.000000   0.000000   0.000011   0.520675   4.901847
     7  C    0.000006  -0.000000  -0.000000  -0.000003  -0.063623   0.473099
     8  C   -0.000053   0.000006   0.000001   0.000044  -0.021352  -0.064390
     9  C   -0.065683   0.004593  -0.001456   0.005320   0.005657  -0.001408
    10  C    0.006602  -0.001628   0.007814  -0.041429  -0.041781   0.007348
    11  C    0.481699  -0.040465  -0.039735  -0.072449  -0.001988   0.000164
    12  C   -0.055185  -0.025469  -0.042831   0.414590   0.007528  -0.000422
    13  C    0.008685  -0.000134   0.000172  -0.001917  -0.075006  -0.040886
    14  C   -0.001472  -0.000056  -0.000451   0.007436   0.414799  -0.043338
    15  H    0.430825  -0.037074   0.005347  -0.000837  -0.000000   0.000000
    16  H   -0.044301   0.437591  -0.043898   0.005806   0.000000  -0.000000
    17  H    0.005689  -0.043721   0.435766  -0.041952  -0.000000   0.000000
    18  H   -0.000622   0.004821  -0.031663   0.439756  -0.000008   0.000001
    19  H   -0.000164   0.000037   0.000197  -0.001249  -0.001078   0.000148
    20  H   -0.000001  -0.000000   0.000001  -0.000007   0.439909  -0.030370
    21  H    0.000000   0.000000   0.000000  -0.000000  -0.040858   0.435070
    22  H   -0.000000   0.000000  -0.000000   0.000000   0.005769  -0.044019
    23  H    0.000018   0.000001   0.000000  -0.000001  -0.000806   0.005557
    24  H   -0.009676  -0.000091   0.000023   0.000154   0.000171   0.000023
    25  H   -0.009676  -0.000091   0.000023   0.000154   0.000171   0.000023
               7          8          9         10         11         12
     1  C    0.000006  -0.000053  -0.065683   0.006602   0.481699  -0.055185
     2  C   -0.000000   0.000006   0.004593  -0.001628  -0.040465  -0.025469
     3  C   -0.000000   0.000001  -0.001456   0.007814  -0.039735  -0.042831
     4  C   -0.000003   0.000044   0.005320  -0.041429  -0.072449   0.414590
     5  C   -0.063623  -0.021352   0.005657  -0.041781  -0.001988   0.007528
     6  C    0.473099  -0.064390  -0.001408   0.007348   0.000164  -0.000422
     7  C    4.822097   0.500431   0.004408  -0.001531  -0.000134  -0.000049
     8  C    0.500431   4.937631  -0.065888   0.006279   0.008721  -0.001431
     9  C    0.004408  -0.065888   5.049486  -0.023833   0.327890  -0.040822
    10  C   -0.001531   0.006279  -0.023833   4.874944  -0.039251   0.469122
    11  C   -0.000134   0.008721   0.327890  -0.039251   5.093809   0.342622
    12  C   -0.000049  -0.001431  -0.040822   0.469122   0.342622   5.044070
    13  C   -0.039359   0.485558   0.320982  -0.038401  -0.002079  -0.049255
    14  C   -0.023074  -0.056526  -0.040503   0.472433  -0.048952  -0.046690
    15  H    0.000001   0.000015   0.001500  -0.000072  -0.056491   0.008516
    16  H    0.000000  -0.000000  -0.000226   0.000040   0.007196  -0.000856
    17  H    0.000000   0.000000   0.000058  -0.000303  -0.000596   0.006581
    18  H   -0.000000  -0.000001  -0.000111  -0.000610   0.004968  -0.062863
    19  H    0.000039  -0.000162  -0.000191   0.417528   0.004884  -0.036158
    20  H    0.004576  -0.000544  -0.000118  -0.000849  -0.000061   0.000829
    21  H   -0.044248   0.005898   0.000057  -0.000279  -0.000005   0.000014
    22  H    0.437148  -0.043902  -0.000223   0.000039   0.000008  -0.000001
    23  H   -0.037176   0.430270   0.002218  -0.000065   0.000331  -0.000008
    24  H   -0.000070  -0.010183   0.413638  -0.002301  -0.038469   0.007681
    25  H   -0.000070  -0.010183   0.413638  -0.002301  -0.038469   0.007681
              13         14         15         16         17         18
     1  C    0.008685  -0.001472   0.430825  -0.044301   0.005689  -0.000622
     2  C   -0.000134  -0.000056  -0.037074   0.437591  -0.043721   0.004821
     3  C    0.000172  -0.000451   0.005347  -0.043898   0.435766  -0.031663
     4  C   -0.001917   0.007436  -0.000837   0.005806  -0.041952   0.439756
     5  C   -0.075006   0.414799  -0.000000   0.000000  -0.000000  -0.000008
     6  C   -0.040886  -0.043338   0.000000  -0.000000   0.000000   0.000001
     7  C   -0.039359  -0.023074   0.000001   0.000000   0.000000  -0.000000
     8  C    0.485558  -0.056526   0.000015  -0.000000   0.000000  -0.000001
     9  C    0.320982  -0.040503   0.001500  -0.000226   0.000058  -0.000111
    10  C   -0.038401   0.472433  -0.000072   0.000040  -0.000303  -0.000610
    11  C   -0.002079  -0.048952  -0.056491   0.007196  -0.000596   0.004968
    12  C   -0.049255  -0.046690   0.008516  -0.000856   0.006581  -0.062863
    13  C    5.110754   0.338673   0.000298   0.000008  -0.000005  -0.000055
    14  C    0.338673   5.037130  -0.000006  -0.000001   0.000015   0.000809
    15  H    0.000298  -0.000006   0.516092  -0.006100  -0.000190   0.000035
    16  H    0.000008  -0.000001  -0.006100   0.503126  -0.005968  -0.000154
    17  H   -0.000005   0.000015  -0.000190  -0.005968   0.508455  -0.006515
    18  H   -0.000055   0.000809   0.000035  -0.000154  -0.006515   0.517649
    19  H    0.004939  -0.034327   0.000011  -0.000002  -0.000028   0.002703
    20  H    0.005194  -0.064040   0.000000   0.000000   0.000000   0.000003
    21  H   -0.000531   0.006352  -0.000000   0.000000  -0.000000   0.000000
    22  H    0.007006  -0.000875  -0.000000  -0.000000   0.000000   0.000000
    23  H   -0.056667   0.008345   0.000010  -0.000000  -0.000000   0.000000
    24  H   -0.039756   0.007901   0.000453  -0.000008  -0.000000   0.000012
    25  H   -0.039756   0.007901   0.000453  -0.000008  -0.000000   0.000012
              19         20         21         22         23         24
     1  C   -0.000164  -0.000001   0.000000  -0.000000   0.000018  -0.009676
     2  C    0.000037  -0.000000   0.000000   0.000000   0.000001  -0.000091
     3  C    0.000197   0.000001   0.000000  -0.000000   0.000000   0.000023
     4  C   -0.001249  -0.000007  -0.000000   0.000000  -0.000001   0.000154
     5  C   -0.001078   0.439909  -0.040858   0.005769  -0.000806   0.000171
     6  C    0.000148  -0.030370   0.435070  -0.044019   0.005557   0.000023
     7  C    0.000039   0.004576  -0.044248   0.437148  -0.037176  -0.000070
     8  C   -0.000162  -0.000544   0.005898  -0.043902   0.430270  -0.010183
     9  C   -0.000191  -0.000118   0.000057  -0.000223   0.002218   0.413638
    10  C    0.417528  -0.000849  -0.000279   0.000039  -0.000065  -0.002301
    11  C    0.004884  -0.000061  -0.000005   0.000008   0.000331  -0.038469
    12  C   -0.036158   0.000829   0.000014  -0.000001  -0.000008   0.007681
    13  C    0.004939   0.005194  -0.000531   0.007006  -0.056667  -0.039756
    14  C   -0.034327  -0.064040   0.006352  -0.000875   0.008345   0.007901
    15  H    0.000011   0.000000  -0.000000  -0.000000   0.000010   0.000453
    16  H   -0.000002   0.000000   0.000000  -0.000000  -0.000000  -0.000008
    17  H   -0.000028   0.000000  -0.000000   0.000000  -0.000000  -0.000000
    18  H    0.002703   0.000003   0.000000   0.000000   0.000000   0.000012
    19  H    0.480270   0.002687  -0.000026  -0.000002   0.000011   0.000017
    20  H    0.002687   0.518640  -0.006284  -0.000154   0.000034   0.000013
    21  H   -0.000026  -0.006284   0.508274  -0.005950  -0.000201  -0.000000
    22  H   -0.000002  -0.000154  -0.005950   0.503169  -0.006058  -0.000009
    23  H    0.000011   0.000034  -0.000201  -0.006058   0.516924   0.000380
    24  H    0.000017   0.000013  -0.000000  -0.000009   0.000380   0.499791
    25  H    0.000017   0.000013  -0.000000  -0.000009   0.000380  -0.032417
              25
     1  C   -0.009676
     2  C   -0.000091
     3  C    0.000023
     4  C    0.000154
     5  C    0.000171
     6  C    0.000023
     7  C   -0.000070
     8  C   -0.010183
     9  C    0.413638
    10  C   -0.002301
    11  C   -0.038469
    12  C    0.007681
    13  C   -0.039756
    14  C    0.007901
    15  H    0.000453
    16  H   -0.000008
    17  H   -0.000000
    18  H    0.000012
    19  H    0.000017
    20  H    0.000013
    21  H   -0.000000
    22  H   -0.000009
    23  H    0.000380
    24  H   -0.032417
    25  H    0.499791
 Mulliken charges:
               1
     1  C   -0.100193
     2  C   -0.028166
     3  C   -0.121579
     4  C   -0.054635
     5  C   -0.069485
     6  C   -0.119135
     7  C   -0.032466
     8  C   -0.100240
     9  C   -0.308981
    10  C   -0.067515
    11  C    0.106852
    12  C    0.052807
    13  C    0.101540
    14  C    0.058517
    15  H    0.137216
    16  H    0.147757
    17  H    0.142716
    18  H    0.131833
    19  H    0.159896
    20  H    0.130531
    21  H    0.142717
    22  H    0.148061
    23  H    0.136504
    24  H    0.202725
    25  H    0.202725
 Sum of Mulliken charges =   1.00000
 Mulliken charges with hydrogens summed into heavy atoms:
               1
     1  C    0.037023
     2  C    0.119590
     3  C    0.021137
     4  C    0.077198
     5  C    0.061045
     6  C    0.023582
     7  C    0.115595
     8  C    0.036263
     9  C    0.096469
    10  C    0.092382
    11  C    0.106852
    12  C    0.052807
    13  C    0.101540
    14  C    0.058517
 Electronic spatial extent (au):  <R**2>=           2854.9354
 Charge=              1.0000 electrons
 Dipole moment (field-independent basis, Debye):
    X=              0.0651    Y=             -0.2904    Z=             -0.0000  Tot=              0.2976
 Quadrupole moment (field-independent basis, Debye-Ang):
   XX=            -50.8295   YY=            -36.5328   ZZ=            -83.3711
   XY=             10.5332   XZ=              0.0000   YZ=             -0.0000
 Traceless Quadrupole moment (field-independent basis, Debye-Ang):
   XX=              6.0816   YY=             20.3783   ZZ=            -26.4599
   XY=             10.5332   XZ=              0.0000   YZ=             -0.0000
 Octapole moment (field-independent basis, Debye-Ang**2):
  XXX=             -0.3087  YYY=              3.1484  ZZZ=             -0.0000  XYY=             -0.9953
  XXY=             -5.7651  XXZ=             -0.0000  XZZ=             -2.7515  YZZ=              1.1206
  YYZ=             -0.0000  XYZ=              0.0000
 Hexadecapole moment (field-independent basis, Debye-Ang**3):
 XXXX=           -998.4149 YYYY=          -1841.2231 ZZZZ=            -97.6051 XXXY=           -350.3078
 XXXZ=              0.0000 YYYX=           -276.7550 YYYZ=             -0.0000 ZZZX=              0.0000
 ZZZY=             -0.0000 XXYY=           -453.2684 XXZZ=           -241.6265 YYZZ=           -487.1581
 XXYZ=             -0.0000 YYXZ=              0.0000 ZZXY=           -182.6617
 N-N= 7.812617381358D+02 E-N=-2.798038545583D+03  KE= 5.364455033689D+02
 Symmetry A'   KE= 5.218100000012D+02
 Symmetry A"   KE= 1.463550336765D+01
 Unable to Open any file for archive entry.
 1\1\GINC-GADI-CPU-CLX-1450\SP\RM062X TD-FC\CC-pVTZ\C14H11(1+)\TS1578\2
 1-Jul-2022\0\\#n M062X/cc-pvtz TD EmpiricalDispersion=GD3 SP\\SP_15\\1
 ,1\C,0,2.4867866342,1.3695941719,0.\C,0,3.6949270393,0.6779115529,0.\C
 ,0,3.6815812828,-0.7098806701,0.\C,0,2.4692010436,-1.4021870159,0.\C,0
 ,-2.4569634884,-1.3953464225,0.\C,0,-3.6857478261,-0.6999706935,0.\C,0
 ,-3.707675418,0.6834106793,0.\C,0,-2.4973851121,1.3690167192,0.\C,0,-0
 .0032959223,1.4605708327,0.\C,0,0.0096034825,-1.4203278803,0.\C,0,1.26
 37879161,0.6890992256,0.\C,0,1.2413344911,-0.7225197749,0.\C,0,-1.2602
 654547,0.6826450813,0.\C,0,-1.2338764675,-0.7217646445,0.\H,0,2.486053
 3575,2.4527875202,0.\H,0,4.6301315037,1.2180513053,0.\H,0,4.6099040819
 ,-1.263430135,0.\H,0,2.4703262149,-2.4846137351,0.\H,0,0.0089060973,-2
 .50142009,0.\H,0,-2.4647293657,-2.4780218905,0.\H,0,-4.6083538435,-1.2
 633768317,0.\H,0,-4.6428399049,1.2228263949,0.\H,0,-2.4890427857,2.452
 3255581,0.\H,0,-0.0129660339,2.1542612286,-0.8591991089\H,0,-0.0129660
 339,2.1542612286,0.8591991089\\Version=ES64L-G16RevC.01\State=1-A'\HF=
 -539.8155319\RMSD=6.116e-09\PG=CS [SG(C14H9),X(H2)]\\@
 The archive entry for this job was punched.


 SUCCESS-- IF YOU HAVE TRIED TO DO SOMETHING AND FAILED
           YOU ARE BETTER OFF THAN IF YOU HAD TRIED TO DO
           NOTHING AND SUCCEEDED.

                   -- FROM THE BACK OF A SUGAR PACKET
 Job cpu time:       0 days  2 hours 15 minutes 25.5 seconds.
 Elapsed time:       0 days  0 hours 10 minutes 31.9 seconds.
 File lengths (MBytes):  RWF=    833 Int=      0 D2E=      0 Chk=     49 Scr=      1
 Normal termination of Gaussian 16 at Thu Jul 21 13:31:56 2022.
