 Entering Gaussian System, Link 0=g16
 Initial command:
 /apps/gaussian/g16c01/g16/l1.exe "/jobfs/52009754.gadi-pbs/Gau-418038.inp" -scrdir="/jobfs/52009754.gadi-pbs/"
 Entering Link 1 = /apps/gaussian/g16c01/g16/l1.exe PID=    418039.
  
 Copyright (c) 1988-2019, Gaussian, Inc.  All Rights Reserved.
  
 This is part of the Gaussian(R) 16 program.  It is based on
 the Gaussian(R) 09 system (copyright 2009, Gaussian, Inc.),
 the Gaussian(R) 03 system (copyright 2003, Gaussian, Inc.),
 the Gaussian(R) 98 system (copyright 1998, Gaussian, Inc.),
 the Gaussian(R) 94 system (copyright 1995, Gaussian, Inc.),
 the Gaussian 92(TM) system (copyright 1992, Gaussian, Inc.),
 the Gaussian 90(TM) system (copyright 1990, Gaussian, Inc.),
 the Gaussian 88(TM) system (copyright 1988, Gaussian, Inc.),
 the Gaussian 86(TM) system (copyright 1986, Carnegie Mellon
 University), and the Gaussian 82(TM) system (copyright 1983,
 Carnegie Mellon University). Gaussian is a federally registered
 trademark of Gaussian, Inc.
  
 This software contains proprietary and confidential information,
 including trade secrets, belonging to Gaussian, Inc.
  
 This software is provided under written license and may be
 used, copied, transmitted, or stored only in accord with that
 written license.
  
 The following legend is applicable only to US Government
 contracts under FAR:
  
                    RESTRICTED RIGHTS LEGEND
  
 Use, reproduction and disclosure by the US Government is
 subject to restrictions as set forth in subparagraphs (a)
 and (c) of the Commercial Computer Software - Restricted
 Rights clause in FAR 52.227-19.
  
 Gaussian, Inc.
 340 Quinnipiac St., Bldg. 40, Wallingford CT 06492
  
  
 ---------------------------------------------------------------
 Warning -- This program may not be used in any manner that
 competes with the business of Gaussian, Inc. or will provide
 assistance to any competitor of Gaussian, Inc.  The licensee
 of this program is prohibited from giving any competitor of
 Gaussian, Inc. access to this program.  By using this program,
 the user acknowledges that Gaussian, Inc. is engaged in the
 business of creating and licensing software in the field of
 computational chemistry and represents and warrants to the
 licensee that it is not a competitor of Gaussian, Inc. and that
 it will not use this program in any manner prohibited above.
 ---------------------------------------------------------------
  

 Cite this work as:
 Gaussian 16, Revision C.01,
 M. J. Frisch, G. W. Trucks, H. B. Schlegel, G. E. Scuseria, 
 M. A. Robb, J. R. Cheeseman, G. Scalmani, V. Barone, 
 G. A. Petersson, H. Nakatsuji, X. Li, M. Caricato, A. V. Marenich, 
 J. Bloino, B. G. Janesko, R. Gomperts, B. Mennucci, H. P. Hratchian, 
 J. V. Ortiz, A. F. Izmaylov, J. L. Sonnenberg, D. Williams-Young, 
 F. Ding, F. Lipparini, F. Egidi, J. Goings, B. Peng, A. Petrone, 
 T. Henderson, D. Ranasinghe, V. G. Zakrzewski, J. Gao, N. Rega, 
 G. Zheng, W. Liang, M. Hada, M. Ehara, K. Toyota, R. Fukuda, 
 J. Hasegawa, M. Ishida, T. Nakajima, Y. Honda, O. Kitao, H. Nakai, 
 T. Vreven, K. Throssell, J. A. Montgomery, Jr., J. E. Peralta, 
 F. Ogliaro, M. J. Bearpark, J. J. Heyd, E. N. Brothers, K. N. Kudin, 
 V. N. Staroverov, T. A. Keith, R. Kobayashi, J. Normand, 
 K. Raghavachari, A. P. Rendell, J. C. Burant, S. S. Iyengar, 
 J. Tomasi, M. Cossi, J. M. Millam, M. Klene, C. Adamo, R. Cammi, 
 J. W. Ochterski, R. L. Martin, K. Morokuma, O. Farkas, 
 J. B. Foresman, and D. J. Fox, Gaussian, Inc., Wallingford CT, 2019.
 
 ******************************************
 Gaussian 16:  ES64L-G16RevC.01  3-Jul-2019
                21-Jul-2022 
 ******************************************
 %NProcShared=16
 Will use up to   16 processors via shared memory.
 %mem = 64GB
 %Chk=check_sp_23
 ----------------------------------------------
 #n M062X/cc-pvtz TD EmpiricalDispersion=GD3 SP
 ----------------------------------------------
 1/38=1,172=1/1;
 2/12=2,17=6,18=5,40=1/2;
 3/5=16,6=1,11=9,25=1,30=1,74=-55,124=31/1,2,3,8;
 4//1;
 5/5=2,38=5/2;
 8/6=1,10=1/1;
 9/42=1,70=2/14;
 6/7=2,8=2,9=2,10=2/1;
 99/5=1,9=1/99;
 -----
 SP_23
 -----
 Symbolic Z-matrix:
 Charge =  1 Multiplicity = 1
 C                     2.47115   1.37089   0. 
 C                     3.67737   0.67056   0. 
 C                     3.6755   -0.7225    0. 
 C                     2.48531  -1.41106   0. 
 C                    -2.44044  -1.38598   0. 
 C                    -3.69078  -0.68616   0. 
 C                    -3.72412   0.69072   0. 
 C                    -2.51001   1.36877   0. 
 C                    -0.01209   1.45663   0. 
 C                     0.03521  -1.41984   0. 
 C                     1.2684    0.69803   0. 
 C                     1.25164  -0.72359   0. 
 C                    -1.25548   0.67437   0. 
 C                    -1.22429  -0.72082   0. 
 H                     2.48068   2.45401   0. 
 H                     4.61248   1.21187   0. 
 H                     4.61162  -1.26279   0. 
 H                     2.47773  -2.49324   0. 
 H                     0.03266  -2.50099   0. 
 H                    -2.45721  -2.46907   0. 
 H                    -4.60594  -1.2626    0. 
 H                    -4.65908   1.22938   0. 
 H                    -2.49164   2.45231   0. 
 H                    -0.04754   2.1537   -0.85816 
 H                    -0.04754   2.1537    0.85816 
 
                          Input orientation:                          
 ---------------------------------------------------------------------
 Center     Atomic      Atomic             Coordinates (Angstroms)
 Number     Number       Type             X           Y           Z
 ---------------------------------------------------------------------
      1          6           0        2.471151    1.370885    0.000000
      2          6           0        3.677372    0.670556    0.000000
      3          6           0        3.675505   -0.722496    0.000000
      4          6           0        2.485310   -1.411059    0.000000
      5          6           0       -2.440439   -1.385977    0.000000
      6          6           0       -3.690782   -0.686159    0.000000
      7          6           0       -3.724117    0.690719    0.000000
      8          6           0       -2.510012    1.368768    0.000000
      9          6           0       -0.012085    1.456626    0.000000
     10          6           0        0.035213   -1.419842    0.000000
     11          6           0        1.268396    0.698030    0.000000
     12          6           0        1.251640   -0.723586    0.000000
     13          6           0       -1.255480    0.674365    0.000000
     14          6           0       -1.224294   -0.720817    0.000000
     15          1           0        2.480676    2.454008    0.000000
     16          1           0        4.612482    1.211868    0.000000
     17          1           0        4.611622   -1.262790    0.000000
     18          1           0        2.477729   -2.493237    0.000000
     19          1           0        0.032656   -2.500994    0.000000
     20          1           0       -2.457208   -2.469067    0.000000
     21          1           0       -4.605937   -1.262595    0.000000
     22          1           0       -4.659080    1.229377    0.000000
     23          1           0       -2.491637    2.452314    0.000000
     24          1           0       -0.047542    2.153705   -0.858157
     25          1           0       -0.047542    2.153705    0.858157
 ---------------------------------------------------------------------
                    Distance matrix (angstroms):
                    1          2          3          4          5
     1  C    0.000000
     2  C    1.394787   0.000000
     3  C    2.415101   1.393053   0.000000
     4  C    2.781980   2.398777   1.375021   0.000000
     5  C    5.632407   6.454219   6.151827   4.925814   0.000000
     6  C    6.496218   7.492021   7.366376   6.218488   1.432865
     7  C    6.232493   7.401516   7.533364   6.555490   2.441412
     8  C    4.981164   6.226655   6.529472   5.716702   2.755623
     9  C    2.484716   3.772268   4.283327   3.802710   3.738623
    10  C    3.704316   4.199416   3.706483   2.450113   2.475884
    11  C    1.378170   2.409133   2.795008   2.434983   4.254238
    12  C    2.423637   2.797822   2.423865   1.412290   3.751028
    13  C    3.791163   4.932854   5.125020   4.282815   2.376792
    14  C    4.246355   5.095316   4.899799   3.773274   1.386163
    15  H    1.083164   2.147739   3.393787   3.865069   6.242023
    16  H    2.147227   1.080486   2.149347   3.377071   7.516149
    17  H    3.393798   2.147242   1.080848   2.131474   7.053137
    18  H    3.864128   3.383597   2.137800   1.082205   5.041271
    19  H    4.575774   4.831427   4.053813   2.683929   2.712833
    20  H    6.247716   6.891321   6.376572   5.054490   1.083220
    21  H    7.551185   8.505898   8.299036   7.092802   2.169010
    22  H    7.131635   8.355161   8.560088   7.616706   3.429641
    23  H    5.079247   6.421163   6.936357   6.300449   3.838632
    24  H    2.773636   4.100141   4.782263   4.456379   4.357951
    25  H    2.773636   4.100141   4.782263   4.456379   4.357951
                    6          7          8          9         10
     6  C    0.000000
     7  C    1.377282   0.000000
     8  C    2.370009   1.390611   0.000000
     9  C    4.257269   3.790223   2.499472   0.000000
    10  C    3.797542   4.311267   3.775515   2.876857   0.000000
    11  C    5.148730   4.992518   3.837480   1.488321   2.450740
    12  C    4.942564   5.172853   4.304413   2.519985   1.401595
    13  C    2.789574   2.468691   1.433892   1.469001   2.459999
    14  C    2.466732   2.870810   2.453454   2.492130   1.440484
    15  H    6.924416   6.450475   5.107319   2.684888   4.581157
    16  H    8.517435   8.352872   7.124222   4.631040   5.279895
    17  H    8.322404   8.561585   7.592283   5.364130   4.579103
    18  H    6.427757   6.971404   6.308141   4.669111   2.667970
    19  H    4.142175   4.929540   4.630358   3.957873   1.081154
    20  H    2.168056   3.404307   3.838198   4.624899   2.704262
    21  H    1.081567   2.143139   3.364071   5.338319   4.643813
    22  H    2.146364   1.079031   2.153583   4.652548   5.390245
    23  H    3.359756   2.149935   1.083702   2.671997   4.623696
    24  H    4.698346   4.048945   2.723292   1.106168   3.676074
    25  H    4.698346   4.048945   2.723292   1.106168   3.676074
                   11         12         13         14         15
    11  C    0.000000
    12  C    1.421715   0.000000
    13  C    2.523987   2.870526   0.000000
    14  C    2.868210   2.475935   1.395531   0.000000
    15  H    2.133794   3.406997   4.138355   4.879171   0.000000
    16  H    3.383333   3.878304   5.892528   6.148433   2.467288
    17  H    3.875820   3.402972   6.178629   5.861027   4.284334
    18  H    3.412723   2.152896   4.895974   4.104442   4.947245
    19  H    3.429404   2.155250   3.426689   2.179209   5.526739
    20  H    4.889849   4.099055   3.365311   2.139265   6.972758
    21  H    6.192886   5.882325   3.870062   3.424768   8.002076
    22  H    5.951243   6.225003   3.448555   3.949811   7.244020
    23  H    4.149139   4.909018   2.165452   3.416858   4.972313
    24  H    2.141754   3.271560   2.093798   3.222429   2.686727
    25  H    2.141754   3.271560   2.093798   3.222429   2.686727
                   16         17         18         19         20
    16  H    0.000000
    17  H    2.474659   0.000000
    18  H    4.276093   2.463228   0.000000
    19  H    5.895774   4.743425   2.445086   0.000000
    20  H    7.970558   7.171015   4.934996   2.490068   0.000000
    21  H    9.544749   9.217559   7.189772   4.801060   2.464267
    22  H    9.271578   9.599833   8.049341   5.994001   4.304268
    23  H    7.211603   8.016126   7.010925   5.559434   4.921501
    24  H    4.831078   5.840948   5.357938   4.733823   5.283270
    25  H    4.831078   5.840948   5.357938   4.733823   5.283270
                   21         22         23         24         25
    21  H    0.000000
    22  H    2.492538   0.000000
    23  H    4.274437   2.488651   0.000000
    24  H    5.760773   4.780909   2.607527   0.000000
    25  H    5.760773   4.780909   2.607527   1.716313   0.000000
 Stoichiometry    C14H11(1+)
 Framework group  CS[SG(C14H9),X(H2)]
 Deg. of freedom    46
 Full point group                 CS      NOp   2
 Largest Abelian subgroup         CS      NOp   2
 Largest concise Abelian subgroup CS      NOp   2
                         Standard orientation:                         
 ---------------------------------------------------------------------
 Center     Atomic      Atomic             Coordinates (Angstroms)
 Number     Number       Type             X           Y           Z
 ---------------------------------------------------------------------
      1          6           0       -2.361577   -1.545208    0.000000
      2          6           0       -2.308117   -2.938971    0.000000
      3          6           0       -1.076598   -3.590090    0.000000
      4          6           0        0.089402   -2.861307    0.000000
      5          6           0        2.375399    1.501933    0.000000
      6          6           0        2.343066    2.934432    0.000000
      7          6           0        1.142330    3.609071    0.000000
      8          6           0       -0.025586    2.854239    0.000000
      9          6           0       -1.273704    0.688699    0.000000
     10          6           0        1.245251   -0.700967    0.000000
     11          6           0       -1.203568   -0.797968    0.000000
     12          6           0        0.060162   -1.449320    0.000000
     13          6           0        0.000000    1.420575    0.000000
     14          6           0        1.217913    0.739257    0.000000
     15          1           0       -3.322888   -1.046083    0.000000
     16          1           0       -3.224504   -3.511409    0.000000
     17          1           0       -1.037948   -4.670247    0.000000
     18          1           0        1.048968   -3.361707    0.000000
     19          1           0        2.201556   -1.205324    0.000000
     20          1           0        3.340075    1.009221    0.000000
     21          1           0        3.281131    3.472784    0.000000
     22          1           0        1.104585    4.687442    0.000000
     23          1           0       -0.991418    3.345744    0.000000
     24          1           0       -1.872899    1.046666    0.858157
     25          1           0       -1.872899    1.046666   -0.858157
 ---------------------------------------------------------------------
 Rotational constants (GHZ):           2.1383442           0.4448101           0.3690135
 Standard basis: CC-pVTZ (5D, 7F)
 There are   450 symmetry adapted cartesian basis functions of A'  symmetry.
 There are   205 symmetry adapted cartesian basis functions of A"  symmetry.
 There are   384 symmetry adapted basis functions of A'  symmetry.
 There are   190 symmetry adapted basis functions of A"  symmetry.
   574 basis functions,   915 primitive gaussians,   655 cartesian basis functions
    47 alpha electrons       47 beta electrons
       nuclear repulsion energy       781.4595370217 Hartrees.
 NAtoms=   25 NActive=   25 NUniq=   24 SFac= 1.09D+00 NAtFMM=   60 NAOKFM=F Big=F
 Integral buffers will be    131072 words long.
 Regular integral format.
 Two-electron integral symmetry is turned on.
 Nuclear repulsion after empirical dispersion term =      781.4585578309 Hartrees.
 One-electron integrals computed using PRISM.
 NBasis=   574 RedAO= T EigKep=  1.73D-05  NBF=   384   190
 NBsUse=   574 1.00D-06 EigRej= -1.00D+00 NBFU=   384   190
 ExpMin= 1.03D-01 ExpMax= 8.24D+03 ExpMxC= 2.81D+02 IAcc=3 IRadAn=         5 AccDes= 0.00D+00
 Harris functional with IExCor= 1009 and IRadAn=       5 diagonalized for initial guess.
 HarFok:  IExCor= 1009 AccDes= 0.00D+00 IRadAn=         5 IDoV= 1 UseB2=F ITyADJ=14
 ICtDFT=  3500011 ScaDFX=  1.000000  1.000000  1.000000  1.000000
 FoFCou: FMM=F IPFlag=           0 FMFlag=      100000 FMFlg1=           0
         NFxFlg=           0 DoJE=T BraDBF=F KetDBF=T FulRan=T
         wScrn=  0.000000 ICntrl=       500 IOpCl=  0 I1Cent=   200000004 NGrid=           0
         NMat0=    1 NMatS0=      1 NMatT0=    0 NMatD0=    1 NMtDS0=    0 NMtDT0=    0
 Petite list used in FoFCou.
 Initial guess orbital symmetries:
       Occupied  (A') (A') (A') (A') (A') (A') (A') (A') (A') (A')
                 (A') (A') (A') (A') (A') (A') (A') (A') (A') (A')
                 (A') (A') (A') (A') (A') (A') (A') (A') (A') (A')
                 (A') (A') (A") (A') (A') (A') (A') (A') (A") (A')
                 (A") (A') (A') (A") (A") (A") (A")
       Virtual   (A") (A") (A") (A") (A") (A') (A') (A') (A") (A")
                 (A') (A') (A') (A') (A') (A') (A') (A") (A') (A')
                 (A') (A') (A') (A') (A') (A') (A') (A') (A') (A')
                 (A") (A') (A") (A') (A") (A') (A") (A') (A') (A")
                 (A') (A') (A') (A') (A') (A") (A') (A") (A') (A")
                 (A") (A') (A') (A') (A") (A') (A") (A') (A') (A")
                 (A') (A') (A') (A') (A') (A") (A') (A") (A') (A')
                 (A") (A') (A') (A") (A') (A') (A') (A') (A") (A")
                 (A') (A') (A") (A") (A') (A") (A') (A") (A') (A')
                 (A') (A") (A') (A') (A') (A') (A") (A") (A') (A')
                 (A") (A') (A') (A') (A') (A") (A') (A') (A') (A")
                 (A") (A') (A') (A') (A") (A') (A') (A') (A") (A")
                 (A') (A") (A') (A') (A") (A') (A") (A') (A") (A')
                 (A') (A") (A") (A') (A') (A") (A") (A') (A') (A')
                 (A") (A') (A') (A') (A") (A') (A") (A') (A') (A")
                 (A') (A') (A") (A') (A') (A') (A') (A") (A") (A')
                 (A') (A') (A") (A') (A') (A') (A") (A') (A') (A')
                 (A") (A') (A') (A') (A') (A") (A') (A') (A') (A')
                 (A") (A') (A') (A") (A') (A") (A') (A') (A') (A')
                 (A') (A") (A') (A') (A") (A") (A') (A') (A') (A")
                 (A') (A') (A') (A') (A") (A') (A') (A") (A") (A")
                 (A') (A") (A") (A') (A') (A") (A') (A") (A') (A')
                 (A") (A') (A') (A') (A') (A') (A') (A") (A') (A')
                 (A') (A") (A') (A") (A") (A') (A') (A") (A") (A')
                 (A') (A') (A') (A') (A") (A") (A") (A") (A') (A")
                 (A") (A') (A') (A') (A") (A") (A") (A') (A") (A')
                 (A") (A') (A') (A") (A') (A") (A') (A') (A") (A')
                 (A") (A") (A') (A") (A') (A") (A") (A') (A') (A')
                 (A') (A') (A") (A") (A') (A') (A") (A') (A') (A")
                 (A') (A') (A") (A') (A') (A") (A') (A") (A') (A')
                 (A') (A') (A") (A') (A') (A") (A') (A') (A") (A')
                 (A") (A") (A') (A") (A') (A") (A") (A') (A') (A")
                 (A') (A") (A') (A') (A') (A") (A') (A") (A') (A")
                 (A') (A") (A") (A") (A') (A') (A') (A') (A") (A')
                 (A') (A") (A') (A") (A") (A") (A') (A') (A") (A")
                 (A') (A') (A") (A') (A') (A") (A') (A') (A') (A")
                 (A') (A") (A') (A") (A') (A') (A') (A") (A") (A')
                 (A') (A') (A") (A") (A') (A") (A") (A') (A') (A')
                 (A') (A") (A") (A") (A') (A") (A') (A') (A') (A')
                 (A") (A') (A") (A') (A") (A') (A") (A') (A') (A")
                 (A") (A') (A') (A") (A') (A') (A') (A') (A') (A")
                 (A') (A") (A') (A") (A') (A') (A') (A") (A') (A")
                 (A") (A') (A") (A') (A") (A') (A') (A") (A') (A')
                 (A") (A') (A') (A') (A') (A') (A") (A") (A') (A')
                 (A') (A") (A") (A') (A') (A') (A") (A') (A') (A')
                 (A") (A") (A") (A') (A") (A') (A') (A') (A") (A')
                 (A") (A') (A") (A') (A") (A') (A') (A") (A") (A')
                 (A') (A') (A") (A') (A') (A') (A') (A') (A') (A')
                 (A') (A") (A") (A') (A') (A') (A") (A') (A") (A')
                 (A') (A') (A') (A') (A') (A') (A') (A') (A') (A')
                 (A') (A') (A') (A") (A') (A') (A') (A') (A') (A')
                 (A') (A') (A') (A') (A') (A') (A') (A') (A') (A')
                 (A') (A') (A') (A') (A') (A') (A')
 The electronic state of the initial guess is 1-A'.
 Requested convergence on RMS density matrix=1.00D-08 within 128 cycles.
 Requested convergence on MAX density matrix=1.00D-06.
 Requested convergence on             energy=1.00D-06.
 No special actions if energy rises.
 Integral accuracy reduced to 1.0D-05 until final iterations.
 Initial convergence to 1.0D-05 achieved.  Increase integral accuracy.
 SCF Done:  E(RM062X) =  -539.812001874     A.U. after   14 cycles
            NFock= 14  Conv=0.76D-08     -V/T= 2.0062
 DoSCS=F DFT=T ScalE2(SS,OS)=  1.000000  1.000000
 ExpMin= 1.03D-01 ExpMax= 8.24D+03 ExpMxC= 2.81D+02 IAcc=3 IRadAn=         5 AccDes= 0.00D+00
 HarFok:  IExCor=  205 AccDes= 0.00D+00 IRadAn=         5 IDoV=-2 UseB2=F ITyADJ=14
 ICtDFT= 12500011 ScaDFX=  1.000000  1.000000  1.000000  1.000000
 Range of M.O.s used for correlation:    15   574
 NBasis=   574 NAE=    47 NBE=    47 NFC=    14 NFV=     0
 NROrb=    560 NOA=    33 NOB=    33 NVA=   527 NVB=   527

 **** Warning!!: The largest alpha MO coefficient is  0.56079428D+02

 Orbital symmetries:
       Occupied  (A') (A') (A') (A') (A') (A') (A') (A') (A') (A')
                 (A') (A') (A') (A') (A') (A') (A') (A') (A') (A')
                 (A') (A') (A') (A') (A') (A') (A') (A') (A') (A')
                 (A') (A") (A') (A') (A') (A') (A') (A") (A") (A')
                 (A') (A') (A') (A") (A") (A") (A")
       Virtual   (A") (A") (A") (A") (A") (A') (A') (A') (A') (A')
                 (A") (A') (A') (A') (A') (A") (A') (A") (A') (A')
                 (A') (A') (A') (A') (A') (A') (A') (A") (A') (A')
                 (A') (A") (A') (A") (A') (A") (A") (A') (A') (A')
                 (A") (A") (A') (A') (A') (A") (A') (A') (A') (A")
                 (A') (A') (A') (A") (A') (A") (A') (A') (A') (A")
                 (A') (A') (A') (A') (A") (A") (A") (A') (A') (A')
                 (A') (A') (A") (A') (A') (A') (A') (A") (A') (A")
                 (A") (A') (A") (A') (A') (A") (A') (A') (A") (A')
                 (A') (A") (A') (A') (A") (A") (A') (A') (A') (A')
                 (A') (A") (A') (A') (A') (A') (A') (A') (A") (A')
                 (A") (A") (A') (A') (A') (A') (A") (A') (A') (A')
                 (A") (A") (A") (A") (A') (A') (A') (A") (A") (A')
                 (A') (A") (A") (A') (A') (A") (A") (A') (A') (A')
                 (A') (A") (A') (A') (A') (A") (A') (A") (A') (A")
                 (A') (A') (A') (A") (A') (A') (A") (A') (A") (A')
                 (A') (A') (A') (A") (A') (A") (A') (A') (A') (A')
                 (A") (A') (A') (A") (A') (A') (A') (A') (A') (A")
                 (A') (A') (A') (A") (A') (A') (A") (A') (A') (A')
                 (A') (A") (A') (A') (A') (A') (A') (A") (A') (A")
                 (A') (A") (A') (A') (A') (A') (A") (A') (A") (A")
                 (A") (A') (A") (A') (A") (A') (A") (A") (A') (A')
                 (A') (A") (A') (A') (A') (A') (A') (A") (A') (A')
                 (A") (A') (A') (A') (A") (A") (A') (A") (A') (A")
                 (A') (A') (A') (A') (A") (A") (A") (A") (A') (A")
                 (A") (A') (A") (A') (A") (A") (A') (A') (A") (A")
                 (A') (A') (A') (A') (A") (A") (A') (A') (A") (A')
                 (A") (A") (A") (A') (A') (A") (A") (A') (A') (A')
                 (A') (A") (A") (A') (A') (A") (A") (A') (A') (A')
                 (A') (A') (A') (A") (A") (A') (A") (A') (A') (A')
                 (A') (A") (A") (A') (A') (A") (A') (A') (A') (A")
                 (A") (A') (A') (A") (A") (A") (A') (A') (A") (A')
                 (A') (A") (A') (A') (A") (A") (A') (A") (A') (A')
                 (A") (A") (A") (A') (A') (A') (A') (A") (A') (A')
                 (A") (A") (A') (A") (A') (A") (A') (A') (A") (A")
                 (A') (A") (A') (A") (A') (A') (A") (A') (A') (A")
                 (A') (A') (A") (A') (A") (A') (A') (A") (A') (A')
                 (A") (A") (A') (A") (A') (A") (A') (A") (A") (A')
                 (A") (A') (A") (A') (A') (A') (A") (A') (A') (A')
                 (A") (A') (A") (A") (A') (A') (A") (A") (A') (A')
                 (A') (A') (A") (A') (A') (A') (A") (A') (A') (A')
                 (A") (A') (A") (A') (A') (A') (A") (A') (A") (A")
                 (A') (A') (A") (A") (A') (A') (A") (A') (A') (A')
                 (A") (A') (A') (A') (A") (A') (A") (A') (A') (A')
                 (A') (A") (A") (A') (A') (A') (A") (A') (A') (A')
                 (A") (A') (A") (A") (A") (A') (A') (A') (A") (A")
                 (A') (A') (A") (A') (A") (A') (A') (A") (A") (A')
                 (A') (A") (A') (A') (A') (A') (A') (A') (A') (A')
                 (A') (A") (A") (A') (A') (A') (A") (A') (A") (A')
                 (A') (A') (A') (A') (A') (A') (A') (A') (A') (A')
                 (A') (A') (A") (A') (A') (A') (A') (A') (A') (A')
                 (A') (A') (A') (A') (A') (A') (A') (A') (A') (A')
                 (A') (A') (A') (A') (A') (A') (A')
    12 initial guesses have been made.
 Convergence on wavefunction:    0.001000000000000
 Iteration     1 Dimension    12 NMult     0 NNew     12
 CISAX will form    12 AO SS matrices at one time.
 New state      2 was old state      3
 New state      3 was old state      2
 Iteration     2 Dimension    18 NMult    12 NNew      6
 Iteration     3 Dimension    24 NMult    18 NNew      6
 Iteration     4 Dimension    30 NMult    24 NNew      6
 Iteration     5 Dimension    36 NMult    30 NNew      6
 Iteration     6 Dimension    42 NMult    36 NNew      6
 ***********************************************************************
 Excited states from <AA,BB:AA,BB> singles matrix:
 ***********************************************************************
 
 Ground to excited state transition densities written to RWF  633
 Ground to excited state transition electric dipole moments (Au):
       state          X           Y           Z        Dip. S.      Osc.
         1        -0.4797      0.3080     -0.0000      0.3250      0.0217
         2         0.4894      0.3184     -0.0000      0.3409      0.0282
         3         1.1018      2.2164     -0.0000      6.1262      0.5248
 Ground to excited state transition velocity dipole moments (Au):
       state          X           Y           Z        Dip. S.      Osc.
         1         0.0513     -0.0320     -0.0000      0.0037      0.0243
         2        -0.0624     -0.0390      0.0000      0.0054      0.0291
         3        -0.1457     -0.2934      0.0000      0.1073      0.5567
 Ground to excited state transition magnetic dipole moments (Au):
       state          X           Y           Z
         1        -0.0000     -0.0000     -0.1380
         2         0.0000     -0.0000     -1.0795
         3         0.0000      0.0000     -0.9709
 Ground to excited state transition velocity quadrupole moments (Au):
       state          XX          YY          ZZ          XY          XZ          YZ
         1         0.1253      0.1321     -0.0067      0.1248      0.0000     -0.0000
         2         0.1953     -0.3449      0.0041      0.1198      0.0000      0.0000
         3         0.0820      0.0175     -0.0003      0.0863     -0.0000      0.0000
 <0|del|b> * <b|rxdel|0> + <0|del|b> * <b|delr+rdel|0>
 Rotatory Strengths (R) in cgs (10**-40 erg-esu-cm/Gauss)
       state          XX          YY          ZZ    R(velocity)    E-M Angle
         1         0.0000     -0.0000     -0.0000      0.0000       90.00
         2        -0.0000     -0.0000     -0.0000     -0.0000       90.00
         3        -0.0000     -0.0000     -0.0000     -0.0000       90.00
 1/2[<0|r|b>*<b|rxdel|0> + (<0|rxdel|b>*<b|r|0>)*]
 Rotatory Strengths (R) in cgs (10**-40 erg-esu-cm/Gauss)
       state          XX          YY          ZZ     R(length)
         1        -0.0000      0.0000     -0.0000     -0.0000
         2        -0.0000      0.0000     -0.0000     -0.0000
         3        -0.0000     -0.0000     -0.0000     -0.0000
  1/2[<0|del|b>*<b|r|0> + (<0|r|b>*<b|del|0>)*] (Au)
       state          X           Y           Z        Dip. S.   Osc.(frdel)
         1        -0.0246     -0.0098      0.0000      0.0344      0.0230
         2        -0.0305     -0.0124     -0.0000      0.0430      0.0286
         3        -0.1605     -0.6503     -0.0000      0.8107      0.5405

 Excitation energies and oscillator strengths:
 
 Excited State   1:      Singlet-A'     2.7229 eV  455.35 nm  f=0.0217  <S**2>=0.000
      47 -> 48         0.70345
 This state for optimization and/or second-order correction.
 Total Energy, E(TD-HF/TD-DFT) =  -539.711938793    
 Copying the excited state density for this state as the 1-particle RhoCI density.
 
 Excited State   2:      Singlet-A'     3.3713 eV  367.77 nm  f=0.0282  <S**2>=0.000
      45 -> 48         0.62901
      46 -> 48         0.30861
 
 Excited State   3:      Singlet-A'     3.4966 eV  354.58 nm  f=0.5248  <S**2>=0.000
      45 -> 48        -0.31184
      46 -> 48         0.62492
 SavETr:  write IOETrn=   770 NScale= 10 NData=  16 NLR=1 NState=    3 LETran=      64.

 **********************************************************************

            Population analysis using the SCF Density.

 **********************************************************************

 Orbital symmetries:
       Occupied  (A') (A') (A') (A') (A') (A') (A') (A') (A') (A')
                 (A') (A') (A') (A') (A') (A') (A') (A') (A') (A')
                 (A') (A') (A') (A') (A') (A') (A') (A') (A') (A')
                 (A') (A") (A') (A') (A') (A') (A') (A") (A") (A')
                 (A') (A') (A') (A") (A") (A") (A")
       Virtual   (A") (A") (A") (A") (A") (A') (A') (A') (A') (A')
                 (A") (A') (A') (A') (A') (A") (A') (A") (A') (A')
                 (A') (A') (A') (A') (A') (A') (A') (A") (A') (A')
                 (A') (A") (A') (A") (A') (A") (A") (A') (A') (A')
                 (A") (A") (A') (A') (A') (A") (A') (A') (A') (A")
                 (A') (A') (A') (A") (A') (A") (A') (A') (A') (A")
                 (A') (A') (A') (A') (A") (A") (A") (A') (A') (A')
                 (A') (A') (A") (A') (A') (A') (A') (A") (A') (A")
                 (A") (A') (A") (A') (A') (A") (A') (A') (A") (A')
                 (A') (A") (A') (A') (A") (A") (A') (A') (A') (A')
                 (A') (A") (A') (A') (A') (A') (A') (A') (A") (A')
                 (A") (A") (A') (A') (A') (A') (A") (A') (A') (A')
                 (A") (A") (A") (A") (A') (A') (A') (A") (A") (A')
                 (A') (A") (A") (A') (A') (A") (A") (A') (A') (A')
                 (A') (A") (A') (A') (A') (A") (A') (A") (A') (A")
                 (A') (A') (A') (A") (A') (A') (A") (A') (A") (A')
                 (A') (A') (A') (A") (A') (A") (A') (A') (A') (A')
                 (A") (A') (A') (A") (A') (A') (A') (A') (A') (A")
                 (A') (A') (A') (A") (A') (A') (A") (A') (A') (A')
                 (A') (A") (A') (A') (A') (A') (A') (A") (A') (A")
                 (A') (A") (A') (A') (A') (A') (A") (A') (A") (A")
                 (A") (A') (A") (A') (A") (A') (A") (A") (A') (A')
                 (A') (A") (A') (A') (A') (A') (A') (A") (A') (A')
                 (A") (A') (A') (A') (A") (A") (A') (A") (A') (A")
                 (A') (A') (A') (A') (A") (A") (A") (A") (A') (A")
                 (A") (A') (A") (A') (A") (A") (A') (A') (A") (A")
                 (A') (A') (A') (A') (A") (A") (A') (A') (A") (A')
                 (A") (A") (A") (A') (A') (A") (A") (A') (A') (A')
                 (A') (A") (A") (A') (A') (A") (A") (A') (A') (A')
                 (A') (A') (A') (A") (A") (A') (A") (A') (A') (A')
                 (A') (A") (A") (A') (A') (A") (A') (A') (A') (A")
                 (A") (A') (A') (A") (A") (A") (A') (A') (A") (A')
                 (A') (A") (A') (A') (A") (A") (A') (A") (A') (A')
                 (A") (A") (A") (A') (A') (A') (A') (A") (A') (A')
                 (A") (A") (A') (A") (A') (A") (A') (A') (A") (A")
                 (A') (A") (A') (A") (A') (A') (A") (A') (A') (A")
                 (A') (A') (A") (A') (A") (A') (A') (A") (A') (A')
                 (A") (A") (A') (A") (A') (A") (A') (A") (A") (A')
                 (A") (A') (A") (A') (A') (A') (A") (A') (A') (A')
                 (A") (A') (A") (A") (A') (A') (A") (A") (A') (A')
                 (A') (A') (A") (A') (A') (A') (A") (A') (A') (A')
                 (A") (A') (A") (A') (A') (A') (A") (A') (A") (A")
                 (A') (A') (A") (A") (A') (A') (A") (A') (A') (A')
                 (A") (A') (A') (A') (A") (A') (A") (A') (A') (A')
                 (A') (A") (A") (A') (A') (A') (A") (A') (A') (A')
                 (A") (A') (A") (A") (A") (A') (A') (A') (A") (A")
                 (A') (A') (A") (A') (A") (A') (A') (A") (A") (A')
                 (A') (A") (A') (A') (A') (A') (A') (A') (A') (A')
                 (A') (A") (A") (A') (A') (A') (A") (A') (A") (A')
                 (A') (A') (A') (A') (A') (A') (A') (A') (A') (A')
                 (A') (A') (A") (A') (A') (A') (A') (A') (A') (A')
                 (A') (A') (A') (A') (A') (A') (A') (A') (A') (A')
                 (A') (A') (A') (A') (A') (A') (A')
 The electronic state is 1-A'.
 Alpha  occ. eigenvalues --  -10.77464 -10.73486 -10.72647 -10.72568 -10.71876
 Alpha  occ. eigenvalues --  -10.71723 -10.71604 -10.70828 -10.70820 -10.70173
 Alpha  occ. eigenvalues --  -10.70022 -10.69740 -10.69663 -10.69288  -1.16348
 Alpha  occ. eigenvalues --   -1.12312  -1.06768  -1.05707  -1.01140  -1.00216
 Alpha  occ. eigenvalues --   -0.95498  -0.90880  -0.86226  -0.85738  -0.83637
 Alpha  occ. eigenvalues --   -0.78206  -0.75887  -0.74167  -0.69495  -0.69112
 Alpha  occ. eigenvalues --   -0.68194  -0.67996  -0.67907  -0.64861  -0.64025
 Alpha  occ. eigenvalues --   -0.62649  -0.61513  -0.60255  -0.59344  -0.58945
 Alpha  occ. eigenvalues --   -0.56724  -0.55048  -0.54419  -0.52410  -0.47022
 Alpha  occ. eigenvalues --   -0.46045  -0.43970
 Alpha virt. eigenvalues --   -0.25956  -0.14403  -0.13944  -0.12473  -0.06813
 Alpha virt. eigenvalues --   -0.05531  -0.05390  -0.04105  -0.02640  -0.01633
 Alpha virt. eigenvalues --   -0.00222   0.00346   0.00599   0.01892   0.02374
 Alpha virt. eigenvalues --    0.04309   0.04521   0.07273   0.07814   0.09462
 Alpha virt. eigenvalues --    0.09938   0.10351   0.12555   0.13704   0.14255
 Alpha virt. eigenvalues --    0.15637   0.16048   0.16353   0.16814   0.16931
 Alpha virt. eigenvalues --    0.17926   0.18014   0.19498   0.19507   0.20303
 Alpha virt. eigenvalues --    0.20789   0.22132   0.22551   0.22902   0.24361
 Alpha virt. eigenvalues --    0.25250   0.26419   0.26557   0.27041   0.27254
 Alpha virt. eigenvalues --    0.28100   0.28343   0.28572   0.29323   0.29636
 Alpha virt. eigenvalues --    0.30077   0.30245   0.30805   0.31356   0.32406
 Alpha virt. eigenvalues --    0.33111   0.33203   0.34436   0.34552   0.34629
 Alpha virt. eigenvalues --    0.35976   0.37076   0.38336   0.38504   0.38705
 Alpha virt. eigenvalues --    0.39287   0.39624   0.39779   0.41101   0.42899
 Alpha virt. eigenvalues --    0.43580   0.44836   0.44987   0.45628   0.46843
 Alpha virt. eigenvalues --    0.47911   0.49098   0.49518   0.49704   0.50855
 Alpha virt. eigenvalues --    0.53203   0.53252   0.55957   0.56013   0.58095
 Alpha virt. eigenvalues --    0.58507   0.58634   0.58947   0.61218   0.61358
 Alpha virt. eigenvalues --    0.62133   0.62458   0.63153   0.63709   0.65897
 Alpha virt. eigenvalues --    0.66398   0.66875   0.67282   0.68454   0.69918
 Alpha virt. eigenvalues --    0.70325   0.71282   0.71543   0.72275   0.74010
 Alpha virt. eigenvalues --    0.75115   0.76400   0.76728   0.77105   0.79214
 Alpha virt. eigenvalues --    0.80209   0.80954   0.82057   0.83890   0.84710
 Alpha virt. eigenvalues --    0.85345   0.85486   0.85973   0.86766   0.88462
 Alpha virt. eigenvalues --    0.88687   0.88974   0.89570   0.92170   0.93069
 Alpha virt. eigenvalues --    0.93636   0.94909   0.94953   0.95214   0.95878
 Alpha virt. eigenvalues --    0.97033   0.97523   0.99398   1.01200   1.03288
 Alpha virt. eigenvalues --    1.04209   1.04790   1.05349   1.06333   1.07377
 Alpha virt. eigenvalues --    1.07933   1.09484   1.10459   1.11707   1.12802
 Alpha virt. eigenvalues --    1.12862   1.13881   1.14592   1.15362   1.15831
 Alpha virt. eigenvalues --    1.16649   1.16762   1.18022   1.18239   1.20009
 Alpha virt. eigenvalues --    1.21859   1.22002   1.22557   1.24504   1.24540
 Alpha virt. eigenvalues --    1.25704   1.26574   1.27640   1.28152   1.28793
 Alpha virt. eigenvalues --    1.29262   1.29993   1.30404   1.31948   1.32728
 Alpha virt. eigenvalues --    1.34836   1.35833   1.37182   1.37665   1.37735
 Alpha virt. eigenvalues --    1.41366   1.42183   1.42676   1.43986   1.45621
 Alpha virt. eigenvalues --    1.46319   1.47458   1.47692   1.49662   1.50872
 Alpha virt. eigenvalues --    1.56543   1.56875   1.62678   1.63452   1.65610
 Alpha virt. eigenvalues --    1.68780   1.70142   1.73462   1.76810   1.80631
 Alpha virt. eigenvalues --    1.81496   1.83195   1.86636   1.87043   1.89582
 Alpha virt. eigenvalues --    1.90625   1.92943   1.92945   1.94193   1.95130
 Alpha virt. eigenvalues --    1.96904   2.00050   2.03281   2.03640   2.04529
 Alpha virt. eigenvalues --    2.04924   2.06571   2.08320   2.09009   2.10362
 Alpha virt. eigenvalues --    2.13057   2.13547   2.15664   2.15763   2.19053
 Alpha virt. eigenvalues --    2.22869   2.23042   2.24423   2.26695   2.28432
 Alpha virt. eigenvalues --    2.28634   2.29491   2.30211   2.32111   2.32409
 Alpha virt. eigenvalues --    2.33243   2.33744   2.34914   2.35748   2.36164
 Alpha virt. eigenvalues --    2.36679   2.37343   2.38386   2.38839   2.39183
 Alpha virt. eigenvalues --    2.39666   2.43559   2.44576   2.45369   2.46882
 Alpha virt. eigenvalues --    2.48314   2.50311   2.50818   2.52665   2.53314
 Alpha virt. eigenvalues --    2.53856   2.55914   2.57192   2.57229   2.57349
 Alpha virt. eigenvalues --    2.58073   2.58594   2.59347   2.59583   2.60009
 Alpha virt. eigenvalues --    2.61327   2.61799   2.64456   2.64681   2.64814
 Alpha virt. eigenvalues --    2.66456   2.66721   2.68666   2.69402   2.70689
 Alpha virt. eigenvalues --    2.72449   2.74102   2.74729   2.75016   2.75359
 Alpha virt. eigenvalues --    2.76366   2.76595   2.78292   2.79303   2.80246
 Alpha virt. eigenvalues --    2.80512   2.80993   2.81211   2.82506   2.83644
 Alpha virt. eigenvalues --    2.84699   2.85170   2.85225   2.85610   2.86025
 Alpha virt. eigenvalues --    2.87905   2.88885   2.89371   2.89684   2.91534
 Alpha virt. eigenvalues --    2.92052   2.92379   2.92597   2.93068   2.93953
 Alpha virt. eigenvalues --    2.94162   2.95326   2.96073   2.96112   2.96979
 Alpha virt. eigenvalues --    2.98158   2.98596   2.99101   3.00337   3.01165
 Alpha virt. eigenvalues --    3.01830   3.01967   3.03472   3.03566   3.04172
 Alpha virt. eigenvalues --    3.05650   3.05662   3.06678   3.07569   3.08092
 Alpha virt. eigenvalues --    3.10769   3.12760   3.13003   3.15127   3.15333
 Alpha virt. eigenvalues --    3.15675   3.15763   3.16115   3.17109   3.17877
 Alpha virt. eigenvalues --    3.20433   3.20582   3.21242   3.21313   3.22362
 Alpha virt. eigenvalues --    3.22662   3.23596   3.24064   3.24420   3.26936
 Alpha virt. eigenvalues --    3.28757   3.29154   3.29461   3.30102   3.31432
 Alpha virt. eigenvalues --    3.33148   3.33935   3.34032   3.34537   3.36759
 Alpha virt. eigenvalues --    3.39247   3.40236   3.41088   3.43620   3.45355
 Alpha virt. eigenvalues --    3.46653   3.47151   3.49185   3.50429   3.50645
 Alpha virt. eigenvalues --    3.50680   3.53524   3.53650   3.54685   3.56020
 Alpha virt. eigenvalues --    3.56362   3.56652   3.56968   3.57598   3.59729
 Alpha virt. eigenvalues --    3.60521   3.61188   3.61460   3.61978   3.62961
 Alpha virt. eigenvalues --    3.63989   3.65366   3.66407   3.67684   3.67878
 Alpha virt. eigenvalues --    3.67915   3.68272   3.68788   3.69580   3.71145
 Alpha virt. eigenvalues --    3.71969   3.75728   3.75890   3.77010   3.78270
 Alpha virt. eigenvalues --    3.78575   3.78851   3.80549   3.83140   3.83150
 Alpha virt. eigenvalues --    3.83540   3.85063   3.85391   3.85554   3.87868
 Alpha virt. eigenvalues --    3.89345   3.89549   3.90318   3.91758   3.94895
 Alpha virt. eigenvalues --    3.95298   3.95636   3.96078   3.96824   3.97763
 Alpha virt. eigenvalues --    3.98058   3.98211   4.00929   4.02084   4.02367
 Alpha virt. eigenvalues --    4.04170   4.05796   4.05989   4.06700   4.07304
 Alpha virt. eigenvalues --    4.07566   4.08767   4.08833   4.10758   4.11241
 Alpha virt. eigenvalues --    4.12888   4.13287   4.13362   4.14605   4.15118
 Alpha virt. eigenvalues --    4.16565   4.17126   4.18656   4.19061   4.21302
 Alpha virt. eigenvalues --    4.21893   4.24140   4.24474   4.27978   4.30124
 Alpha virt. eigenvalues --    4.31624   4.32329   4.34275   4.36323   4.37700
 Alpha virt. eigenvalues --    4.40831   4.42923   4.43476   4.47299   4.50815
 Alpha virt. eigenvalues --    4.51055   4.52900   4.53433   4.53916   4.54331
 Alpha virt. eigenvalues --    4.56842   4.58270   4.58399   4.61305   4.62824
 Alpha virt. eigenvalues --    4.65728   4.67490   4.68873   4.69900   4.70146
 Alpha virt. eigenvalues --    4.76112   4.76502   4.79621   4.80641   4.82203
 Alpha virt. eigenvalues --    4.83309   4.83658   4.83892   4.86698   4.88813
 Alpha virt. eigenvalues --    4.90159   4.91662   4.93175   4.96450   4.98277
 Alpha virt. eigenvalues --    5.00382   5.02022   5.05705   5.07329   5.10775
 Alpha virt. eigenvalues --    5.15299   5.16282   5.17351   5.19899   5.23091
 Alpha virt. eigenvalues --    5.25036   5.28062   5.31747   5.33945   5.42913
 Alpha virt. eigenvalues --    5.45926   5.48772   5.51113   5.58777   5.61958
 Alpha virt. eigenvalues --    5.62651   5.65353   5.69406   5.70410   5.78365
 Alpha virt. eigenvalues --    5.78923   5.83718   5.87111   5.99833   6.10927
 Alpha virt. eigenvalues --    6.14866   6.48027   6.63554   8.17585   9.51881
 Alpha virt. eigenvalues --   11.49551  12.19060  12.39495  12.64551  12.87204
 Alpha virt. eigenvalues --   12.97007  13.16934  13.45143  14.51085  14.60916
 Alpha virt. eigenvalues --   15.15690  15.69502
          Condensed to atoms (all electrons):
               1          2          3          4          5          6
     1  C    4.934117   0.496139  -0.059051  -0.015882   0.000051   0.000001
     2  C    0.496139   4.831839   0.466041  -0.066393  -0.000004  -0.000000
     3  C   -0.059051   0.466041   4.908785   0.517979   0.000014   0.000000
     4  C   -0.015882  -0.066393   0.517979   4.885166  -0.000258   0.000010
     5  C    0.000051  -0.000004   0.000014  -0.000258   4.943241   0.521903
     6  C    0.000001  -0.000000   0.000000   0.000010   0.521903   4.898560
     7  C    0.000005  -0.000000  -0.000000  -0.000003  -0.061694   0.477416
     8  C   -0.000054   0.000007   0.000001   0.000041  -0.024601  -0.067856
     9  C   -0.065563   0.004910  -0.001529   0.004961   0.006195  -0.001352
    10  C    0.007152  -0.001777   0.008537  -0.041281  -0.042568   0.006809
    11  C    0.476636  -0.041976  -0.038104  -0.069033  -0.002063   0.000153
    12  C   -0.053146  -0.029106  -0.042195   0.414178   0.007665  -0.000390
    13  C    0.008597  -0.000136   0.000182  -0.001804  -0.078412  -0.042309
    14  C   -0.001513  -0.000067  -0.000495   0.007329   0.414841  -0.044110
    15  H    0.431468  -0.036765   0.005066  -0.000868  -0.000000   0.000000
    16  H   -0.044689   0.438071  -0.043816   0.005851   0.000000  -0.000000
    17  H    0.005438  -0.043106   0.436517  -0.043555  -0.000000   0.000000
    18  H   -0.000730   0.005165  -0.033598   0.439545  -0.000009   0.000001
    19  H   -0.000166   0.000035   0.000272  -0.001516  -0.000887   0.000089
    20  H   -0.000001  -0.000000   0.000001  -0.000007   0.440101  -0.028861
    21  H    0.000000   0.000000   0.000000  -0.000000  -0.039562   0.434002
    22  H   -0.000000   0.000000  -0.000000   0.000000   0.005713  -0.044247
    23  H    0.000024   0.000001   0.000000  -0.000001  -0.000755   0.005835
    24  H   -0.009054  -0.000121   0.000024   0.000130   0.000192   0.000024
    25  H   -0.009054  -0.000121   0.000024   0.000130   0.000192   0.000024
               7          8          9         10         11         12
     1  C    0.000005  -0.000054  -0.065563   0.007152   0.476636  -0.053146
     2  C   -0.000000   0.000007   0.004910  -0.001777  -0.041976  -0.029106
     3  C   -0.000000   0.000001  -0.001529   0.008537  -0.038104  -0.042195
     4  C   -0.000003   0.000041   0.004961  -0.041281  -0.069033   0.414178
     5  C   -0.061694  -0.024601   0.006195  -0.042568  -0.002063   0.007665
     6  C    0.477416  -0.067856  -0.001352   0.006809   0.000153  -0.000390
     7  C    4.817888   0.501871   0.004212  -0.001427  -0.000133  -0.000039
     8  C    0.501871   4.941921  -0.066314   0.005932   0.008738  -0.001364
     9  C    0.004212  -0.066314   5.051999  -0.024348   0.337086  -0.041620
    10  C   -0.001427   0.005932  -0.024348   4.878516  -0.040758   0.463730
    11  C   -0.000133   0.008738   0.337086  -0.040758   5.070765   0.347971
    12  C   -0.000039  -0.001364  -0.041620   0.463730   0.347971   5.054817
    13  C   -0.037875   0.490680   0.311565  -0.037612  -0.002989  -0.049243
    14  C   -0.020321  -0.058157  -0.040422   0.476128  -0.048117  -0.046446
    15  H    0.000001   0.000010   0.000672  -0.000085  -0.056583   0.008707
    16  H    0.000000  -0.000000  -0.000231   0.000042   0.007430  -0.000808
    17  H    0.000000   0.000000   0.000060  -0.000343  -0.000674   0.006908
    18  H   -0.000000  -0.000001  -0.000103  -0.000365   0.004720  -0.061369
    19  H    0.000040  -0.000159  -0.000198   0.417609   0.004824  -0.038766
    20  H    0.004270  -0.000447  -0.000129  -0.001237  -0.000068   0.000862
    21  H   -0.045038   0.006202   0.000056  -0.000252  -0.000005   0.000013
    22  H    0.436445  -0.043238  -0.000222   0.000038   0.000008  -0.000001
    23  H   -0.037160   0.429459   0.003336  -0.000057   0.000386  -0.000011
    24  H   -0.000043  -0.010932   0.413268  -0.002292  -0.036850   0.007407
    25  H   -0.000043  -0.010932   0.413268  -0.002292  -0.036850   0.007407
              13         14         15         16         17         18
     1  C    0.008597  -0.001513   0.431468  -0.044689   0.005438  -0.000730
     2  C   -0.000136  -0.000067  -0.036765   0.438071  -0.043106   0.005165
     3  C    0.000182  -0.000495   0.005066  -0.043816   0.436517  -0.033598
     4  C   -0.001804   0.007329  -0.000868   0.005851  -0.043555   0.439545
     5  C   -0.078412   0.414841  -0.000000   0.000000  -0.000000  -0.000009
     6  C   -0.042309  -0.044110   0.000000  -0.000000   0.000000   0.000001
     7  C   -0.037875  -0.020321   0.000001   0.000000   0.000000  -0.000000
     8  C    0.490680  -0.058157   0.000010  -0.000000   0.000000  -0.000001
     9  C    0.311565  -0.040422   0.000672  -0.000231   0.000060  -0.000103
    10  C   -0.037612   0.476128  -0.000085   0.000042  -0.000343  -0.000365
    11  C   -0.002989  -0.048117  -0.056583   0.007430  -0.000674   0.004720
    12  C   -0.049243  -0.046446   0.008707  -0.000808   0.006908  -0.061369
    13  C    5.133275   0.333481   0.000262   0.000009  -0.000005  -0.000047
    14  C    0.333481   5.028991  -0.000003  -0.000001   0.000016   0.000787
    15  H    0.000262  -0.000003   0.515107  -0.006125  -0.000176   0.000037
    16  H    0.000009  -0.000001  -0.006125   0.502939  -0.006006  -0.000156
    17  H   -0.000005   0.000016  -0.000176  -0.006006   0.509120  -0.006817
    18  H   -0.000047   0.000787   0.000037  -0.000156  -0.006817   0.516679
    19  H    0.005027  -0.032053   0.000012  -0.000001  -0.000033   0.002735
    20  H    0.005557  -0.065681   0.000000   0.000000  -0.000000   0.000003
    21  H   -0.000439   0.006071  -0.000000   0.000000  -0.000000   0.000000
    22  H    0.006733  -0.000879  -0.000000  -0.000000   0.000000   0.000000
    23  H   -0.057239   0.008073   0.000011  -0.000000  -0.000000  -0.000000
    24  H   -0.041606   0.008218   0.000554  -0.000008  -0.000000   0.000011
    25  H   -0.041606   0.008218   0.000554  -0.000008  -0.000000   0.000011
              19         20         21         22         23         24
     1  C   -0.000166  -0.000001   0.000000  -0.000000   0.000024  -0.009054
     2  C    0.000035  -0.000000   0.000000   0.000000   0.000001  -0.000121
     3  C    0.000272   0.000001   0.000000  -0.000000   0.000000   0.000024
     4  C   -0.001516  -0.000007  -0.000000   0.000000  -0.000001   0.000130
     5  C   -0.000887   0.440101  -0.039562   0.005713  -0.000755   0.000192
     6  C    0.000089  -0.028861   0.434002  -0.044247   0.005835   0.000024
     7  C    0.000040   0.004270  -0.045038   0.436445  -0.037160  -0.000043
     8  C   -0.000159  -0.000447   0.006202  -0.043238   0.429459  -0.010932
     9  C   -0.000198  -0.000129   0.000056  -0.000222   0.003336   0.413268
    10  C    0.417609  -0.001237  -0.000252   0.000038  -0.000057  -0.002292
    11  C    0.004824  -0.000068  -0.000005   0.000008   0.000386  -0.036850
    12  C   -0.038766   0.000862   0.000013  -0.000001  -0.000011   0.007407
    13  C    0.005027   0.005557  -0.000439   0.006733  -0.057239  -0.041606
    14  C   -0.032053  -0.065681   0.006071  -0.000879   0.008073   0.008218
    15  H    0.000012   0.000000  -0.000000  -0.000000   0.000011   0.000554
    16  H   -0.000001   0.000000   0.000000  -0.000000  -0.000000  -0.000008
    17  H   -0.000033  -0.000000  -0.000000   0.000000  -0.000000  -0.000000
    18  H    0.002735   0.000003   0.000000   0.000000  -0.000000   0.000011
    19  H    0.480819   0.002675  -0.000022  -0.000002   0.000010   0.000017
    20  H    0.002675   0.520304  -0.005970  -0.000153   0.000032   0.000015
    21  H   -0.000022  -0.005970   0.508489  -0.005937  -0.000217  -0.000000
    22  H   -0.000002  -0.000153  -0.005937   0.503090  -0.005966  -0.000010
    23  H    0.000010   0.000032  -0.000217  -0.005966   0.518164   0.000285
    24  H    0.000017   0.000015  -0.000000  -0.000010   0.000285   0.500870
    25  H    0.000017   0.000015  -0.000000  -0.000010   0.000285  -0.032585
              25
     1  C   -0.009054
     2  C   -0.000121
     3  C    0.000024
     4  C    0.000130
     5  C    0.000192
     6  C    0.000024
     7  C   -0.000043
     8  C   -0.010932
     9  C    0.413268
    10  C   -0.002292
    11  C   -0.036850
    12  C    0.007407
    13  C   -0.041606
    14  C    0.008218
    15  H    0.000554
    16  H   -0.000008
    17  H   -0.000000
    18  H    0.000011
    19  H    0.000017
    20  H    0.000015
    21  H   -0.000000
    22  H   -0.000010
    23  H    0.000285
    24  H   -0.032585
    25  H    0.500870
 Mulliken charges:
               1
     1  C   -0.100727
     2  C   -0.022636
     3  C   -0.124655
     4  C   -0.034717
     5  C   -0.089293
     6  C   -0.115700
     7  C   -0.038373
     8  C   -0.100808
     9  C   -0.309557
    10  C   -0.067798
    11  C    0.115486
    12  C    0.044839
    13  C    0.095953
    14  C    0.066115
    15  H    0.138145
    16  H    0.147507
    17  H    0.142657
    18  H    0.133502
    19  H    0.159623
    20  H    0.128719
    21  H    0.142609
    22  H    0.148637
    23  H    0.135505
    24  H    0.202484
    25  H    0.202484
 Sum of Mulliken charges =   1.00000
 Mulliken charges with hydrogens summed into heavy atoms:
               1
     1  C    0.037418
     2  C    0.124871
     3  C    0.018003
     4  C    0.098784
     5  C    0.039425
     6  C    0.026908
     7  C    0.110263
     8  C    0.034697
     9  C    0.095412
    10  C    0.091825
    11  C    0.115486
    12  C    0.044839
    13  C    0.095953
    14  C    0.066115
 Electronic spatial extent (au):  <R**2>=           2853.9556
 Charge=              1.0000 electrons
 Dipole moment (field-independent basis, Debye):
    X=             -0.2259    Y=             -0.8127    Z=              0.0000  Tot=              0.8435
 Quadrupole moment (field-independent basis, Debye-Ang):
   XX=            -51.1120   YY=            -36.2046   ZZ=            -83.3647
   XY=             10.3610   XZ=             -0.0000   YZ=             -0.0000
 Traceless Quadrupole moment (field-independent basis, Debye-Ang):
   XX=              5.7817   YY=             20.6892   ZZ=            -26.4709
   XY=             10.3610   XZ=             -0.0000   YZ=             -0.0000
 Octapole moment (field-independent basis, Debye-Ang**2):
  XXX=             -2.5815  YYY=             -1.9987  ZZZ=              0.0000  XYY=             -2.4198
  XXY=             -7.4366  XXZ=              0.0000  XZZ=             -3.1255  YZZ=              0.3755
  YYZ=              0.0000  XYZ=             -0.0000
 Hexadecapole moment (field-independent basis, Debye-Ang**3):
 XXXX=           -987.1821 YYYY=          -1848.6111 ZZZZ=            -97.5844 XXXY=           -347.3057
 XXXZ=             -0.0000 YYYX=           -272.9151 YYYZ=              0.0000 ZZZX=              0.0000
 ZZZY=             -0.0000 XXYY=           -454.1665 XXZZ=           -238.7270 YYZZ=           -489.7321
 XXYZ=              0.0000 YYXZ=             -0.0000 ZZXY=           -180.6496
 N-N= 7.814585578309D+02 E-N=-2.798449397076D+03  KE= 5.364710454379D+02
 Symmetry A'   KE= 5.218319495665D+02
 Symmetry A"   KE= 1.463909587145D+01
 Unable to Open any file for archive entry.
 1\1\GINC-GADI-CPU-CLX-1148\SP\RM062X TD-FC\CC-pVTZ\C14H11(1+)\TS1578\2
 1-Jul-2022\0\\#n M062X/cc-pvtz TD EmpiricalDispersion=GD3 SP\\SP_23\\1
 ,1\C,0,2.471150992,1.3708852969,0.\C,0,3.6773724774,0.670555694,0.\C,0
 ,3.6755047037,-0.7224957905,0.\C,0,2.4853104931,-1.4110590583,0.\C,0,-
 2.4404394575,-1.3859768823,0.\C,0,-3.6907820291,-0.6861592096,0.\C,0,-
 3.7241165326,0.6907191575,0.\C,0,-2.5100120776,1.3687679703,0.\C,0,-0.
 0120850484,1.4566263866,0.\C,0,0.0352127691,-1.4198422278,0.\C,0,1.268
 3956925,0.6980304939,0.\C,0,1.2516398007,-0.7235858415,0.\C,0,-1.25548
 00006,0.6743652981,0.\C,0,-1.2242937141,-0.7208170298,0.\H,0,2.4806756
 442,2.4540075741,0.\H,0,4.6124821804,1.2118681196,0.\H,0,4.6116216335,
 -1.2627904951,0.\H,0,2.4777294545,-2.4932370286,0.\H,0,0.0326556901,-2
 .5009936634,0.\H,0,-2.4572076742,-2.4690669318,0.\H,0,-4.605937426,-1.
 2625950496,0.\H,0,-4.6590796515,1.2293767814,0.\H,0,-2.4916368809,2.45
 23137129,0.\H,0,-0.0475421244,2.153704505,-0.8581567328\H,0,-0.0475421
 244,2.153704505,0.8581567328\\Version=ES64L-G16RevC.01\State=1-A'\HF=-
 539.8120019\RMSD=7.584e-09\PG=CS [SG(C14H9),X(H2)]\\@
 The archive entry for this job was punched.


 You don't have to suffer to be a poet.
 Adolescence is enough suffering for anyone.
                             -- John Ciardi
 Job cpu time:       0 days  2 hours 14 minutes 28.3 seconds.
 Elapsed time:       0 days  0 hours  8 minutes 43.1 seconds.
 File lengths (MBytes):  RWF=    833 Int=      0 D2E=      0 Chk=     49 Scr=      1
 Normal termination of Gaussian 16 at Thu Jul 21 15:31:02 2022.
