 Entering Gaussian System, Link 0=g16
 Initial command:
 /apps/gaussian/g16c01/g16/l1.exe "/jobfs/52693649.gadi-pbs/Gau-1293125.inp" -scrdir="/jobfs/52693649.gadi-pbs/"
 Entering Link 1 = /apps/gaussian/g16c01/g16/l1.exe PID=   1293128.
  
 Copyright (c) 1988-2019, Gaussian, Inc.  All Rights Reserved.
  
 This is part of the Gaussian(R) 16 program.  It is based on
 the Gaussian(R) 09 system (copyright 2009, Gaussian, Inc.),
 the Gaussian(R) 03 system (copyright 2003, Gaussian, Inc.),
 the Gaussian(R) 98 system (copyright 1998, Gaussian, Inc.),
 the Gaussian(R) 94 system (copyright 1995, Gaussian, Inc.),
 the Gaussian 92(TM) system (copyright 1992, Gaussian, Inc.),
 the Gaussian 90(TM) system (copyright 1990, Gaussian, Inc.),
 the Gaussian 88(TM) system (copyright 1988, Gaussian, Inc.),
 the Gaussian 86(TM) system (copyright 1986, Carnegie Mellon
 University), and the Gaussian 82(TM) system (copyright 1983,
 Carnegie Mellon University). Gaussian is a federally registered
 trademark of Gaussian, Inc.
  
 This software contains proprietary and confidential information,
 including trade secrets, belonging to Gaussian, Inc.
  
 This software is provided under written license and may be
 used, copied, transmitted, or stored only in accord with that
 written license.
  
 The following legend is applicable only to US Government
 contracts under FAR:
  
                    RESTRICTED RIGHTS LEGEND
  
 Use, reproduction and disclosure by the US Government is
 subject to restrictions as set forth in subparagraphs (a)
 and (c) of the Commercial Computer Software - Restricted
 Rights clause in FAR 52.227-19.
  
 Gaussian, Inc.
 340 Quinnipiac St., Bldg. 40, Wallingford CT 06492
  
  
 ---------------------------------------------------------------
 Warning -- This program may not be used in any manner that
 competes with the business of Gaussian, Inc. or will provide
 assistance to any competitor of Gaussian, Inc.  The licensee
 of this program is prohibited from giving any competitor of
 Gaussian, Inc. access to this program.  By using this program,
 the user acknowledges that Gaussian, Inc. is engaged in the
 business of creating and licensing software in the field of
 computational chemistry and represents and warrants to the
 licensee that it is not a competitor of Gaussian, Inc. and that
 it will not use this program in any manner prohibited above.
 ---------------------------------------------------------------
  

 Cite this work as:
 Gaussian 16, Revision C.01,
 M. J. Frisch, G. W. Trucks, H. B. Schlegel, G. E. Scuseria, 
 M. A. Robb, J. R. Cheeseman, G. Scalmani, V. Barone, 
 G. A. Petersson, H. Nakatsuji, X. Li, M. Caricato, A. V. Marenich, 
 J. Bloino, B. G. Janesko, R. Gomperts, B. Mennucci, H. P. Hratchian, 
 J. V. Ortiz, A. F. Izmaylov, J. L. Sonnenberg, D. Williams-Young, 
 F. Ding, F. Lipparini, F. Egidi, J. Goings, B. Peng, A. Petrone, 
 T. Henderson, D. Ranasinghe, V. G. Zakrzewski, J. Gao, N. Rega, 
 G. Zheng, W. Liang, M. Hada, M. Ehara, K. Toyota, R. Fukuda, 
 J. Hasegawa, M. Ishida, T. Nakajima, Y. Honda, O. Kitao, H. Nakai, 
 T. Vreven, K. Throssell, J. A. Montgomery, Jr., J. E. Peralta, 
 F. Ogliaro, M. J. Bearpark, J. J. Heyd, E. N. Brothers, K. N. Kudin, 
 V. N. Staroverov, T. A. Keith, R. Kobayashi, J. Normand, 
 K. Raghavachari, A. P. Rendell, J. C. Burant, S. S. Iyengar, 
 J. Tomasi, M. Cossi, J. M. Millam, M. Klene, C. Adamo, R. Cammi, 
 J. W. Ochterski, R. L. Martin, K. Morokuma, O. Farkas, 
 J. B. Foresman, and D. J. Fox, Gaussian, Inc., Wallingford CT, 2019.
 
 ******************************************
 Gaussian 16:  ES64L-G16RevC.01  3-Jul-2019
                26-Jul-2022 
 ******************************************
 %NProcShared=16
 Will use up to   16 processors via shared memory.
 %mem = 64GB
 ---------------------------------------------------------------
 #n M062X/6-311++G(d,p) TD(NStates=1) EmpiricalDispersion=GD3 SP
 ---------------------------------------------------------------
 1/38=1,172=1/1;
 2/12=2,17=6,18=5,40=1/2;
 3/5=4,6=6,7=1111,11=9,25=1,30=1,74=-55,124=31/1,2,3,8;
 4//1;
 5/5=2,38=5/2;
 8/6=1,10=2,108=1/1;
 9/41=1,42=1,70=2/14;
 6/7=2,8=2,9=2,10=2/1;
 99/5=1,9=1/99;
 ----
 SP_1
 ----
 Symbolic Z-matrix:
 Charge =  1 Multiplicity = 1
 C                     2.4927    1.3131    0.017 
 C                     3.7015    0.6087   -0.029 
 C                     3.6839   -0.7441   -0.064 
 C                     2.4632   -1.3129   -0.052 
 C                    -2.4632   -1.3249    0.012 
 C                    -3.6839   -0.7381    0.064 
 C                    -3.7015    0.6087    0.035 
 C                    -2.4927    1.2971    0.017 
 C                     0.        1.4301    0.033 
 C                     0.       -1.3045   -0.027 
 C                     1.2621    0.7257    0.052 
 C                     1.2375   -0.6831   -0.017 
 C                    -1.2621    0.7177   -0.036 
 C                    -1.2375   -0.6891   -0.009 
 H                     2.4881    2.4463    0.018 
 H                     4.6368    1.1574   -0.04 
 H                     4.6093   -1.2617    0.006 
 H                     2.4675   -2.4274   -0.053 
 H                     0.       -2.4016   -0.028 
 H                    -2.4675   -2.4634    0.011 
 H                    -4.6093   -1.2737    0.022 
 H                    -4.6368    1.1394    0.016 
 H                    -2.4881    2.4183    0.018 
 H                    -0.002     1.9785   -0.8296 
 H                     0.002     1.9785    0.8896 
 
                          Input orientation:                          
 ---------------------------------------------------------------------
 Center     Atomic      Atomic             Coordinates (Angstroms)
 Number     Number       Type             X           Y           Z
 ---------------------------------------------------------------------
      1          6           0        2.492700    1.313100    0.017000
      2          6           0        3.701500    0.608700   -0.029000
      3          6           0        3.683900   -0.744100   -0.064000
      4          6           0        2.463200   -1.312900   -0.052000
      5          6           0       -2.463200   -1.324900    0.012000
      6          6           0       -3.683900   -0.738100    0.064000
      7          6           0       -3.701500    0.608700    0.035000
      8          6           0       -2.492700    1.297100    0.017000
      9          6           0        0.000000    1.430100    0.033000
     10          6           0        0.000000   -1.304500   -0.027000
     11          6           0        1.262100    0.725700    0.052000
     12          6           0        1.237500   -0.683100   -0.017000
     13          6           0       -1.262100    0.717700   -0.036000
     14          6           0       -1.237500   -0.689100   -0.009000
     15          1           0        2.488100    2.446300    0.018000
     16          1           0        4.636800    1.157400   -0.040000
     17          1           0        4.609300   -1.261700    0.006000
     18          1           0        2.467500   -2.427400   -0.053000
     19          1           0        0.000000   -2.401600   -0.028000
     20          1           0       -2.467500   -2.463400    0.011000
     21          1           0       -4.609300   -1.273700    0.022000
     22          1           0       -4.636800    1.139400    0.016000
     23          1           0       -2.488100    2.418300    0.018000
     24          1           0       -0.002000    1.978500   -0.829600
     25          1           0        0.002000    1.978500    0.889600
 ---------------------------------------------------------------------
                    Distance matrix (angstroms):
                    1          2          3          4          5
     1  C    0.000000
     2  C    1.399819   0.000000
     3  C    2.378569   1.353367   0.000000
     4  C    2.627072   2.286146   1.346769   0.000000
     5  C    5.614269   6.460961   6.174945   4.926830   0.000000
     6  C    6.508457   7.507773   7.368914   6.175005   1.355414
     7  C    6.234149   7.403277   7.508928   6.457836   2.296241
     8  C    4.985426   6.232505   6.505647   5.601590   2.622171
     9  C    2.495496   3.792050   4.278747   3.687632   3.695649
    10  C    3.614875   4.166706   3.726464   2.463341   2.463593
    11  C    1.364053   2.443547   2.835292   2.368406   4.252578
    12  C    2.358283   2.782119   2.447612   1.378482   3.756052
    13  C    3.802083   4.964802   5.157573   4.242812   2.370055
    14  C    4.233660   5.106702   4.922015   3.753153   1.380950
    15  H    1.133210   2.202572   3.408125   3.759934   6.223934
    16  H    2.150501   1.084426   2.127039   3.290450   7.521603
    17  H    3.333123   2.079356   1.062626   2.147494   7.072785
    18  H    3.741240   3.277382   2.076836   1.114509   5.052874
    19  H    4.473765   4.771060   4.039768   2.693176   2.688538
    20  H    6.234226   6.891731   6.387593   5.063538   1.138509
    21  H    7.558437   8.521469   8.310538   7.072996   2.146734
    22  H    7.131616   8.355293   8.531590   7.511884   3.285929
    23  H    5.101944   6.448877   6.935494   6.200171   3.743288
    24  H    2.717171   4.029048   4.645918   4.185115   4.204551
    25  H    2.721723   4.050491   4.677424   4.216329   4.214243
                    6          7          8          9         10
     6  C    0.000000
     7  C    1.347227   0.000000
     8  C    2.358645   1.391192   0.000000
     9  C    4.274713   3.791544   2.496297   0.000000
    10  C    3.728298   4.167167   3.603306   2.735258   0.000000
    11  C    5.158078   4.965008   3.798190   1.445488   2.391830
    12  C    4.922374   5.105406   4.223356   2.449392   1.384790
    13  C    2.827449   2.442866   1.361209   1.450921   2.383751
    14  C    2.447979   2.785232   2.349722   2.454420   1.382189
    15  H    6.945222   6.456641   5.111656   2.687662   4.501241
    16  H    8.534506   8.356671   7.131096   4.645386   5.249860
    17  H    8.309915   8.518723   7.548906   5.337805   4.609617
    18  H    6.380215   6.876206   6.203256   4.579985   2.711114
    19  H    4.043120   4.771475   4.460489   3.832186   1.097100
    20  H    2.111658   3.310760   3.760589   4.609597   2.726362
    21  H    1.070045   2.089904   3.330020   5.343810   4.609663
    22  H    2.106022   1.075542   2.149892   4.645935   5.241604
    23  H    3.375635   2.178826   1.121210   2.677201   4.477936
    24  H    4.662062   4.038587   2.717466   1.022167   3.379683
    25  H    4.652676   4.040124   2.729334   1.017109   3.408555
                   11         12         13         14         15
    11  C    0.000000
    12  C    1.410703   0.000000
    13  C    2.525746   2.865415   0.000000
    14  C    2.872870   2.475020   1.407274   0.000000
    15  H    2.112983   3.370218   4.129767   4.869451   0.000000
    16  H    3.403444   3.865645   5.915266   6.157753   2.506300
    17  H    3.893022   3.421161   6.196219   5.874791   4.271873
    18  H    3.377285   2.134661   4.878715   4.092756   4.874261
    19  H    3.373322   2.117727   3.364966   2.112918   5.449302
    20  H    4.907337   4.110630   3.402146   2.159037   6.975900
    21  H    6.202567   5.876683   3.895226   3.422244   8.013208
    22  H    5.913499   6.150609   3.401343   3.859958   7.243769
    23  H    4.114614   4.847680   2.097149   3.349726   4.976279
    24  H    1.986121   3.046439   1.951223   3.052202   2.671677
    25  H    1.964417   3.071237   2.011045   3.075700   2.675671
                   16         17         18         19         20
    16  H    0.000000
    17  H    2.419694   0.000000
    18  H    4.190086   2.439189   0.000000
    19  H    5.845215   4.748281   2.467762   0.000000
    20  H    7.973950   7.178106   4.935546   2.468582   0.000000
    21  H    9.560568   9.218622   7.170617   4.745556   2.450064
    22  H    9.273787   9.552787   7.949711   5.834426   4.205479
    23  H    7.235844   7.994725   6.931365   5.424407   4.881748
    24  H    4.776624   5.697474   5.110136   4.452847   5.149347
    25  H    4.797888   5.701479   5.136063   4.475184   5.157601
                   21         22         23         24         25
    21  H    0.000000
    22  H    2.413264   0.000000
    23  H    4.257977   2.500500   0.000000
    24  H    5.703441   4.785447   2.663183   0.000000
    25  H    5.709082   4.794344   2.674642   1.719205   0.000000
 Stoichiometry    C14H11(1+)
 Framework group  C1[X(C14H11)]
 Deg. of freedom    69
 Full point group                 C1      NOp   1
 Largest Abelian subgroup         C1      NOp   1
 Largest concise Abelian subgroup C1      NOp   1
                         Standard orientation:                         
 ---------------------------------------------------------------------
 Center     Atomic      Atomic             Coordinates (Angstroms)
 Number     Number       Type             X           Y           Z
 ---------------------------------------------------------------------
      1          6           0       -2.494262   -1.302505    0.021152
      2          6           0       -3.702433   -0.596057   -0.006193
      3          6           0       -3.683269    0.757050   -0.024540
      4          6           0       -2.461735    1.324111   -0.015482
      5          6           0        2.465036    1.329076    0.008294
      6          6           0        3.685316    0.740130    0.043001
      7          6           0        3.700836   -0.606227   -0.002859
      8          6           0        2.490989   -1.292819   -0.019498
      9          6           0       -0.001677   -1.422851    0.015273
     10          6           0        0.001574    1.312281   -0.010772
     11          6           0       -1.262614   -0.717144    0.053357
     12          6           0       -1.236652    0.692373    0.001652
     13          6           0        1.260790   -0.711247   -0.055216
     14          6           0        1.238336    0.695139   -0.010554
     15          1           0       -2.491204   -2.435634    0.008047
     16          1           0       -4.638541   -1.143393   -0.016340
     17          1           0       -4.607357    1.274912    0.059460
     18          1           0       -2.464518    2.438542   -0.002611
     19          1           0        0.003066    2.409308    0.001847
     20          1           0        2.470885    2.467494    0.021392
     21          1           0        4.611074    1.275038    0.000072
     22          1           0        4.635223   -1.137834   -0.036109
     23          1           0        2.484863   -2.413938   -0.032380
     24          1           0       -0.007481   -1.960493   -0.854055
     25          1           0        0.002578   -1.981849    0.864987
 ---------------------------------------------------------------------
 Rotational constants (GHZ):           2.3108582           0.4445361           0.3737085
 Standard basis: 6-311++G(d,p) (5D, 7F)
 There are   399 symmetry adapted cartesian basis functions of A   symmetry.
 There are   385 symmetry adapted basis functions of A   symmetry.
   385 basis functions,   603 primitive gaussians,   399 cartesian basis functions
    47 alpha electrons       47 beta electrons
       nuclear repulsion energy       792.4836354894 Hartrees.
 NAtoms=   25 NActive=   25 NUniq=   25 SFac= 1.00D+00 NAtFMM=   60 NAOKFM=F Big=F
 Integral buffers will be    131072 words long.
 Regular integral format.
 Two-electron integral symmetry is turned on.
 Nuclear repulsion after empirical dispersion term =      792.4826761410 Hartrees.
 One-electron integrals computed using PRISM.
 NBasis=   385 RedAO= T EigKep=  1.18D-06  NBF=   385
 NBsUse=   379 1.00D-06 EigRej=  9.07D-07 NBFU=   379
 ExpMin= 3.60D-02 ExpMax= 4.56D+03 ExpMxC= 6.82D+02 IAcc=3 IRadAn=         5 AccDes= 0.00D+00
 Harris functional with IExCor= 1009 and IRadAn=       5 diagonalized for initial guess.
 HarFok:  IExCor= 1009 AccDes= 0.00D+00 IRadAn=         5 IDoV= 1 UseB2=F ITyADJ=14
 ICtDFT=  3500011 ScaDFX=  1.000000  1.000000  1.000000  1.000000
 FoFCou: FMM=F IPFlag=           0 FMFlag=      100000 FMFlg1=           0
         NFxFlg=           0 DoJE=T BraDBF=F KetDBF=T FulRan=T
         wScrn=  0.000000 ICntrl=       500 IOpCl=  0 I1Cent=   200000004 NGrid=           0
         NMat0=    1 NMatS0=      1 NMatT0=    0 NMatD0=    1 NMtDS0=    0 NMtDT0=    0
 Petite list used in FoFCou.
 Requested convergence on RMS density matrix=1.00D-08 within 128 cycles.
 Requested convergence on MAX density matrix=1.00D-06.
 Requested convergence on             energy=1.00D-06.
 No special actions if energy rises.
 SCF Done:  E(RM062X) =  -539.716339529     A.U. after   14 cycles
            NFock= 14  Conv=0.59D-08     -V/T= 2.0020
 DoSCS=F DFT=T ScalE2(SS,OS)=  1.000000  1.000000
 ExpMin= 3.60D-02 ExpMax= 4.56D+03 ExpMxC= 6.82D+02 IAcc=3 IRadAn=         5 AccDes= 0.00D+00
 HarFok:  IExCor=  205 AccDes= 0.00D+00 IRadAn=         5 IDoV=-2 UseB2=F ITyADJ=14
 ICtDFT= 12500011 ScaDFX=  1.000000  1.000000  1.000000  1.000000
 Range of M.O.s used for correlation:    15   379
 NBasis=   385 NAE=    47 NBE=    47 NFC=    14 NFV=     0
 NROrb=    365 NOA=    33 NOB=    33 NVA=   332 NVB=   332

 **** Warning!!: The largest alpha MO coefficient is  0.15125608D+03

 Orbital symmetries:
       Occupied  (A) (A) (A) (A) (A) (A) (A) (A) (A) (A) (A) (A)
                 (A) (A) (A) (A) (A) (A) (A) (A) (A) (A) (A) (A)
                 (A) (A) (A) (A) (A) (A) (A) (A) (A) (A) (A) (A)
                 (A) (A) (A) (A) (A) (A) (A) (A) (A) (A) (A)
       Virtual   (A) (A) (A) (A) (A) (A) (A) (A) (A) (A) (A) (A)
                 (A) (A) (A) (A) (A) (A) (A) (A) (A) (A) (A) (A)
                 (A) (A) (A) (A) (A) (A) (A) (A) (A) (A) (A) (A)
                 (A) (A) (A) (A) (A) (A) (A) (A) (A) (A) (A) (A)
                 (A) (A) (A) (A) (A) (A) (A) (A) (A) (A) (A) (A)
                 (A) (A) (A) (A) (A) (A) (A) (A) (A) (A) (A) (A)
                 (A) (A) (A) (A) (A) (A) (A) (A) (A) (A) (A) (A)
                 (A) (A) (A) (A) (A) (A) (A) (A) (A) (A) (A) (A)
                 (A) (A) (A) (A) (A) (A) (A) (A) (A) (A) (A) (A)
                 (A) (A) (A) (A) (A) (A) (A) (A) (A) (A) (A) (A)
                 (A) (A) (A) (A) (A) (A) (A) (A) (A) (A) (A) (A)
                 (A) (A) (A) (A) (A) (A) (A) (A) (A) (A) (A) (A)
                 (A) (A) (A) (A) (A) (A) (A) (A) (A) (A) (A) (A)
                 (A) (A) (A) (A) (A) (A) (A) (A) (A) (A) (A) (A)
                 (A) (A) (A) (A) (A) (A) (A) (A) (A) (A) (A) (A)
                 (A) (A) (A) (A) (A) (A) (A) (A) (A) (A) (A) (A)
                 (A) (A) (A) (A) (A) (A) (A) (A) (A) (A) (A) (A)
                 (A) (A) (A) (A) (A) (A) (A) (A) (A) (A) (A) (A)
                 (A) (A) (A) (A) (A) (A) (A) (A) (A) (A) (A) (A)
                 (A) (A) (A) (A) (A) (A) (A) (A) (A) (A) (A) (A)
                 (A) (A) (A) (A) (A) (A) (A) (A) (A) (A) (A) (A)
                 (A) (A) (A) (A) (A) (A) (A) (A) (A) (A) (A) (A)
                 (A) (A) (A) (A) (A) (A) (A) (A) (A) (A) (A) (A)
                 (A) (A) (A) (A) (A) (A) (A) (A) (A) (A) (A) (A)
                 (A) (A) (A) (A) (A) (A) (A) (A) (A) (A) (A) (A)
                 (A) (A) (A) (A) (A) (A) (A) (A) (A) (A) (A) (A)
                 (A) (A) (A) (A) (A) (A) (A) (A) (A) (A) (A) (A)
                 (A) (A) (A) (A) (A) (A) (A) (A)
     4 initial guesses have been made.
 Convergence on wavefunction:    0.001000000000000
 Iteration     1 Dimension     4 NMult     0 NNew      4
 CISAX will form     4 AO SS matrices at one time.
 Iteration     2 Dimension     6 NMult     4 NNew      2
 Iteration     3 Dimension     8 NMult     6 NNew      2
 Iteration     4 Dimension    10 NMult     8 NNew      2
 Iteration     5 Dimension    12 NMult    10 NNew      2
 Iteration     6 Dimension    14 NMult    12 NNew      2
 ***********************************************************************
 Excited states from <AA,BB:AA,BB> singles matrix:
 ***********************************************************************
 
 Ground to excited state transition densities written to RWF  633
 Ground to excited state transition electric dipole moments (Au):
       state          X           Y           Z        Dip. S.      Osc.
         1        -0.0119     -0.5973     -0.0006      0.3569      0.0273
 Ground to excited state transition velocity dipole moments (Au):
       state          X           Y           Z        Dip. S.      Osc.
         1         0.0014      0.0765      0.0001      0.0059      0.0340
 Ground to excited state transition magnetic dipole moments (Au):
       state          X           Y           Z
         1        -0.0091     -0.0195     -0.0016
 Ground to excited state transition velocity quadrupole moments (Au):
       state          XX          YY          ZZ          XY          XZ          YZ
         1         0.3226      0.0481     -0.0074      0.0073      0.0072     -0.0008
 <0|del|b> * <b|rxdel|0> + <0|del|b> * <b|delr+rdel|0>
 Rotatory Strengths (R) in cgs (10**-40 erg-esu-cm/Gauss)
       state          XX          YY          ZZ    R(velocity)    E-M Angle
         1        -6.3025     -0.0461     -2.9316     -3.0934      155.87
 1/2[<0|r|b>*<b|rxdel|0> + (<0|rxdel|b>*<b|r|0>)*]
 Rotatory Strengths (R) in cgs (10**-40 erg-esu-cm/Gauss)
       state          XX          YY          ZZ     R(length)
         1        -0.0761     -8.2519     -0.0007     -2.7763
  1/2[<0|del|b>*<b|r|0> + (<0|r|b>*<b|del|0>)*] (Au)
       state          X           Y           Z        Dip. S.   Osc.(frdel)
         1        -0.0000     -0.0457     -0.0000      0.0457      0.0305

 Excitation energies and oscillator strengths:
 
 Excited State   1:      Singlet-A      3.1272 eV  396.48 nm  f=0.0273  <S**2>=0.000
      47 -> 48         0.70358
 This state for optimization and/or second-order correction.
 Total Energy, E(TD-HF/TD-DFT) =  -539.601418832    
 Copying the excited state density for this state as the 1-particle RhoCI density.
 SavETr:  write IOETrn=   770 NScale= 10 NData=  16 NLR=1 NState=    1 LETran=      28.

 **********************************************************************

            Population analysis using the SCF Density.

 **********************************************************************

 Orbital symmetries:
       Occupied  (A) (A) (A) (A) (A) (A) (A) (A) (A) (A) (A) (A)
                 (A) (A) (A) (A) (A) (A) (A) (A) (A) (A) (A) (A)
                 (A) (A) (A) (A) (A) (A) (A) (A) (A) (A) (A) (A)
                 (A) (A) (A) (A) (A) (A) (A) (A) (A) (A) (A)
       Virtual   (A) (A) (A) (A) (A) (A) (A) (A) (A) (A) (A) (A)
                 (A) (A) (A) (A) (A) (A) (A) (A) (A) (A) (A) (A)
                 (A) (A) (A) (A) (A) (A) (A) (A) (A) (A) (A) (A)
                 (A) (A) (A) (A) (A) (A) (A) (A) (A) (A) (A) (A)
                 (A) (A) (A) (A) (A) (A) (A) (A) (A) (A) (A) (A)
                 (A) (A) (A) (A) (A) (A) (A) (A) (A) (A) (A) (A)
                 (A) (A) (A) (A) (A) (A) (A) (A) (A) (A) (A) (A)
                 (A) (A) (A) (A) (A) (A) (A) (A) (A) (A) (A) (A)
                 (A) (A) (A) (A) (A) (A) (A) (A) (A) (A) (A) (A)
                 (A) (A) (A) (A) (A) (A) (A) (A) (A) (A) (A) (A)
                 (A) (A) (A) (A) (A) (A) (A) (A) (A) (A) (A) (A)
                 (A) (A) (A) (A) (A) (A) (A) (A) (A) (A) (A) (A)
                 (A) (A) (A) (A) (A) (A) (A) (A) (A) (A) (A) (A)
                 (A) (A) (A) (A) (A) (A) (A) (A) (A) (A) (A) (A)
                 (A) (A) (A) (A) (A) (A) (A) (A) (A) (A) (A) (A)
                 (A) (A) (A) (A) (A) (A) (A) (A) (A) (A) (A) (A)
                 (A) (A) (A) (A) (A) (A) (A) (A) (A) (A) (A) (A)
                 (A) (A) (A) (A) (A) (A) (A) (A) (A) (A) (A) (A)
                 (A) (A) (A) (A) (A) (A) (A) (A) (A) (A) (A) (A)
                 (A) (A) (A) (A) (A) (A) (A) (A) (A) (A) (A) (A)
                 (A) (A) (A) (A) (A) (A) (A) (A) (A) (A) (A) (A)
                 (A) (A) (A) (A) (A) (A) (A) (A) (A) (A) (A) (A)
                 (A) (A) (A) (A) (A) (A) (A) (A) (A) (A) (A) (A)
                 (A) (A) (A) (A) (A) (A) (A) (A) (A) (A) (A) (A)
                 (A) (A) (A) (A) (A) (A) (A) (A) (A) (A) (A) (A)
                 (A) (A) (A) (A) (A) (A) (A) (A) (A) (A) (A) (A)
                 (A) (A) (A) (A) (A) (A) (A) (A) (A) (A) (A) (A)
                 (A) (A) (A) (A) (A) (A) (A) (A)
 The electronic state is 1-A.
 Alpha  occ. eigenvalues --  -10.76617 -10.72382 -10.72317 -10.71732 -10.71693
 Alpha  occ. eigenvalues --  -10.71411 -10.71116 -10.71088 -10.70862 -10.69843
 Alpha  occ. eigenvalues --  -10.69604 -10.68980 -10.68915 -10.68869  -1.18064
 Alpha  occ. eigenvalues --   -1.14176  -1.08826  -1.07011  -1.02356  -1.01195
 Alpha  occ. eigenvalues --   -0.96540  -0.92733  -0.86999  -0.85920  -0.83699
 Alpha  occ. eigenvalues --   -0.79418  -0.77354  -0.74241  -0.71978  -0.71432
 Alpha  occ. eigenvalues --   -0.69374  -0.68455  -0.66820  -0.66333  -0.63036
 Alpha  occ. eigenvalues --   -0.62250  -0.61834  -0.61635  -0.60796  -0.59923
 Alpha  occ. eigenvalues --   -0.56945  -0.55289  -0.53259  -0.52615  -0.47859
 Alpha  occ. eigenvalues --   -0.46179  -0.45548
 Alpha virt. eigenvalues --   -0.25851  -0.14383  -0.13404  -0.12007  -0.11177
 Alpha virt. eigenvalues --   -0.09884  -0.09370  -0.08232  -0.08010  -0.07435
 Alpha virt. eigenvalues --   -0.07174  -0.06851  -0.05639  -0.05505  -0.05166
 Alpha virt. eigenvalues --   -0.04052  -0.03990  -0.03135  -0.02961  -0.02026
 Alpha virt. eigenvalues --   -0.01737  -0.00863   0.00342   0.00442   0.00791
 Alpha virt. eigenvalues --    0.01304   0.01390   0.02072   0.02254   0.02404
 Alpha virt. eigenvalues --    0.02652   0.02906   0.03088   0.03207   0.03352
 Alpha virt. eigenvalues --    0.04250   0.04542   0.04592   0.05313   0.05367
 Alpha virt. eigenvalues --    0.06160   0.06348   0.06500   0.06962   0.07542
 Alpha virt. eigenvalues --    0.07689   0.08271   0.08585   0.08911   0.09213
 Alpha virt. eigenvalues --    0.09389   0.09719   0.09977   0.10182   0.11476
 Alpha virt. eigenvalues --    0.11660   0.11917   0.12443   0.12475   0.12808
 Alpha virt. eigenvalues --    0.13547   0.13869   0.14367   0.14803   0.15846
 Alpha virt. eigenvalues --    0.16232   0.16610   0.17935   0.18330   0.18653
 Alpha virt. eigenvalues --    0.18914   0.19307   0.19812   0.20102   0.20331
 Alpha virt. eigenvalues --    0.21215   0.22013   0.23157   0.23227   0.23880
 Alpha virt. eigenvalues --    0.24229   0.25152   0.25394   0.27555   0.28429
 Alpha virt. eigenvalues --    0.29299   0.29570   0.32155   0.32608   0.37834
 Alpha virt. eigenvalues --    0.38320   0.38990   0.39326   0.40471   0.41325
 Alpha virt. eigenvalues --    0.41700   0.42506   0.43448   0.44164   0.44684
 Alpha virt. eigenvalues --    0.45226   0.46039   0.47154   0.47614   0.47670
 Alpha virt. eigenvalues --    0.48782   0.49325   0.49601   0.50499   0.50840
 Alpha virt. eigenvalues --    0.51342   0.51974   0.52288   0.52869   0.53636
 Alpha virt. eigenvalues --    0.54062   0.55769   0.55913   0.56248   0.58380
 Alpha virt. eigenvalues --    0.59773   0.60399   0.61728   0.62399   0.63063
 Alpha virt. eigenvalues --    0.63472   0.63917   0.64667   0.66082   0.67450
 Alpha virt. eigenvalues --    0.68606   0.70537   0.71444   0.72140   0.73389
 Alpha virt. eigenvalues --    0.74627   0.75936   0.76225   0.76532   0.76765
 Alpha virt. eigenvalues --    0.77173   0.78090   0.78398   0.79030   0.80996
 Alpha virt. eigenvalues --    0.81853   0.82183   0.82727   0.83743   0.85110
 Alpha virt. eigenvalues --    0.85427   0.87143   0.87958   0.88415   0.89898
 Alpha virt. eigenvalues --    0.91939   0.93197   0.94752   0.96265   0.97614
 Alpha virt. eigenvalues --    0.97938   0.99887   1.00232   1.03111   1.03339
 Alpha virt. eigenvalues --    1.04528   1.05840   1.06946   1.08012   1.11565
 Alpha virt. eigenvalues --    1.22460   1.23542   1.25208   1.29465   1.30138
 Alpha virt. eigenvalues --    1.31861   1.32784   1.33335   1.35263   1.35527
 Alpha virt. eigenvalues --    1.38227   1.42805   1.43024   1.44067   1.44807
 Alpha virt. eigenvalues --    1.45513   1.47603   1.48226   1.48528   1.48929
 Alpha virt. eigenvalues --    1.49605   1.51316   1.52119   1.55897   1.56925
 Alpha virt. eigenvalues --    1.57010   1.58129   1.58701   1.59689   1.61505
 Alpha virt. eigenvalues --    1.62592   1.62957   1.63136   1.66384   1.67313
 Alpha virt. eigenvalues --    1.67995   1.71002   1.73075   1.73432   1.76896
 Alpha virt. eigenvalues --    1.78236   1.79443   1.80330   1.83106   1.83787
 Alpha virt. eigenvalues --    1.84326   1.85159   1.85471   1.85615   1.85994
 Alpha virt. eigenvalues --    1.86268   1.86915   1.88372   1.89993   1.92997
 Alpha virt. eigenvalues --    1.93488   1.95208   1.96680   1.99034   2.01854
 Alpha virt. eigenvalues --    2.03127   2.05254   2.07757   2.11529   2.12965
 Alpha virt. eigenvalues --    2.15142   2.16936   2.17343   2.24588   2.25933
 Alpha virt. eigenvalues --    2.26000   2.31111   2.31923   2.33189   2.36519
 Alpha virt. eigenvalues --    2.37975   2.39040   2.41247   2.43064   2.44705
 Alpha virt. eigenvalues --    2.48174   2.51703   2.52722   2.56663   2.56902
 Alpha virt. eigenvalues --    2.58851   2.59450   2.59675   2.60562   2.61320
 Alpha virt. eigenvalues --    2.61500   2.62590   2.62651   2.64000   2.64622
 Alpha virt. eigenvalues --    2.65869   2.66619   2.67302   2.67696   2.68582
 Alpha virt. eigenvalues --    2.71605   2.73081   2.75331   2.76924   2.77610
 Alpha virt. eigenvalues --    2.79890   2.81176   2.81941   2.82615   2.85125
 Alpha virt. eigenvalues --    2.89326   2.92877   2.94688   2.96137   3.02073
 Alpha virt. eigenvalues --    3.02942   3.09365   3.10867   3.18309   3.19248
 Alpha virt. eigenvalues --    3.27869   3.29825   3.32219   3.33332   3.34983
 Alpha virt. eigenvalues --    3.36934   3.40532   3.46126   3.48069   3.49812
 Alpha virt. eigenvalues --    3.50162   3.56974   3.58202   3.66786   3.67184
 Alpha virt. eigenvalues --    3.89689   3.91954   3.94187   3.96720   3.98639
 Alpha virt. eigenvalues --    4.01028   4.02794   4.02890   4.11715   4.39243
 Alpha virt. eigenvalues --    4.69712   4.72095   4.73693  23.42006  23.59738
 Alpha virt. eigenvalues --   23.84665  23.87665  23.88580  23.99048  24.02005
 Alpha virt. eigenvalues --   24.06131  24.06597  24.09244  24.09490  24.12764
 Alpha virt. eigenvalues --   24.22872  24.23874
          Condensed to atoms (all electrons):
               1          2          3          4          5          6
     1  C   10.215459   0.387327  -0.948546   2.818798   0.112271  -0.096314
     2  C    0.387327   6.642535   0.565625  -0.636606  -0.078160  -0.012518
     3  C   -0.948546   0.565625   7.090924  -0.172573  -0.163882   0.021457
     4  C    2.818798  -0.636606  -0.172573  10.391181  -0.042821  -0.109364
     5  C    0.112271  -0.078160  -0.163882  -0.042821  12.855183   0.075709
     6  C   -0.096314  -0.012518   0.021457  -0.109364   0.075709   6.957492
     7  C   -0.023428   0.014339  -0.016558  -0.087070  -0.719242   0.469412
     8  C    0.693370  -0.021431  -0.091687   0.142263   2.658738  -0.984889
     9  C   -2.153423  -0.093411   0.433024  -1.881322  -0.546703   0.579813
    10  C   -1.898327   0.002251  -0.502855  -2.232498  -3.433099  -0.407848
    11  C   -0.942556  -0.615303   1.421214  -0.785188  -1.998115  -0.174681
    12  C   -1.649835   0.323918  -1.274787  -0.264279  -1.373596  -0.158207
    13  C   -0.060855  -0.144162  -0.084144  -1.060936  -0.716485   1.191758
    14  C   -0.892462  -0.233726  -0.183365  -0.541628  -1.082770  -1.248250
    15  H    0.324501  -0.041999  -0.017309   0.017310   0.008085   0.001031
    16  H   -0.010988   0.376455  -0.010877   0.023444  -0.002243  -0.000250
    17  H   -0.042314  -0.012439   0.403486  -0.087916  -0.001325   0.000315
    18  H    0.067166  -0.015541  -0.098650   0.458917   0.017855  -0.003086
    19  H   -0.077043  -0.002876   0.063165  -0.073081  -0.124697   0.052794
    20  H    0.008972   0.000311  -0.003430   0.019129   0.459619  -0.093213
    21  H   -0.000828  -0.000080   0.000338  -0.001361  -0.088544   0.406868
    22  H   -0.000076   0.000167  -0.000264  -0.001249   0.023302  -0.013814
    23  H    0.012293  -0.001070   0.001188   0.005485   0.025823  -0.016386
    24  H    0.071353   0.025099  -0.006907  -0.014476  -0.013085  -0.002423
    25  H    0.077678   0.021941   0.003665  -0.002567  -0.021955  -0.001573
               7          8          9         10         11         12
     1  C   -0.023428   0.693370  -2.153423  -1.898327  -0.942556  -1.649835
     2  C    0.014339  -0.021431  -0.093411   0.002251  -0.615303   0.323918
     3  C   -0.016558  -0.091687   0.433024  -0.502855   1.421214  -1.274787
     4  C   -0.087070   0.142263  -1.881322  -2.232498  -0.785188  -0.264279
     5  C   -0.719242   2.658738  -0.546703  -3.433099  -1.998115  -1.373596
     6  C    0.469412  -0.984889   0.579813  -0.407848  -0.174681  -0.158207
     7  C    6.977474   0.454480  -0.433196   0.063871  -0.110627  -0.237276
     8  C    0.454480   9.970795  -1.695455  -1.780290  -0.184122  -0.995957
     9  C   -0.433196  -1.695455  11.183549   0.708615   2.020122  -2.062678
    10  C    0.063871  -1.780290   0.708615  11.325575  -1.161658   2.547634
    11  C   -0.110627  -0.184122   2.020122  -1.161658  13.732351  -0.595942
    12  C   -0.237276  -0.995957  -2.062678   2.547634  -0.595942  13.814307
    13  C   -0.748151  -0.773476   2.218275  -0.990245  -0.248526  -3.290291
    14  C    0.458110  -1.826184  -2.776620   3.161360  -3.579756   0.785928
    15  H   -0.001739   0.010811   0.034032  -0.000253  -0.056451   0.045232
    16  H    0.000248   0.000290  -0.000625  -0.019181   0.018822  -0.029356
    17  H   -0.000163  -0.001021   0.004605   0.027626  -0.011049   0.070414
    18  H    0.000998   0.010009  -0.048798   0.058891  -0.037528  -0.062316
    19  H   -0.004975  -0.075002   0.120858   0.431882   0.087308  -0.015548
    20  H   -0.010687   0.061464  -0.041864   0.047706  -0.019110  -0.020918
    21  H   -0.029320  -0.032104   0.006076   0.021098  -0.000168   0.003961
    22  H    0.391263  -0.022166   0.004296  -0.015824  -0.001055  -0.007537
    23  H   -0.055978   0.336571   0.041081  -0.006022  -0.006445   0.003959
    24  H    0.031353   0.076079   0.373682  -0.015376  -0.035117  -0.069136
    25  H    0.022246   0.084525   0.346205  -0.016884  -0.024399  -0.075436
              13         14         15         16         17         18
     1  C   -0.060855  -0.892462   0.324501  -0.010988  -0.042314   0.067166
     2  C   -0.144162  -0.233726  -0.041999   0.376455  -0.012439  -0.015541
     3  C   -0.084144  -0.183365  -0.017309  -0.010877   0.403486  -0.098650
     4  C   -1.060936  -0.541628   0.017310   0.023444  -0.087916   0.458917
     5  C   -0.716485  -1.082770   0.008085  -0.002243  -0.001325   0.017855
     6  C    1.191758  -1.248250   0.001031  -0.000250   0.000315  -0.003086
     7  C   -0.748151   0.458110  -0.001739   0.000248  -0.000163   0.000998
     8  C   -0.773476  -1.826184   0.010811   0.000290  -0.001021   0.010009
     9  C    2.218275  -2.776620   0.034032  -0.000625   0.004605  -0.048798
    10  C   -0.990245   3.161360  -0.000253  -0.019181   0.027626   0.058891
    11  C   -0.248526  -3.579756  -0.056451   0.018822  -0.011049  -0.037528
    12  C   -3.290291   0.785928   0.045232  -0.029356   0.070414  -0.062316
    13  C   12.865413  -1.469212  -0.008555   0.002536  -0.001794  -0.009635
    14  C   -1.469212  14.773530   0.008888  -0.010410   0.006386  -0.010495
    15  H   -0.008555   0.008888   0.433968  -0.006787   0.000949   0.000489
    16  H    0.002536  -0.010410  -0.006787   0.415799  -0.007118   0.001367
    17  H   -0.001794   0.006386   0.000949  -0.007118   0.431594  -0.008311
    18  H   -0.009635  -0.010495   0.000489   0.001367  -0.008311   0.447665
    19  H    0.048093  -0.063544  -0.000085  -0.000521   0.001690  -0.003773
    20  H   -0.038184  -0.049259  -0.000087  -0.000009  -0.000113   0.000963
    21  H    0.003408   0.065049   0.000010  -0.000003   0.000010  -0.000119
    22  H    0.011070  -0.028322  -0.000074   0.000002  -0.000004   0.000003
    23  H   -0.052932   0.032510   0.000499  -0.000089   0.000010  -0.000120
    24  H   -0.020964  -0.067047   0.001335   0.000720  -0.000271   0.000293
    25  H   -0.010426  -0.071906  -0.000800   0.000347  -0.000043   0.000765
              19         20         21         22         23         24
     1  C   -0.077043   0.008972  -0.000828  -0.000076   0.012293   0.071353
     2  C   -0.002876   0.000311  -0.000080   0.000167  -0.001070   0.025099
     3  C    0.063165  -0.003430   0.000338  -0.000264   0.001188  -0.006907
     4  C   -0.073081   0.019129  -0.001361  -0.001249   0.005485  -0.014476
     5  C   -0.124697   0.459619  -0.088544   0.023302   0.025823  -0.013085
     6  C    0.052794  -0.093213   0.406868  -0.013814  -0.016386  -0.002423
     7  C   -0.004975  -0.010687  -0.029320   0.391263  -0.055978   0.031353
     8  C   -0.075002   0.061464  -0.032104  -0.022166   0.336571   0.076079
     9  C    0.120858  -0.041864   0.006076   0.004296   0.041081   0.373682
    10  C    0.431882   0.047706   0.021098  -0.015824  -0.006022  -0.015376
    11  C    0.087308  -0.019110  -0.000168  -0.001055  -0.006445  -0.035117
    12  C   -0.015548  -0.020918   0.003961  -0.007537   0.003959  -0.069136
    13  C    0.048093  -0.038184   0.003408   0.011070  -0.052932  -0.020964
    14  C   -0.063544  -0.049259   0.065049  -0.028322   0.032510  -0.067047
    15  H   -0.000085  -0.000087   0.000010  -0.000074   0.000499   0.001335
    16  H   -0.000521  -0.000009  -0.000003   0.000002  -0.000089   0.000720
    17  H    0.001690  -0.000113   0.000010  -0.000004   0.000010  -0.000271
    18  H   -0.003773   0.000963  -0.000119   0.000003  -0.000120   0.000293
    19  H    0.459583  -0.004191   0.001792  -0.000630   0.000026  -0.000085
    20  H   -0.004191   0.444703  -0.008886   0.001709   0.000467   0.000881
    21  H    0.001792  -0.008886   0.432446  -0.007678   0.001063  -0.000259
    22  H   -0.000630   0.001709  -0.007678   0.418178  -0.007977   0.000681
    23  H    0.000026   0.000467   0.001063  -0.007977   0.440747  -0.000631
    24  H   -0.000085   0.000881  -0.000259   0.000681  -0.000631   0.479286
    25  H    0.000234  -0.000104  -0.000028   0.000277   0.001625  -0.041375
              25
     1  C    0.077678
     2  C    0.021941
     3  C    0.003665
     4  C   -0.002567
     5  C   -0.021955
     6  C   -0.001573
     7  C    0.022246
     8  C    0.084525
     9  C    0.346205
    10  C   -0.016884
    11  C   -0.024399
    12  C   -0.075436
    13  C   -0.010426
    14  C   -0.071906
    15  H   -0.000800
    16  H    0.000347
    17  H   -0.000043
    18  H    0.000765
    19  H    0.000234
    20  H   -0.000104
    21  H   -0.000028
    22  H    0.000277
    23  H    0.001625
    24  H   -0.041375
    25  H    0.483309
 Mulliken charges:
               1
     1  C    0.007808
     2  C   -0.450644
     3  C   -0.428251
     4  C    0.118409
     5  C    0.170136
     6  C   -0.433834
     7  C   -0.405384
     8  C   -0.015609
     9  C   -0.340136
    10  C    0.083851
    11  C   -0.692023
    12  C    0.587741
    13  C   -0.611580
    14  C    0.843195
    15  H    0.246998
    16  H    0.258428
    17  H    0.226795
    18  H    0.232992
    19  H    0.178626
    20  H    0.244131
    21  H    0.227260
    22  H    0.255720
    23  H    0.244304
    24  H    0.226389
    25  H    0.224679
 Sum of Mulliken charges =   1.00000
 Mulliken charges with hydrogens summed into heavy atoms:
               1
     1  C    0.254805
     2  C   -0.192217
     3  C   -0.201456
     4  C    0.351401
     5  C    0.414267
     6  C   -0.206574
     7  C   -0.149664
     8  C    0.228695
     9  C    0.110932
    10  C    0.262478
    11  C   -0.692023
    12  C    0.587741
    13  C   -0.611580
    14  C    0.843195
 Electronic spatial extent (au):  <R**2>=           2818.7069
 Charge=              1.0000 electrons
 Dipole moment (field-independent basis, Debye):
    X=             -0.0140    Y=              0.3261    Z=             -0.0024  Tot=              0.3264
 Quadrupole moment (field-independent basis, Debye-Ang):
   XX=            -28.0134   YY=            -59.9183   ZZ=            -82.8957
   XY=              0.0810   XZ=             -0.4729   YZ=              0.1824
 Traceless Quadrupole moment (field-independent basis, Debye-Ang):
   XX=             28.9291   YY=             -2.9758   ZZ=            -25.9532
   XY=              0.0810   XZ=             -0.4729   YZ=              0.1824
 Octapole moment (field-independent basis, Debye-Ang**2):
  XXX=             -0.1256  YYY=              5.4479  ZZZ=              0.0498  XYY=             -0.0235
  XXY=              0.5040  XXZ=              0.0968  XZZ=              0.0006  YZZ=             -3.0133
  YYZ=              0.1481  XYZ=             -0.4009
 Hexadecapole moment (field-independent basis, Debye-Ang**3):
 XXXX=          -2043.8735 YYYY=           -595.5569 ZZZZ=            -96.1876 XXXY=             -0.5874
 XXXZ=            -11.6102 YYYX=              1.4784 YYYZ=              0.8911 ZZZX=             -0.4589
 ZZZY=              0.0408 XXYY=           -511.2246 XXZZ=           -581.8285 YYZZ=           -137.5058
 XXYZ=              3.6106 YYXZ=             -1.0858 ZZXY=             -0.4931
 N-N= 7.924826761410D+02 E-N=-2.821993502690D+03  KE= 5.386614520513D+02
 Unable to Open any file for archive entry.
 1\1\GINC-GADI-CPU-CLX-2722\SP\RM062X TD-FC\6-311++G(d,p)\C14H11(1+)\TS
 1578\26-Jul-2022\0\\#n M062X/6-311++G(d,p) TD(NStates=1) EmpiricalDisp
 ersion=GD3 SP\\SP_1\\1,1\C,0,2.4927,1.3131,0.017\C,0,3.7015,0.6087,-0.
 029\C,0,3.6839,-0.7441,-0.064\C,0,2.4632,-1.3129,-0.052\C,0,-2.4632,-1
 .3249,0.012\C,0,-3.6839,-0.7381,0.064\C,0,-3.7015,0.6087,0.035\C,0,-2.
 4927,1.2971,0.017\C,0,0.,1.4301,0.033\C,0,0.,-1.3045,-0.027\C,0,1.2621
 ,0.7257,0.052\C,0,1.2375,-0.6831,-0.017\C,0,-1.2621,0.7177,-0.036\C,0,
 -1.2375,-0.6891,-0.009\H,0,2.4881,2.4463,0.018\H,0,4.6368,1.1574,-0.04
 \H,0,4.6093,-1.2617,0.006\H,0,2.4675,-2.4274,-0.053\H,0,0.,-2.4016,-0.
 028\H,0,-2.4675,-2.4634,0.011\H,0,-4.6093,-1.2737,0.022\H,0,-4.6368,1.
 1394,0.016\H,0,-2.4881,2.4183,0.018\H,0,-0.002,1.9785,-0.8296\H,0,0.00
 2,1.9785,0.8896\\Version=ES64L-G16RevC.01\State=1-A\HF=-539.7163395\RM
 SD=5.869e-09\PG=C01 [X(C14H11)]\\@
 The archive entry for this job was punched.


 MICHAEL FARADAY, ASKED BY A POLITICIAN WHAT GOOD
 HIS ELECTRICAL DISCOVERIES WERE, REPLIED 
 "AT PRESENT I DO NOT KNOW, BUT ONE DAY YOU WILL BE
 ABLE TO TAX THEM."
 Job cpu time:       0 days  0 hours 56 minutes 46.0 seconds.
 Elapsed time:       0 days  0 hours  4 minutes  4.0 seconds.
 File lengths (MBytes):  RWF=    460 Int=      0 D2E=      0 Chk=     15 Scr=      1
 Normal termination of Gaussian 16 at Tue Jul 26 14:52:04 2022.
