 Entering Gaussian System, Link 0=g16
 Initial command:
 /apps/gaussian/g16c01/g16/l1.exe "/jobfs/52693649.gadi-pbs/Gau-1285109.inp" -scrdir="/jobfs/52693649.gadi-pbs/"
 Entering Link 1 = /apps/gaussian/g16c01/g16/l1.exe PID=   1285110.
  
 Copyright (c) 1988-2019, Gaussian, Inc.  All Rights Reserved.
  
 This is part of the Gaussian(R) 16 program.  It is based on
 the Gaussian(R) 09 system (copyright 2009, Gaussian, Inc.),
 the Gaussian(R) 03 system (copyright 2003, Gaussian, Inc.),
 the Gaussian(R) 98 system (copyright 1998, Gaussian, Inc.),
 the Gaussian(R) 94 system (copyright 1995, Gaussian, Inc.),
 the Gaussian 92(TM) system (copyright 1992, Gaussian, Inc.),
 the Gaussian 90(TM) system (copyright 1990, Gaussian, Inc.),
 the Gaussian 88(TM) system (copyright 1988, Gaussian, Inc.),
 the Gaussian 86(TM) system (copyright 1986, Carnegie Mellon
 University), and the Gaussian 82(TM) system (copyright 1983,
 Carnegie Mellon University). Gaussian is a federally registered
 trademark of Gaussian, Inc.
  
 This software contains proprietary and confidential information,
 including trade secrets, belonging to Gaussian, Inc.
  
 This software is provided under written license and may be
 used, copied, transmitted, or stored only in accord with that
 written license.
  
 The following legend is applicable only to US Government
 contracts under FAR:
  
                    RESTRICTED RIGHTS LEGEND
  
 Use, reproduction and disclosure by the US Government is
 subject to restrictions as set forth in subparagraphs (a)
 and (c) of the Commercial Computer Software - Restricted
 Rights clause in FAR 52.227-19.
  
 Gaussian, Inc.
 340 Quinnipiac St., Bldg. 40, Wallingford CT 06492
  
  
 ---------------------------------------------------------------
 Warning -- This program may not be used in any manner that
 competes with the business of Gaussian, Inc. or will provide
 assistance to any competitor of Gaussian, Inc.  The licensee
 of this program is prohibited from giving any competitor of
 Gaussian, Inc. access to this program.  By using this program,
 the user acknowledges that Gaussian, Inc. is engaged in the
 business of creating and licensing software in the field of
 computational chemistry and represents and warrants to the
 licensee that it is not a competitor of Gaussian, Inc. and that
 it will not use this program in any manner prohibited above.
 ---------------------------------------------------------------
  

 Cite this work as:
 Gaussian 16, Revision C.01,
 M. J. Frisch, G. W. Trucks, H. B. Schlegel, G. E. Scuseria, 
 M. A. Robb, J. R. Cheeseman, G. Scalmani, V. Barone, 
 G. A. Petersson, H. Nakatsuji, X. Li, M. Caricato, A. V. Marenich, 
 J. Bloino, B. G. Janesko, R. Gomperts, B. Mennucci, H. P. Hratchian, 
 J. V. Ortiz, A. F. Izmaylov, J. L. Sonnenberg, D. Williams-Young, 
 F. Ding, F. Lipparini, F. Egidi, J. Goings, B. Peng, A. Petrone, 
 T. Henderson, D. Ranasinghe, V. G. Zakrzewski, J. Gao, N. Rega, 
 G. Zheng, W. Liang, M. Hada, M. Ehara, K. Toyota, R. Fukuda, 
 J. Hasegawa, M. Ishida, T. Nakajima, Y. Honda, O. Kitao, H. Nakai, 
 T. Vreven, K. Throssell, J. A. Montgomery, Jr., J. E. Peralta, 
 F. Ogliaro, M. J. Bearpark, J. J. Heyd, E. N. Brothers, K. N. Kudin, 
 V. N. Staroverov, T. A. Keith, R. Kobayashi, J. Normand, 
 K. Raghavachari, A. P. Rendell, J. C. Burant, S. S. Iyengar, 
 J. Tomasi, M. Cossi, J. M. Millam, M. Klene, C. Adamo, R. Cammi, 
 J. W. Ochterski, R. L. Martin, K. Morokuma, O. Farkas, 
 J. B. Foresman, and D. J. Fox, Gaussian, Inc., Wallingford CT, 2019.
 
 ******************************************
 Gaussian 16:  ES64L-G16RevC.01  3-Jul-2019
                26-Jul-2022 
 ******************************************
 %NProcShared=16
 Will use up to   16 processors via shared memory.
 %mem = 64GB
 ---------------------------------------------------------------
 #n M062X/6-311++G(d,p) TD(NStates=1) EmpiricalDispersion=GD3 SP
 ---------------------------------------------------------------
 1/38=1,172=1/1;
 2/12=2,17=6,18=5,40=1/2;
 3/5=4,6=6,7=1111,11=9,25=1,30=1,74=-55,124=31/1,2,3,8;
 4//1;
 5/5=2,38=5/2;
 8/6=1,10=2,108=1/1;
 9/41=1,42=1,70=2/14;
 6/7=2,8=2,9=2,10=2/1;
 99/5=1,9=1/99;
 ----
 SP_1
 ----
 Symbolic Z-matrix:
 Charge =  1 Multiplicity = 1
 C                     2.4927    1.3611    0.017 
 C                     3.7015    0.6627   -0.005 
 C                     3.6839   -0.7171   -0.016 
 C                     2.4632   -1.3729   -0.028 
 C                    -2.4632   -1.3849   -0.012 
 C                    -3.6839   -0.7111    0.016 
 C                    -3.7015    0.6627    0.011 
 C                    -2.4927    1.3451    0.017 
 C                     0.        1.4541    0.033 
 C                     0.       -1.3915   -0.027 
 C                     1.2621    0.6987    0.019 
 C                     1.2375   -0.7101   -0.014 
 C                    -1.2621    0.6907   -0.003 
 C                    -1.2375   -0.7161   -0.012 
 H                     2.4881    2.4613    0.018 
 H                     4.6368    1.2114   -0.019 
 H                     4.6093   -1.2587    0.012 
 H                     2.4675   -2.4544   -0.029 
 H                     0.       -2.4766   -0.028 
 H                    -2.4675   -2.4904   -0.013 
 H                    -4.6093   -1.2707    0.016 
 H                    -4.6368    1.1934   -0.005 
 H                    -2.4881    2.4333    0.018 
 H                    -0.002     2.1105   -0.8296 
 H                     0.002     2.1105    0.8896 
 
                          Input orientation:                          
 ---------------------------------------------------------------------
 Center     Atomic      Atomic             Coordinates (Angstroms)
 Number     Number       Type             X           Y           Z
 ---------------------------------------------------------------------
      1          6           0        2.492700    1.361100    0.017000
      2          6           0        3.701500    0.662700   -0.005000
      3          6           0        3.683900   -0.717100   -0.016000
      4          6           0        2.463200   -1.372900   -0.028000
      5          6           0       -2.463200   -1.384900   -0.012000
      6          6           0       -3.683900   -0.711100    0.016000
      7          6           0       -3.701500    0.662700    0.011000
      8          6           0       -2.492700    1.345100    0.017000
      9          6           0        0.000000    1.454100    0.033000
     10          6           0        0.000000   -1.391500   -0.027000
     11          6           0        1.262100    0.698700    0.019000
     12          6           0        1.237500   -0.710100   -0.014000
     13          6           0       -1.262100    0.690700   -0.003000
     14          6           0       -1.237500   -0.716100   -0.012000
     15          1           0        2.488100    2.461300    0.018000
     16          1           0        4.636800    1.211400   -0.019000
     17          1           0        4.609300   -1.258700    0.012000
     18          1           0        2.467500   -2.454400   -0.029000
     19          1           0        0.000000   -2.476600   -0.028000
     20          1           0       -2.467500   -2.490400   -0.013000
     21          1           0       -4.609300   -1.270700    0.016000
     22          1           0       -4.636800    1.193400   -0.005000
     23          1           0       -2.488100    2.433300    0.018000
     24          1           0       -0.002000    2.110500   -0.829600
     25          1           0        0.002000    2.110500    0.889600
 ---------------------------------------------------------------------
                    Distance matrix (angstroms):
                    1          2          3          4          5
     1  C    0.000000
     2  C    1.396225   0.000000
     3  C    2.395613   1.379956   0.000000
     4  C    2.734529   2.382768   1.385758   0.000000
     5  C    5.665889   6.495863   6.183269   4.926441   0.000000
     6  C    6.514937   7.512117   7.367872   6.182779   1.394596
     7  C    6.233451   7.403017   7.513236   6.492204   2.393028
     8  C    4.985426   6.231715   6.511847   5.652477   2.730313
     9  C    2.494486   3.785348   4.276404   3.750067   3.758896
    10  C    3.713798   4.233358   3.745138   2.463270   2.463255
    11  C    1.397553   2.439784   2.805500   2.395073   4.268514
    12  C    2.422056   2.820631   2.446411   1.393499   3.761720
    13  C    3.814231   4.963679   5.142469   4.258747   2.398090
    14  C    4.269660   5.127851   4.921402   3.758567   1.396293
    15  H    1.100210   2.169754   3.396074   3.834557   6.269731
    16  H    2.149621   1.084460   2.151079   3.376866   7.559816
    17  H    3.367992   2.125128   1.072604   2.149509   7.073667
    18  H    3.815860   3.352558   2.120851   1.081509   5.045386
    19  H    4.576409   4.853538   4.082536   2.699168   2.694331
    20  H    6.280011   6.928107   6.401900   5.055772   1.105509
    21  H    7.573954   8.532753   8.311718   7.073375   2.149319
    22  H    7.131506   8.355171   8.537223   7.549598   3.372272
    23  H    5.094898   6.437911   6.929629   6.245370   3.818399
    24  H    2.738952   4.061035   4.716262   4.342102   4.352447
    25  H    2.743468   4.072190   4.729886   4.362748   4.371260
                    6          7          8          9         10
     6  C    0.000000
     7  C    1.373922   0.000000
     8  C    2.376324   1.388129   0.000000
     9  C    4.273114   3.785221   2.495133   0.000000
    10  C    3.746453   4.233472   3.701955   2.846232   0.000000
    11  C    5.143001   4.963737   3.810034   1.470959   2.442120
    12  C    4.921492   5.126297   4.259014   2.493467   1.412757
    13  C    2.798307   2.439601   1.393921   1.475457   2.434960
    14  C    2.446565   2.823635   2.413486   2.498639   1.409892
    15  H    6.939576   6.445631   5.104339   2.684272   4.586582
    16  H    8.539981   8.356388   7.130844   4.643439   5.317430
    17  H    8.311260   8.530016   7.564272   5.348399   4.611378
    18  H    6.393813   6.911908   6.248352   4.622637   2.686693
    19  H    4.085345   4.853641   4.563000   3.931173   1.085100
    20  H    2.155546   3.386055   3.835700   4.652929   2.701173
    21  H    1.081442   2.135922   3.364878   5.354481   4.611083
    22  H    2.129690   1.075493   2.149572   4.644278   5.308682
    23  H    3.364104   2.146489   1.088210   2.673892   4.563087
    24  H    4.715173   4.060669   2.739736   1.083948   3.592795
    25  H    4.723395   4.072343   2.751508   1.079180   3.619967
                   11         12         13         14         15
    11  C    0.000000
    12  C    1.409401   0.000000
    13  C    2.524309   2.865373   0.000000
    14  C    2.872389   2.475008   1.407044   0.000000
    15  H    2.147053   3.409223   4.147224   4.896618   0.000000
    16  H    3.413635   3.904795   5.921858   6.182451   2.486067
    17  H    3.877526   3.416237   6.186576   5.871972   4.282280
    18  H    3.375994   2.134410   4.878755   4.092554   4.915968
    19  H    3.417256   2.156878   3.409591   2.151981   5.529522
    20  H    4.907270   4.110535   3.401836   2.158945   7.005588
    21  H    6.192890   5.873691   3.879587   3.417221   8.018785
    22  H    5.919656   6.175014   3.411937   3.898908   7.236871
    23  H    4.131929   4.874637   2.130768   3.388749   4.976279
    24  H    2.076355   3.187059   2.070495   3.191332   2.653693
    25  H    2.083021   3.209165   2.100123   3.215418   2.657713
                   16         17         18         19         20
    16  H    0.000000
    17  H    2.470448   0.000000
    18  H    4.259584   2.453301   0.000000
    19  H    5.924638   4.767654   2.467600   0.000000
    20  H    8.010895   7.183231   4.935157   2.467584   0.000000
    21  H    9.573527   9.218609   7.175254   4.764638   2.464917
    22  H    9.273628   9.565743   7.986119   5.913488   4.275080
    23  H    7.229012   8.000249   6.960588   5.504532   4.923841
    24  H    4.794155   5.772685   5.251448   4.656614   5.283352
    25  H    4.807838   5.774851   5.268855   4.677978   5.299188
                   21         22         23         24         25
    21  H    0.000000
    22  H    2.464343   0.000000
    23  H    4.268385   2.480885   0.000000
    24  H    5.777090   4.796083   2.646378   0.000000
    25  H    5.784443   4.812468   2.657910   1.719205   0.000000
 Stoichiometry    C14H11(1+)
 Framework group  C1[X(C14H11)]
 Deg. of freedom    69
 Full point group                 C1      NOp   1
 Largest Abelian subgroup         C1      NOp   1
 Largest concise Abelian subgroup C1      NOp   1
                         Standard orientation:                         
 ---------------------------------------------------------------------
 Center     Atomic      Atomic             Coordinates (Angstroms)
 Number     Number       Type             X           Y           Z
 ---------------------------------------------------------------------
      1          6           0       -2.494565   -1.349352    0.005700
      2          6           0       -3.702421   -0.649063   -0.005371
      3          6           0       -3.682899    0.730743    0.000277
      4          6           0       -2.461302    1.384949   -0.006300
      5          6           0        2.465132    1.389931   -0.000275
      6          6           0        3.684936    0.714151    0.017068
      7          6           0        3.700588   -0.659511   -0.004579
      8          6           0        2.490842   -1.340259   -0.004347
      9          6           0       -0.001971   -1.445991    0.015454
     10          6           0        0.001919    1.400124   -0.010135
     11          6           0       -1.263031   -0.688730    0.013181
     12          6           0       -1.236512    0.720331   -0.002833
     13          6           0        1.261128   -0.683961   -0.013905
     14          6           0        1.238493    0.722878   -0.005844
     15          1           0       -2.491514   -2.449489   -0.006612
     16          1           0       -4.638521   -1.196257   -0.024083
     17          1           0       -4.607475    1.273247    0.036725
     18          1           0       -2.464079    2.466387    0.005786
     19          1           0        0.003447    2.485155    0.001986
     20          1           0        2.470989    2.495355    0.012083
     21          1           0        4.611122    1.272428    0.021933
     22          1           0        4.635105   -1.191274   -0.028915
     23          1           0        2.484710   -2.428384   -0.016495
     24          1           0       -0.002654   -2.091913   -0.855022
     25          1           0       -0.003152   -2.112700    0.864057
 ---------------------------------------------------------------------
 Rotational constants (GHZ):           2.1784738           0.4446088           0.3700632
 Standard basis: 6-311++G(d,p) (5D, 7F)
 There are   399 symmetry adapted cartesian basis functions of A   symmetry.
 There are   385 symmetry adapted basis functions of A   symmetry.
   385 basis functions,   603 primitive gaussians,   399 cartesian basis functions
    47 alpha electrons       47 beta electrons
       nuclear repulsion energy       784.0004159611 Hartrees.
 NAtoms=   25 NActive=   25 NUniq=   25 SFac= 1.00D+00 NAtFMM=   60 NAOKFM=F Big=F
 Integral buffers will be    131072 words long.
 Regular integral format.
 Two-electron integral symmetry is turned on.
 Nuclear repulsion after empirical dispersion term =      783.9994410688 Hartrees.
 One-electron integrals computed using PRISM.
 NBasis=   385 RedAO= T EigKep=  1.13D-06  NBF=   385
 NBsUse=   379 1.00D-06 EigRej=  7.81D-07 NBFU=   379
 ExpMin= 3.60D-02 ExpMax= 4.56D+03 ExpMxC= 6.82D+02 IAcc=3 IRadAn=         5 AccDes= 0.00D+00
 Harris functional with IExCor= 1009 and IRadAn=       5 diagonalized for initial guess.
 HarFok:  IExCor= 1009 AccDes= 0.00D+00 IRadAn=         5 IDoV= 1 UseB2=F ITyADJ=14
 ICtDFT=  3500011 ScaDFX=  1.000000  1.000000  1.000000  1.000000
 FoFCou: FMM=F IPFlag=           0 FMFlag=      100000 FMFlg1=           0
         NFxFlg=           0 DoJE=T BraDBF=F KetDBF=T FulRan=T
         wScrn=  0.000000 ICntrl=       500 IOpCl=  0 I1Cent=   200000004 NGrid=           0
         NMat0=    1 NMatS0=      1 NMatT0=    0 NMatD0=    1 NMtDS0=    0 NMtDT0=    0
 Petite list used in FoFCou.
 Requested convergence on RMS density matrix=1.00D-08 within 128 cycles.
 Requested convergence on MAX density matrix=1.00D-06.
 Requested convergence on             energy=1.00D-06.
 No special actions if energy rises.
 SCF Done:  E(RM062X) =  -539.758739963     A.U. after   15 cycles
            NFock= 15  Conv=0.37D-08     -V/T= 2.0037
 DoSCS=F DFT=T ScalE2(SS,OS)=  1.000000  1.000000
 ExpMin= 3.60D-02 ExpMax= 4.56D+03 ExpMxC= 6.82D+02 IAcc=3 IRadAn=         5 AccDes= 0.00D+00
 HarFok:  IExCor=  205 AccDes= 0.00D+00 IRadAn=         5 IDoV=-2 UseB2=F ITyADJ=14
 ICtDFT= 12500011 ScaDFX=  1.000000  1.000000  1.000000  1.000000
 Range of M.O.s used for correlation:    15   379
 NBasis=   385 NAE=    47 NBE=    47 NFC=    14 NFV=     0
 NROrb=    365 NOA=    33 NOB=    33 NVA=   332 NVB=   332

 **** Warning!!: The largest alpha MO coefficient is  0.14000959D+03

 Orbital symmetries:
       Occupied  (A) (A) (A) (A) (A) (A) (A) (A) (A) (A) (A) (A)
                 (A) (A) (A) (A) (A) (A) (A) (A) (A) (A) (A) (A)
                 (A) (A) (A) (A) (A) (A) (A) (A) (A) (A) (A) (A)
                 (A) (A) (A) (A) (A) (A) (A) (A) (A) (A) (A)
       Virtual   (A) (A) (A) (A) (A) (A) (A) (A) (A) (A) (A) (A)
                 (A) (A) (A) (A) (A) (A) (A) (A) (A) (A) (A) (A)
                 (A) (A) (A) (A) (A) (A) (A) (A) (A) (A) (A) (A)
                 (A) (A) (A) (A) (A) (A) (A) (A) (A) (A) (A) (A)
                 (A) (A) (A) (A) (A) (A) (A) (A) (A) (A) (A) (A)
                 (A) (A) (A) (A) (A) (A) (A) (A) (A) (A) (A) (A)
                 (A) (A) (A) (A) (A) (A) (A) (A) (A) (A) (A) (A)
                 (A) (A) (A) (A) (A) (A) (A) (A) (A) (A) (A) (A)
                 (A) (A) (A) (A) (A) (A) (A) (A) (A) (A) (A) (A)
                 (A) (A) (A) (A) (A) (A) (A) (A) (A) (A) (A) (A)
                 (A) (A) (A) (A) (A) (A) (A) (A) (A) (A) (A) (A)
                 (A) (A) (A) (A) (A) (A) (A) (A) (A) (A) (A) (A)
                 (A) (A) (A) (A) (A) (A) (A) (A) (A) (A) (A) (A)
                 (A) (A) (A) (A) (A) (A) (A) (A) (A) (A) (A) (A)
                 (A) (A) (A) (A) (A) (A) (A) (A) (A) (A) (A) (A)
                 (A) (A) (A) (A) (A) (A) (A) (A) (A) (A) (A) (A)
                 (A) (A) (A) (A) (A) (A) (A) (A) (A) (A) (A) (A)
                 (A) (A) (A) (A) (A) (A) (A) (A) (A) (A) (A) (A)
                 (A) (A) (A) (A) (A) (A) (A) (A) (A) (A) (A) (A)
                 (A) (A) (A) (A) (A) (A) (A) (A) (A) (A) (A) (A)
                 (A) (A) (A) (A) (A) (A) (A) (A) (A) (A) (A) (A)
                 (A) (A) (A) (A) (A) (A) (A) (A) (A) (A) (A) (A)
                 (A) (A) (A) (A) (A) (A) (A) (A) (A) (A) (A) (A)
                 (A) (A) (A) (A) (A) (A) (A) (A) (A) (A) (A) (A)
                 (A) (A) (A) (A) (A) (A) (A) (A) (A) (A) (A) (A)
                 (A) (A) (A) (A) (A) (A) (A) (A) (A) (A) (A) (A)
                 (A) (A) (A) (A) (A) (A) (A) (A) (A) (A) (A) (A)
                 (A) (A) (A) (A) (A) (A) (A) (A)
     4 initial guesses have been made.
 Convergence on wavefunction:    0.001000000000000
 Iteration     1 Dimension     4 NMult     0 NNew      4
 CISAX will form     4 AO SS matrices at one time.
 Iteration     2 Dimension     6 NMult     4 NNew      2
 Iteration     3 Dimension     8 NMult     6 NNew      2
 Iteration     4 Dimension    10 NMult     8 NNew      2
 Iteration     5 Dimension    12 NMult    10 NNew      2
 Iteration     6 Dimension    14 NMult    12 NNew      2
 ***********************************************************************
 Excited states from <AA,BB:AA,BB> singles matrix:
 ***********************************************************************
 
 Ground to excited state transition densities written to RWF  633
 Ground to excited state transition electric dipole moments (Au):
       state          X           Y           Z        Dip. S.      Osc.
         1        -0.0101     -0.6334     -0.0000      0.4013      0.0286
 Ground to excited state transition velocity dipole moments (Au):
       state          X           Y           Z        Dip. S.      Osc.
         1         0.0013      0.0755     -0.0000      0.0057      0.0356
 Ground to excited state transition magnetic dipole moments (Au):
       state          X           Y           Z
         1        -0.0054     -0.0035      0.0040
 Ground to excited state transition velocity quadrupole moments (Au):
       state          XX          YY          ZZ          XY          XZ          YZ
         1         0.3028      0.0396     -0.0091      0.0085      0.0018     -0.0004
 <0|del|b> * <b|rxdel|0> + <0|del|b> * <b|delr+rdel|0>
 Rotatory Strengths (R) in cgs (10**-40 erg-esu-cm/Gauss)
       state          XX          YY          ZZ    R(velocity)    E-M Angle
         1        -1.3276     -0.0245     -0.4604     -0.6042      118.29
 1/2[<0|r|b>*<b|rxdel|0> + (<0|rxdel|b>*<b|r|0>)*]
 Rotatory Strengths (R) in cgs (10**-40 erg-esu-cm/Gauss)
       state          XX          YY          ZZ     R(length)
         1        -0.0388     -1.5819      0.0001     -0.5402
  1/2[<0|del|b>*<b|r|0> + (<0|r|b>*<b|del|0>)*] (Au)
       state          X           Y           Z        Dip. S.   Osc.(frdel)
         1        -0.0000     -0.0478      0.0000      0.0479      0.0319

 Excitation energies and oscillator strengths:
 
 Excited State   1:      Singlet-A      2.9048 eV  426.82 nm  f=0.0286  <S**2>=0.000
      47 -> 48         0.70410
 This state for optimization and/or second-order correction.
 Total Energy, E(TD-HF/TD-DFT) =  -539.651990090    
 Copying the excited state density for this state as the 1-particle RhoCI density.
 SavETr:  write IOETrn=   770 NScale= 10 NData=  16 NLR=1 NState=    1 LETran=      28.

 **********************************************************************

            Population analysis using the SCF Density.

 **********************************************************************

 Orbital symmetries:
       Occupied  (A) (A) (A) (A) (A) (A) (A) (A) (A) (A) (A) (A)
                 (A) (A) (A) (A) (A) (A) (A) (A) (A) (A) (A) (A)
                 (A) (A) (A) (A) (A) (A) (A) (A) (A) (A) (A) (A)
                 (A) (A) (A) (A) (A) (A) (A) (A) (A) (A) (A)
       Virtual   (A) (A) (A) (A) (A) (A) (A) (A) (A) (A) (A) (A)
                 (A) (A) (A) (A) (A) (A) (A) (A) (A) (A) (A) (A)
                 (A) (A) (A) (A) (A) (A) (A) (A) (A) (A) (A) (A)
                 (A) (A) (A) (A) (A) (A) (A) (A) (A) (A) (A) (A)
                 (A) (A) (A) (A) (A) (A) (A) (A) (A) (A) (A) (A)
                 (A) (A) (A) (A) (A) (A) (A) (A) (A) (A) (A) (A)
                 (A) (A) (A) (A) (A) (A) (A) (A) (A) (A) (A) (A)
                 (A) (A) (A) (A) (A) (A) (A) (A) (A) (A) (A) (A)
                 (A) (A) (A) (A) (A) (A) (A) (A) (A) (A) (A) (A)
                 (A) (A) (A) (A) (A) (A) (A) (A) (A) (A) (A) (A)
                 (A) (A) (A) (A) (A) (A) (A) (A) (A) (A) (A) (A)
                 (A) (A) (A) (A) (A) (A) (A) (A) (A) (A) (A) (A)
                 (A) (A) (A) (A) (A) (A) (A) (A) (A) (A) (A) (A)
                 (A) (A) (A) (A) (A) (A) (A) (A) (A) (A) (A) (A)
                 (A) (A) (A) (A) (A) (A) (A) (A) (A) (A) (A) (A)
                 (A) (A) (A) (A) (A) (A) (A) (A) (A) (A) (A) (A)
                 (A) (A) (A) (A) (A) (A) (A) (A) (A) (A) (A) (A)
                 (A) (A) (A) (A) (A) (A) (A) (A) (A) (A) (A) (A)
                 (A) (A) (A) (A) (A) (A) (A) (A) (A) (A) (A) (A)
                 (A) (A) (A) (A) (A) (A) (A) (A) (A) (A) (A) (A)
                 (A) (A) (A) (A) (A) (A) (A) (A) (A) (A) (A) (A)
                 (A) (A) (A) (A) (A) (A) (A) (A) (A) (A) (A) (A)
                 (A) (A) (A) (A) (A) (A) (A) (A) (A) (A) (A) (A)
                 (A) (A) (A) (A) (A) (A) (A) (A) (A) (A) (A) (A)
                 (A) (A) (A) (A) (A) (A) (A) (A) (A) (A) (A) (A)
                 (A) (A) (A) (A) (A) (A) (A) (A) (A) (A) (A) (A)
                 (A) (A) (A) (A) (A) (A) (A) (A) (A) (A) (A) (A)
                 (A) (A) (A) (A) (A) (A) (A) (A)
 The electronic state is 1-A.
 Alpha  occ. eigenvalues --  -10.77398 -10.73041 -10.72974 -10.72258 -10.72228
 Alpha  occ. eigenvalues --  -10.71494 -10.71152 -10.71107 -10.70873 -10.70460
 Alpha  occ. eigenvalues --  -10.70020 -10.69779 -10.69458 -10.69393  -1.16829
 Alpha  occ. eigenvalues --   -1.12875  -1.07318  -1.06121  -1.01370  -1.00628
 Alpha  occ. eigenvalues --   -0.95952  -0.91481  -0.86308  -0.86172  -0.83739
 Alpha  occ. eigenvalues --   -0.78636  -0.76390  -0.74370  -0.69910  -0.69234
 Alpha  occ. eigenvalues --   -0.68969  -0.68244  -0.68180  -0.64625  -0.63825
 Alpha  occ. eigenvalues --   -0.63659  -0.61797  -0.60507  -0.59984  -0.59344
 Alpha  occ. eigenvalues --   -0.56551  -0.55331  -0.54613  -0.52640  -0.46870
 Alpha  occ. eigenvalues --   -0.46141  -0.44771
 Alpha virt. eigenvalues --   -0.26016  -0.14355  -0.14154  -0.12555  -0.11178
 Alpha virt. eigenvalues --   -0.10032  -0.09260  -0.08047  -0.07935  -0.07465
 Alpha virt. eigenvalues --   -0.07195  -0.07084  -0.05639  -0.05560  -0.05283
 Alpha virt. eigenvalues --   -0.03887  -0.03724  -0.03233  -0.03076  -0.02137
 Alpha virt. eigenvalues --   -0.01445  -0.00914   0.00240   0.00546   0.00704
 Alpha virt. eigenvalues --    0.01124   0.01506   0.02040   0.02324   0.02331
 Alpha virt. eigenvalues --    0.02449   0.02705   0.02857   0.03330   0.03357
 Alpha virt. eigenvalues --    0.04246   0.04513   0.04685   0.05194   0.05388
 Alpha virt. eigenvalues --    0.06072   0.06356   0.06536   0.07028   0.07320
 Alpha virt. eigenvalues --    0.07893   0.08257   0.08373   0.08614   0.08931
 Alpha virt. eigenvalues --    0.09567   0.09665   0.09972   0.10635   0.11225
 Alpha virt. eigenvalues --    0.11232   0.12210   0.12269   0.12895   0.13182
 Alpha virt. eigenvalues --    0.13218   0.13627   0.14115   0.14523   0.16229
 Alpha virt. eigenvalues --    0.16396   0.16784   0.17493   0.17809   0.17834
 Alpha virt. eigenvalues --    0.18314   0.19289   0.19386   0.19593   0.19781
 Alpha virt. eigenvalues --    0.21527   0.21751   0.23085   0.23363   0.23480
 Alpha virt. eigenvalues --    0.23735   0.24825   0.25308   0.27074   0.27880
 Alpha virt. eigenvalues --    0.29003   0.29347   0.30358   0.31718   0.36382
 Alpha virt. eigenvalues --    0.36945   0.38548   0.39321   0.40938   0.41412
 Alpha virt. eigenvalues --    0.42156   0.42475   0.42871   0.43907   0.44296
 Alpha virt. eigenvalues --    0.45251   0.45403   0.46342   0.46590   0.48348
 Alpha virt. eigenvalues --    0.48585   0.48909   0.49013   0.50354   0.51099
 Alpha virt. eigenvalues --    0.51524   0.51877   0.52122   0.52810   0.54077
 Alpha virt. eigenvalues --    0.54204   0.54754   0.55775   0.55833   0.58261
 Alpha virt. eigenvalues --    0.58461   0.59129   0.61493   0.62250   0.62505
 Alpha virt. eigenvalues --    0.63121   0.63576   0.65033   0.65456   0.67617
 Alpha virt. eigenvalues --    0.70610   0.70905   0.71247   0.72315   0.72882
 Alpha virt. eigenvalues --    0.75881   0.75950   0.76270   0.76840   0.77026
 Alpha virt. eigenvalues --    0.77478   0.77807   0.78217   0.79586   0.80543
 Alpha virt. eigenvalues --    0.81571   0.81850   0.82209   0.83207   0.85281
 Alpha virt. eigenvalues --    0.87084   0.87724   0.88724   0.89303   0.90486
 Alpha virt. eigenvalues --    0.91087   0.92107   0.92956   0.94977   0.96813
 Alpha virt. eigenvalues --    0.96945   1.00813   1.01076   1.01638   1.02606
 Alpha virt. eigenvalues --    1.03290   1.04500   1.05397   1.06197   1.09092
 Alpha virt. eigenvalues --    1.20443   1.23248   1.24287   1.26670   1.29092
 Alpha virt. eigenvalues --    1.30430   1.31625   1.34084   1.35580   1.35923
 Alpha virt. eigenvalues --    1.39314   1.41013   1.41515   1.43529   1.43848
 Alpha virt. eigenvalues --    1.44082   1.45824   1.46087   1.47098   1.47378
 Alpha virt. eigenvalues --    1.47995   1.48070   1.52914   1.54063   1.55431
 Alpha virt. eigenvalues --    1.56117   1.56729   1.57167   1.58448   1.61718
 Alpha virt. eigenvalues --    1.62678   1.63311   1.63463   1.66442   1.68106
 Alpha virt. eigenvalues --    1.68258   1.69770   1.70072   1.74358   1.76446
 Alpha virt. eigenvalues --    1.77190   1.78369   1.80422   1.81290   1.81894
 Alpha virt. eigenvalues --    1.83298   1.83585   1.83995   1.84431   1.84518
 Alpha virt. eigenvalues --    1.84894   1.86017   1.86254   1.88622   1.91848
 Alpha virt. eigenvalues --    1.92179   1.94311   1.95576   1.98095   1.98524
 Alpha virt. eigenvalues --    2.01107   2.03593   2.04001   2.08516   2.12727
 Alpha virt. eigenvalues --    2.13251   2.14149   2.15790   2.20395   2.22598
 Alpha virt. eigenvalues --    2.24115   2.29845   2.30767   2.34686   2.36161
 Alpha virt. eigenvalues --    2.36854   2.38342   2.39681   2.42882   2.46628
 Alpha virt. eigenvalues --    2.47913   2.48143   2.49110   2.52981   2.54039
 Alpha virt. eigenvalues --    2.55818   2.57030   2.58152   2.58554   2.59782
 Alpha virt. eigenvalues --    2.59906   2.61600   2.62116   2.63767   2.64114
 Alpha virt. eigenvalues --    2.65101   2.65198   2.65461   2.65994   2.68380
 Alpha virt. eigenvalues --    2.68842   2.71061   2.73347   2.73746   2.75338
 Alpha virt. eigenvalues --    2.76604   2.80028   2.80134   2.82378   2.83573
 Alpha virt. eigenvalues --    2.86492   2.87089   2.92797   2.97306   3.00169
 Alpha virt. eigenvalues --    3.00777   3.06617   3.11177   3.13399   3.14771
 Alpha virt. eigenvalues --    3.22737   3.25541   3.28125   3.29421   3.32032
 Alpha virt. eigenvalues --    3.33826   3.35824   3.44275   3.46429   3.47156
 Alpha virt. eigenvalues --    3.49015   3.52296   3.57573   3.67118   3.67414
 Alpha virt. eigenvalues --    3.74892   3.93367   3.93965   3.95689   3.96543
 Alpha virt. eigenvalues --    4.02843   4.05692   4.06115   4.12357   4.37232
 Alpha virt. eigenvalues --    4.64063   4.70716   4.72357  23.44536  23.60339
 Alpha virt. eigenvalues --   23.83165  23.87422  23.88243  23.91580  23.92440
 Alpha virt. eigenvalues --   23.95763  23.99662  24.01483  24.01722  24.02948
 Alpha virt. eigenvalues --   24.13041  24.13569
          Condensed to atoms (all electrons):
               1          2          3          4          5          6
     1  C    9.030959   0.296331  -0.609012   2.264807  -0.042508  -0.101721
     2  C    0.296331   7.021281   0.390620  -0.968046  -0.027568  -0.013118
     3  C   -0.609012   0.390620   6.703461   0.589483  -0.134418   0.018121
     4  C    2.264807  -0.968046   0.589483  10.959829  -0.277424  -0.123844
     5  C   -0.042508  -0.027568  -0.134418  -0.277424  11.516348   0.583605
     6  C   -0.101721  -0.013118   0.018121  -0.123844   0.583605   6.631631
     7  C   -0.007807   0.003460  -0.015154  -0.033268  -1.026506   0.387751
     8  C    0.467445  -0.011096  -0.100901  -0.035784   2.246660  -0.635054
     9  C   -1.252882  -0.662586   0.336417  -0.584252  -0.190478   0.361781
    10  C   -1.507315   0.226543  -0.394765  -2.580560  -2.721546  -0.321174
    11  C    0.038769  -0.805950   1.076230  -0.647535  -1.705415  -0.173903
    12  C   -2.186129   1.138809  -1.394809  -1.139675  -0.459630  -0.201007
    13  C    0.173363  -0.242537  -0.171438  -1.551549  -0.491292   1.072355
    14  C   -1.061821  -0.226095  -0.175752  -0.265381  -1.662931  -1.362103
    15  H    0.357114  -0.087747  -0.003532   0.024613   0.006272   0.000921
    16  H   -0.014712   0.375064  -0.014414   0.016799  -0.001789  -0.000306
    17  H   -0.033106  -0.012317   0.379941  -0.073406   0.000031   0.000382
    18  H    0.057308  -0.001927  -0.090133   0.468972   0.008612  -0.004915
    19  H   -0.053860  -0.006297   0.054900  -0.074356  -0.089192   0.053531
    20  H    0.007388   0.001567  -0.004777   0.009239   0.458012  -0.082456
    21  H   -0.001324  -0.000343   0.000409   0.000032  -0.069438   0.378216
    22  H    0.000610   0.000323  -0.000319  -0.001570   0.015645  -0.015633
    23  H    0.006330  -0.002582   0.001227   0.006172   0.027651  -0.005257
    24  H    0.041754   0.017180  -0.005137  -0.015091  -0.016837  -0.002568
    25  H    0.042071   0.016264   0.001712  -0.012228  -0.012196   0.000129
               7          8          9         10         11         12
     1  C   -0.007807   0.467445  -1.252882  -1.507315   0.038769  -2.186129
     2  C    0.003460  -0.011096  -0.662586   0.226543  -0.805950   1.138809
     3  C   -0.015154  -0.100901   0.336417  -0.394765   1.076230  -1.394809
     4  C   -0.033268  -0.035784  -0.584252  -2.580560  -0.647535  -1.139675
     5  C   -1.026506   2.246660  -0.190478  -2.721546  -1.705415  -0.459630
     6  C    0.387751  -0.635054   0.361781  -0.321174  -0.173903  -0.201007
     7  C    7.149401   0.322604  -0.837162   0.217511  -0.181150  -0.220306
     8  C    0.322604   8.956397  -1.172312  -1.462121   0.161349  -1.108318
     9  C   -0.837162  -1.172312   9.764580   0.341634   1.816844  -1.903441
    10  C    0.217511  -1.462121   0.341634   9.587147  -0.518161   2.480755
    11  C   -0.181150   0.161349   1.816844  -0.518161  14.363306  -3.027874
    12  C   -0.220306  -1.108318  -1.903441   2.480755  -3.027874  15.488271
    13  C   -0.871479   0.109439   1.722987  -0.555749   0.774255  -4.623854
    14  C    1.227083  -2.252538  -2.353383   2.643913  -4.509475   2.689474
    15  H   -0.002491   0.006319   0.075652  -0.008350  -0.037271  -0.007323
    16  H    0.000364   0.000649   0.002886  -0.011912   0.024659  -0.033407
    17  H   -0.000372  -0.001345  -0.004499   0.024108  -0.026807   0.093237
    18  H    0.002028   0.007779  -0.030226   0.014716  -0.011218  -0.055907
    19  H   -0.008025  -0.052973   0.085996   0.425912   0.087161  -0.060404
    20  H   -0.000198   0.052753  -0.025666   0.014323  -0.014232  -0.016936
    21  H   -0.017592  -0.027051  -0.004556   0.021021  -0.005353   0.004920
    22  H    0.382776  -0.018145   0.003641  -0.010828   0.002678  -0.008998
    23  H   -0.095833   0.364273   0.081554  -0.008939  -0.004885   0.007015
    24  H    0.022964   0.045076   0.366456   0.002509   0.004904  -0.077954
    25  H    0.012095   0.042404   0.349813   0.002729   0.015394  -0.056997
              13         14         15         16         17         18
     1  C    0.173363  -1.061821   0.357114  -0.014712  -0.033106   0.057308
     2  C   -0.242537  -0.226095  -0.087747   0.375064  -0.012317  -0.001927
     3  C   -0.171438  -0.175752  -0.003532  -0.014414   0.379941  -0.090133
     4  C   -1.551549  -0.265381   0.024613   0.016799  -0.073406   0.468972
     5  C   -0.491292  -1.662931   0.006272  -0.001789   0.000031   0.008612
     6  C    1.072355  -1.362103   0.000921  -0.000306   0.000382  -0.004915
     7  C   -0.871479   1.227083  -0.002491   0.000364  -0.000372   0.002028
     8  C    0.109439  -2.252538   0.006319   0.000649  -0.001345   0.007779
     9  C    1.722987  -2.353383   0.075652   0.002886  -0.004499  -0.030226
    10  C   -0.555749   2.643913  -0.008350  -0.011912   0.024108   0.014716
    11  C    0.774255  -4.509475  -0.037271   0.024659  -0.026807  -0.011218
    12  C   -4.623854   2.689474  -0.007323  -0.033407   0.093237  -0.055907
    13  C   14.586157  -3.281396  -0.001280   0.002779  -0.005654  -0.012934
    14  C   -3.281396  16.106905   0.007452  -0.009468   0.006021  -0.015423
    15  H   -0.001280   0.007452   0.435990  -0.008091   0.001358   0.000235
    16  H    0.002779  -0.009468  -0.008091   0.417820  -0.006576   0.001838
    17  H   -0.005654   0.006021   0.001358  -0.006576   0.423175  -0.010175
    18  H   -0.012934  -0.015423   0.000235   0.001838  -0.010175   0.454602
    19  H    0.078411  -0.065335   0.000173  -0.000537   0.001493  -0.005981
    20  H   -0.006663  -0.060827  -0.000097   0.000006  -0.000132   0.001171
    21  H   -0.022279   0.088285   0.000012  -0.000006   0.000010  -0.000144
    22  H    0.022325  -0.033554  -0.000112   0.000006  -0.000006   0.000014
    23  H   -0.037775  -0.007667   0.000486  -0.000119   0.000014  -0.000118
    24  H    0.020411  -0.065665  -0.000794   0.000899  -0.000311   0.000309
    25  H    0.000809  -0.068152  -0.000463   0.000327   0.000016   0.000171
              19         20         21         22         23         24
     1  C   -0.053860   0.007388  -0.001324   0.000610   0.006330   0.041754
     2  C   -0.006297   0.001567  -0.000343   0.000323  -0.002582   0.017180
     3  C    0.054900  -0.004777   0.000409  -0.000319   0.001227  -0.005137
     4  C   -0.074356   0.009239   0.000032  -0.001570   0.006172  -0.015091
     5  C   -0.089192   0.458012  -0.069438   0.015645   0.027651  -0.016837
     6  C    0.053531  -0.082456   0.378216  -0.015633  -0.005257  -0.002568
     7  C   -0.008025  -0.000198  -0.017592   0.382776  -0.095833   0.022964
     8  C   -0.052973   0.052753  -0.027051  -0.018145   0.364273   0.045076
     9  C    0.085996  -0.025666  -0.004556   0.003641   0.081554   0.366456
    10  C    0.425912   0.014323   0.021021  -0.010828  -0.008939   0.002509
    11  C    0.087161  -0.014232  -0.005353   0.002678  -0.004885   0.004904
    12  C   -0.060404  -0.016936   0.004920  -0.008998   0.007015  -0.077954
    13  C    0.078411  -0.006663  -0.022279   0.022325  -0.037775   0.020411
    14  C   -0.065335  -0.060827   0.088285  -0.033554  -0.007667  -0.065665
    15  H    0.000173  -0.000097   0.000012  -0.000112   0.000486  -0.000794
    16  H   -0.000537   0.000006  -0.000006   0.000006  -0.000119   0.000899
    17  H    0.001493  -0.000132   0.000010  -0.000006   0.000014  -0.000311
    18  H   -0.005981   0.001171  -0.000144   0.000014  -0.000118   0.000309
    19  H    0.448027  -0.005822   0.001542  -0.000583   0.000237   0.000528
    20  H   -0.005822   0.448808  -0.009436   0.001884   0.000208   0.000327
    21  H    0.001542  -0.009436   0.422782  -0.006829   0.001446  -0.000215
    22  H   -0.000583   0.001884  -0.006829   0.419161  -0.008771   0.000908
    23  H    0.000237   0.000208   0.001446  -0.008771   0.440417  -0.001658
    24  H    0.000528   0.000327  -0.000215   0.000908  -0.001658   0.490299
    25  H    0.000699   0.000075  -0.000065   0.000311   0.000180  -0.071980
              25
     1  C    0.042071
     2  C    0.016264
     3  C    0.001712
     4  C   -0.012228
     5  C   -0.012196
     6  C    0.000129
     7  C    0.012095
     8  C    0.042404
     9  C    0.349813
    10  C    0.002729
    11  C    0.015394
    12  C   -0.056997
    13  C    0.000809
    14  C   -0.068152
    15  H   -0.000463
    16  H    0.000327
    17  H    0.000016
    18  H    0.000171
    19  H    0.000699
    20  H    0.000075
    21  H   -0.000065
    22  H    0.000311
    23  H    0.000180
    24  H   -0.071980
    25  H    0.492612
 Mulliken charges:
               1
     1  C    0.087948
     2  C   -0.419234
     3  C   -0.437959
     4  C    0.044026
     5  C    0.066332
     6  C   -0.445366
     7  C   -0.410695
     8  C    0.094490
     9  C   -0.288798
    10  C    0.098598
    11  C   -0.696318
    12  C    0.680487
    13  C   -0.687412
    14  C    0.707835
    15  H    0.240951
    16  H    0.257241
    17  H    0.244917
    18  H    0.221345
    19  H    0.184754
    20  H    0.231483
    21  H    0.245956
    22  H    0.255067
    23  H    0.236396
    24  H    0.243686
    25  H    0.244270
 Sum of Mulliken charges =   1.00000
 Mulliken charges with hydrogens summed into heavy atoms:
               1
     1  C    0.328899
     2  C   -0.161993
     3  C   -0.193043
     4  C    0.265371
     5  C    0.297815
     6  C   -0.199410
     7  C   -0.155628
     8  C    0.330886
     9  C    0.199158
    10  C    0.283352
    11  C   -0.696318
    12  C    0.680487
    13  C   -0.687412
    14  C    0.707835
 Electronic spatial extent (au):  <R**2>=           2846.3841
 Charge=              1.0000 electrons
 Dipole moment (field-independent basis, Debye):
    X=             -0.0123    Y=              0.2204    Z=             -0.0034  Tot=              0.2208
 Quadrupole moment (field-independent basis, Debye-Ang):
   XX=            -30.3557   YY=            -57.1652   ZZ=            -83.8217
   XY=              0.0881   XZ=             -0.1272   YZ=              0.1813
 Traceless Quadrupole moment (field-independent basis, Debye-Ang):
   XX=             26.7585   YY=             -0.0510   ZZ=            -26.7075
   XY=              0.0881   XZ=             -0.1272   YZ=              0.1813
 Octapole moment (field-independent basis, Debye-Ang**2):
  XXX=             -0.2565  YYY=              5.2953  ZZZ=              0.0323  XYY=             -0.0142
  XXY=             -3.8200  XXZ=              0.0452  XZZ=              0.0057  YZZ=             -3.0862
  YYZ=              0.1442  XYZ=             -0.0918
 Hexadecapole moment (field-independent basis, Debye-Ang**3):
 XXXX=          -2102.9864 YYYY=           -605.6155 ZZZZ=            -98.4691 XXXY=             -0.8582
 XXXZ=             -3.0246 YYYX=              1.6294 YYYZ=              0.8508 ZZZX=             -0.1527
 ZZZY=              0.0721 XXYY=           -508.4315 XXZZ=           -588.4733 YYZZ=           -143.5267
 XXYZ=              3.6962 YYXZ=             -0.2890 ZZXY=             -0.4732
 N-N= 7.839994410688D+02 E-N=-2.804523344366D+03  KE= 5.377829486083D+02
 Unable to Open any file for archive entry.
 1\1\GINC-GADI-CPU-CLX-2722\SP\RM062X TD-FC\6-311++G(d,p)\C14H11(1+)\TS
 1578\26-Jul-2022\0\\#n M062X/6-311++G(d,p) TD(NStates=1) EmpiricalDisp
 ersion=GD3 SP\\SP_1\\1,1\C,0,2.4927,1.3611,0.017\C,0,3.7015,0.6627,-0.
 005\C,0,3.6839,-0.7171,-0.016\C,0,2.4632,-1.3729,-0.028\C,0,-2.4632,-1
 .3849,-0.012\C,0,-3.6839,-0.7111,0.016\C,0,-3.7015,0.6627,0.011\C,0,-2
 .4927,1.3451,0.017\C,0,0.,1.4541,0.033\C,0,0.,-1.3915,-0.027\C,0,1.262
 1,0.6987,0.019\C,0,1.2375,-0.7101,-0.014\C,0,-1.2621,0.6907,-0.003\C,0
 ,-1.2375,-0.7161,-0.012\H,0,2.4881,2.4613,0.018\H,0,4.6368,1.2114,-0.0
 19\H,0,4.6093,-1.2587,0.012\H,0,2.4675,-2.4544,-0.029\H,0,0.,-2.4766,-
 0.028\H,0,-2.4675,-2.4904,-0.013\H,0,-4.6093,-1.2707,0.016\H,0,-4.6368
 ,1.1934,-0.005\H,0,-2.4881,2.4333,0.018\H,0,-0.002,2.1105,-0.8296\H,0,
 0.002,2.1105,0.8896\\Version=ES64L-G16RevC.01\State=1-A\HF=-539.75874\
 RMSD=3.732e-09\PG=C01 [X(C14H11)]\\@
 The archive entry for this job was punched.


 ASKING DUMB QUESTIONS IS EASIER THAN CORECTING DUMB MISTAKES.
 Job cpu time:       0 days  0 hours 58 minutes 18.7 seconds.
 Elapsed time:       0 days  0 hours  4 minutes 17.2 seconds.
 File lengths (MBytes):  RWF=    460 Int=      0 D2E=      0 Chk=     15 Scr=      1
 Normal termination of Gaussian 16 at Tue Jul 26 14:39:55 2022.
