 Entering Gaussian System, Link 0=g16
 Initial command:
 /apps/gaussian/g16c01/g16/l1.exe "/jobfs/52819071.gadi-pbs/Gau-729456.inp" -scrdir="/jobfs/52819071.gadi-pbs/"
 Entering Link 1 = /apps/gaussian/g16c01/g16/l1.exe PID=    729457.
  
 Copyright (c) 1988-2019, Gaussian, Inc.  All Rights Reserved.
  
 This is part of the Gaussian(R) 16 program.  It is based on
 the Gaussian(R) 09 system (copyright 2009, Gaussian, Inc.),
 the Gaussian(R) 03 system (copyright 2003, Gaussian, Inc.),
 the Gaussian(R) 98 system (copyright 1998, Gaussian, Inc.),
 the Gaussian(R) 94 system (copyright 1995, Gaussian, Inc.),
 the Gaussian 92(TM) system (copyright 1992, Gaussian, Inc.),
 the Gaussian 90(TM) system (copyright 1990, Gaussian, Inc.),
 the Gaussian 88(TM) system (copyright 1988, Gaussian, Inc.),
 the Gaussian 86(TM) system (copyright 1986, Carnegie Mellon
 University), and the Gaussian 82(TM) system (copyright 1983,
 Carnegie Mellon University). Gaussian is a federally registered
 trademark of Gaussian, Inc.
  
 This software contains proprietary and confidential information,
 including trade secrets, belonging to Gaussian, Inc.
  
 This software is provided under written license and may be
 used, copied, transmitted, or stored only in accord with that
 written license.
  
 The following legend is applicable only to US Government
 contracts under FAR:
  
                    RESTRICTED RIGHTS LEGEND
  
 Use, reproduction and disclosure by the US Government is
 subject to restrictions as set forth in subparagraphs (a)
 and (c) of the Commercial Computer Software - Restricted
 Rights clause in FAR 52.227-19.
  
 Gaussian, Inc.
 340 Quinnipiac St., Bldg. 40, Wallingford CT 06492
  
  
 ---------------------------------------------------------------
 Warning -- This program may not be used in any manner that
 competes with the business of Gaussian, Inc. or will provide
 assistance to any competitor of Gaussian, Inc.  The licensee
 of this program is prohibited from giving any competitor of
 Gaussian, Inc. access to this program.  By using this program,
 the user acknowledges that Gaussian, Inc. is engaged in the
 business of creating and licensing software in the field of
 computational chemistry and represents and warrants to the
 licensee that it is not a competitor of Gaussian, Inc. and that
 it will not use this program in any manner prohibited above.
 ---------------------------------------------------------------
  

 Cite this work as:
 Gaussian 16, Revision C.01,
 M. J. Frisch, G. W. Trucks, H. B. Schlegel, G. E. Scuseria, 
 M. A. Robb, J. R. Cheeseman, G. Scalmani, V. Barone, 
 G. A. Petersson, H. Nakatsuji, X. Li, M. Caricato, A. V. Marenich, 
 J. Bloino, B. G. Janesko, R. Gomperts, B. Mennucci, H. P. Hratchian, 
 J. V. Ortiz, A. F. Izmaylov, J. L. Sonnenberg, D. Williams-Young, 
 F. Ding, F. Lipparini, F. Egidi, J. Goings, B. Peng, A. Petrone, 
 T. Henderson, D. Ranasinghe, V. G. Zakrzewski, J. Gao, N. Rega, 
 G. Zheng, W. Liang, M. Hada, M. Ehara, K. Toyota, R. Fukuda, 
 J. Hasegawa, M. Ishida, T. Nakajima, Y. Honda, O. Kitao, H. Nakai, 
 T. Vreven, K. Throssell, J. A. Montgomery, Jr., J. E. Peralta, 
 F. Ogliaro, M. J. Bearpark, J. J. Heyd, E. N. Brothers, K. N. Kudin, 
 V. N. Staroverov, T. A. Keith, R. Kobayashi, J. Normand, 
 K. Raghavachari, A. P. Rendell, J. C. Burant, S. S. Iyengar, 
 J. Tomasi, M. Cossi, J. M. Millam, M. Klene, C. Adamo, R. Cammi, 
 J. W. Ochterski, R. L. Martin, K. Morokuma, O. Farkas, 
 J. B. Foresman, and D. J. Fox, Gaussian, Inc., Wallingford CT, 2019.
 
 ******************************************
 Gaussian 16:  ES64L-G16RevC.01  3-Jul-2019
                27-Jul-2022 
 ******************************************
 %NProcShared=16
 Will use up to   16 processors via shared memory.
 %mem = 64GB
 ---------------------------------------------------------------
 #n M062X/6-311++G(d,p) TD(NStates=1) EmpiricalDispersion=GD3 SP
 ---------------------------------------------------------------
 1/38=1,172=1/1;
 2/12=2,17=6,18=5,40=1/2;
 3/5=4,6=6,7=1111,11=9,25=1,30=1,74=-55,124=31/1,2,3,8;
 4//1;
 5/5=2,38=5/2;
 8/6=1,10=2,108=1/1;
 9/41=1,42=1,70=2/14;
 6/7=2,8=2,9=2,10=2/1;
 99/5=1,9=1/99;
 -----
 SP_20
 -----
 Symbolic Z-matrix:
 Charge =  1 Multiplicity = 1
 C                     0.        2.46066   1.36043 
 C                     0.        3.66551   0.65599 
 C                     0.        3.66586  -0.74583 
 C                     0.        2.50316  -1.42354 
 C                     0.       -2.42316  -1.39154 
 C                     0.       -3.70186  -0.68183 
 C                     0.       -3.73751   0.68799 
 C                     0.       -2.52466   1.36043 
 C                     0.       -0.016     1.45337 
 C                     0.        0.058    -1.42919 
 C                     0.        1.28006   0.69907 
 C                     0.        1.25547  -0.7328 
 C                     0.       -1.24406   0.65507 
 C                     0.       -1.21947  -0.7288 
 H                     0.        2.47807   2.44365 
 H                     0.        4.60075   1.19769 
 H                     0.        4.60726  -1.27635 
 H                     0.        2.48555  -2.50606 
 H                     0.        0.05     -2.51027 
 H                     0.       -2.44955  -2.47406 
 H                     0.       -4.61126  -1.26835 
 H                     0.       -4.67275   1.22569 
 H                     0.       -2.49807   2.44365 
 H                    -0.85959  -0.088     2.14579 
 H                     0.85959  -0.088     2.14579 
 
                          Input orientation:                          
 ---------------------------------------------------------------------
 Center     Atomic      Atomic             Coordinates (Angstroms)
 Number     Number       Type             X           Y           Z
 ---------------------------------------------------------------------
      1          6           0        0.000000    2.460655    1.360431
      2          6           0        0.000000    3.665508    0.655989
      3          6           0        0.000000    3.665861   -0.745830
      4          6           0        0.000000    2.503156   -1.423538
      5          6           0        0.000000   -2.423156   -1.391538
      6          6           0        0.000000   -3.701861   -0.681830
      7          6           0        0.000000   -3.737508    0.687989
      8          6           0        0.000000   -2.524655    1.360431
      9          6           0        0.000000   -0.016000    1.453369
     10          6           0        0.000000    0.058000   -1.429189
     11          6           0        0.000000    1.280055    0.699065
     12          6           0        0.000000    1.255471   -0.732804
     13          6           0        0.000000   -1.244055    0.655065
     14          6           0        0.000000   -1.219471   -0.728804
     15          1           0        0.000000    2.478071    2.443647
     16          1           0        0.000000    4.600753    1.197689
     17          1           0        0.000000    4.607262   -1.276349
     18          1           0        0.000000    2.485550   -2.506059
     19          1           0        0.000000    0.050000   -2.510266
     20          1           0        0.000000   -2.449550   -2.474059
     21          1           0        0.000000   -4.611262   -1.268349
     22          1           0        0.000000   -4.672753    1.225689
     23          1           0        0.000000   -2.498071    2.443647
     24          1           0       -0.859585   -0.088000    2.145787
     25          1           0        0.859585   -0.088000    2.145787
 ---------------------------------------------------------------------
                    Distance matrix (angstroms):
                    1          2          3          4          5
     1  C    0.000000
     2  C    1.395675   0.000000
     3  C    2.426697   1.401819   0.000000
     4  C    2.784293   2.382330   1.345798   0.000000
     5  C    5.605796   6.423721   6.123158   4.926416   0.000000
     6  C    6.492105   7.487849   7.368000   6.249189   1.462454
     7  C    6.234533   7.403085   7.540936   6.588204   2.460072
     8  C    4.985310   6.230117   6.539023   5.747118   2.753840
     9  C    2.478398   3.766871   4.288657   3.823969   3.726647
    10  C    3.681675   4.166783   3.672008   2.445163   2.481442
    11  C    1.353226   2.385842   2.789228   2.449779   4.252575
    12  C    2.415388   2.781551   2.410425   1.426125   3.737142
    13  C    3.771262   4.909563   5.105858   4.285112   2.361962
    14  C    4.231812   5.077467   4.885362   3.786899   1.374072
    15  H    1.083356   2.146096   3.403470   3.867266   6.223397
    16  H    2.146277   1.080797   2.156685   3.357193   7.485946
    17  H    3.400078   2.149612   1.080595   2.109248   7.031362
    18  H    3.866570   3.375033   2.119325   1.082664   5.033642
    19  H    4.559995   4.805941   4.023392   2.683086   2.714416
    20  H    6.230042   6.869580   6.354921   5.062894   1.082843
    21  H    7.544700   8.497529   8.293599   7.116110   2.191571
    22  H    7.134680   8.357700   8.568510   7.649319   3.451168
    23  H    5.075660   6.417587   6.940232   6.321977   3.835917
    24  H    2.802019   4.128826   4.815787   4.493669   4.324871
    25  H    2.802019   4.128826   4.815787   4.493669   4.324871
                    6          7          8          9         10
     6  C    0.000000
     7  C    1.370283   0.000000
     8  C    2.357253   1.386791   0.000000
     9  C    4.259653   3.799398   2.510376   0.000000
    10  C    3.833419   4.346070   3.801590   2.883508   0.000000
    11  C    5.169754   5.017575   3.861764   1.499578   2.454156
    12  C    4.957594   5.191194   4.320994   2.529030   1.385240
    13  C    2.797874   2.493670   1.462011   1.464721   2.457532
    14  C    2.482834   2.889258   2.463414   2.492032   1.456870
    15  H    6.925328   6.458774   5.118655   2.683475   4.566793
    16  H    8.512696   8.353825   7.127266   4.623827   5.247580
    17  H    8.330365   8.572853   7.603739   5.368977   4.551829
    18  H    6.450726   6.994883   6.328657   4.683463   2.655682
    19  H    4.173684   4.957222   4.648779   3.964184   1.081107
    20  H    2.186405   3.414291   3.835225   4.620266   2.716535
    21  H    1.082134   2.142593   3.356250   5.340803   4.672031
    22  H    2.140388   1.078798   2.152320   4.662316   5.424795
    23  H    3.349286   2.149079   1.083542   2.672326   4.640297
    24  H    4.668436   4.022806   2.700548   1.106125   3.679763
    25  H    4.668436   4.022806   2.700548   1.106125   3.679763
                   11         12         13         14         15
    11  C    0.000000
    12  C    1.432080   0.000000
    13  C    2.524493   2.858988   0.000000
    14  C    2.878618   2.474945   1.384087   0.000000
    15  H    2.116320   3.403615   4.129558   4.871987   0.000000
    16  H    3.357925   3.862346   5.869942   6.130773   2.461339
    17  H    3.869440   3.395577   6.161840   5.852403   4.286237
    18  H    3.424330   2.158131   4.889035   4.109235   4.949712
    19  H    3.436981   2.147680   3.419634   2.187502   5.516954
    20  H    4.896802   4.093794   3.353302   2.135184   6.961701
    21  H    6.211146   5.891126   3.877835   3.434437   8.002347
    22  H    5.976057   6.243359   3.475857   3.968022   7.253806
    23  H    4.161466   4.917206   2.184395   3.420419   4.976142
    24  H    2.168747   3.290910   2.073066   3.206616   2.722559
    25  H    2.168747   3.290910   2.073066   3.206616   2.722559
                   16         17         18         19         20
    16  H    0.000000
    17  H    2.474047   0.000000
    18  H    4.265189   2.452315   0.000000
    19  H    5.870118   4.721354   2.435554   0.000000
    20  H    7.949120   7.157730   4.935204   2.499812   0.000000
    21  H    9.536381   9.218527   7.203934   4.823870   2.475224
    22  H    9.273548   9.611393   8.072623   6.021773   4.316337
    23  H    7.207337   8.020232   7.023964   5.570810   4.917945
    24  H    4.860266   5.873277   5.385324   4.736746   5.259162
    25  H    4.860266   5.873277   5.385324   4.736746   5.259162
                   21         22         23         24         25
    21  H    0.000000
    22  H    2.494796   0.000000
    23  H    4.271357   2.492522   0.000000
    24  H    5.731938   4.754516   2.576053   0.000000
    25  H    5.731938   4.754516   2.576053   1.719170   0.000000
 Stoichiometry    C14H11(1+)
 Framework group  CS[SG(C14H9),X(H2)]
 Deg. of freedom    46
 Full point group                 CS      NOp   2
 Largest Abelian subgroup         CS      NOp   2
 Largest concise Abelian subgroup CS      NOp   2
                         Standard orientation:                         
 ---------------------------------------------------------------------
 Center     Atomic      Atomic             Coordinates (Angstroms)
 Number     Number       Type             X           Y           Z
 ---------------------------------------------------------------------
      1          6           0       -2.350758   -1.543480    0.000000
      2          6           0       -2.289066   -2.937791    0.000000
      3          6           0       -1.048981   -3.591463    0.000000
      4          6           0        0.092529   -2.878634    0.000000
      5          6           0        2.360272    1.494799    0.000000
      6          6           0        2.328342    2.956904    0.000000
      7          6           0        1.133019    3.626888    0.000000
      8          6           0       -0.027206    2.867237    0.000000
      9          6           0       -1.278665    0.691039    0.000000
     10          6           0        1.237167   -0.717934    0.000000
     11          6           0       -1.215365   -0.807202    0.000000
     12          6           0        0.062928   -1.452817    0.000000
     13          6           0        0.000000    1.405478    0.000000
     14          6           0        1.212910    0.738734    0.000000
     15          1           0       -3.317243   -1.054024    0.000000
     16          1           0       -3.204230   -3.512767    0.000000
     17          1           0       -1.018376   -4.671625    0.000000
     18          1           0        1.058488   -3.367599    0.000000
     19          1           0        2.197371   -1.214724    0.000000
     20          1           0        3.330326    1.013610    0.000000
     21          1           0        3.271114    3.488126    0.000000
     22          1           0        1.093191    4.704950    0.000000
     23          1           0       -0.997963    3.348582    0.000000
     24          1           0       -1.857719    1.077462    0.859585
     25          1           0       -1.857719    1.077462   -0.859585
 ---------------------------------------------------------------------
 Rotational constants (GHZ):           2.1366910           0.4445160           0.3687646
 Standard basis: 6-311++G(d,p) (5D, 7F)
 There are   299 symmetry adapted cartesian basis functions of A'  symmetry.
 There are   100 symmetry adapted cartesian basis functions of A"  symmetry.
 There are   285 symmetry adapted basis functions of A'  symmetry.
 There are   100 symmetry adapted basis functions of A"  symmetry.
   385 basis functions,   603 primitive gaussians,   399 cartesian basis functions
    47 alpha electrons       47 beta electrons
       nuclear repulsion energy       781.3184784682 Hartrees.
 NAtoms=   25 NActive=   25 NUniq=   24 SFac= 1.09D+00 NAtFMM=   60 NAOKFM=F Big=F
 Integral buffers will be    131072 words long.
 Regular integral format.
 Two-electron integral symmetry is turned on.
 Nuclear repulsion after empirical dispersion term =      781.3174996325 Hartrees.
 One-electron integrals computed using PRISM.
 NBasis=   385 RedAO= T EigKep=  1.11D-06  NBF=   285   100
 NBsUse=   379 1.00D-06 EigRej=  8.35D-07 NBFU=   279   100
 ExpMin= 3.60D-02 ExpMax= 4.56D+03 ExpMxC= 6.82D+02 IAcc=3 IRadAn=         5 AccDes= 0.00D+00
 Harris functional with IExCor= 1009 and IRadAn=       5 diagonalized for initial guess.
 HarFok:  IExCor= 1009 AccDes= 0.00D+00 IRadAn=         5 IDoV= 1 UseB2=F ITyADJ=14
 ICtDFT=  3500011 ScaDFX=  1.000000  1.000000  1.000000  1.000000
 FoFCou: FMM=F IPFlag=           0 FMFlag=      100000 FMFlg1=           0
         NFxFlg=           0 DoJE=T BraDBF=F KetDBF=T FulRan=T
         wScrn=  0.000000 ICntrl=       500 IOpCl=  0 I1Cent=   200000004 NGrid=           0
         NMat0=    1 NMatS0=      1 NMatT0=    0 NMatD0=    1 NMtDS0=    0 NMtDT0=    0
 Petite list used in FoFCou.
 Initial guess orbital symmetries:
       Occupied  (A') (A') (A') (A') (A') (A') (A') (A') (A') (A')
                 (A') (A') (A') (A') (A') (A') (A') (A') (A') (A')
                 (A') (A') (A') (A') (A') (A') (A') (A') (A') (A')
                 (A') (A') (A") (A') (A') (A') (A') (A') (A") (A')
                 (A") (A') (A') (A") (A") (A") (A")
       Virtual   (A") (A") (A") (A") (A") (A') (A') (A') (A') (A")
                 (A") (A') (A') (A') (A") (A') (A') (A') (A') (A")
                 (A') (A") (A') (A') (A') (A") (A') (A') (A") (A')
                 (A') (A') (A') (A') (A") (A') (A") (A') (A') (A')
                 (A") (A') (A") (A') (A') (A') (A') (A') (A") (A')
                 (A') (A') (A") (A") (A') (A') (A') (A") (A") (A')
                 (A') (A') (A') (A') (A') (A') (A") (A') (A') (A")
                 (A') (A') (A') (A') (A') (A') (A') (A') (A') (A')
                 (A') (A') (A') (A') (A') (A') (A') (A') (A') (A')
                 (A') (A') (A') (A') (A') (A') (A') (A") (A') (A")
                 (A') (A") (A') (A") (A') (A") (A') (A") (A") (A')
                 (A") (A') (A') (A') (A") (A') (A') (A") (A") (A')
                 (A") (A") (A') (A') (A') (A") (A') (A') (A') (A")
                 (A') (A') (A') (A') (A') (A') (A") (A') (A') (A')
                 (A') (A') (A') (A') (A') (A') (A') (A') (A') (A")
                 (A") (A') (A") (A") (A') (A') (A') (A") (A') (A")
                 (A") (A') (A") (A") (A") (A') (A') (A') (A') (A')
                 (A') (A") (A') (A') (A") (A') (A') (A') (A') (A")
                 (A') (A') (A') (A') (A") (A") (A') (A') (A") (A")
                 (A") (A') (A') (A") (A') (A') (A') (A") (A') (A')
                 (A") (A") (A") (A') (A') (A") (A') (A") (A') (A')
                 (A") (A") (A') (A') (A") (A") (A') (A') (A') (A')
                 (A") (A') (A') (A') (A") (A') (A') (A') (A") (A")
                 (A') (A') (A') (A") (A') (A') (A") (A') (A") (A')
                 (A") (A') (A') (A') (A') (A") (A') (A') (A') (A")
                 (A') (A') (A') (A") (A") (A') (A') (A") (A') (A')
                 (A') (A") (A') (A") (A') (A') (A') (A") (A') (A")
                 (A') (A') (A') (A') (A") (A') (A") (A') (A") (A")
                 (A') (A') (A") (A") (A") (A') (A') (A') (A') (A')
                 (A') (A') (A') (A') (A') (A') (A') (A') (A') (A')
                 (A') (A') (A') (A") (A') (A') (A') (A') (A') (A')
                 (A') (A') (A') (A') (A') (A') (A') (A') (A') (A')
                 (A') (A') (A') (A') (A') (A') (A') (A') (A') (A')
                 (A') (A')
 The electronic state of the initial guess is 1-A'.
 Requested convergence on RMS density matrix=1.00D-08 within 128 cycles.
 Requested convergence on MAX density matrix=1.00D-06.
 Requested convergence on             energy=1.00D-06.
 No special actions if energy rises.
 SCF Done:  E(RM062X) =  -539.746264179     A.U. after   16 cycles
            NFock= 16  Conv=0.40D-08     -V/T= 2.0041
 DoSCS=F DFT=T ScalE2(SS,OS)=  1.000000  1.000000
 ExpMin= 3.60D-02 ExpMax= 4.56D+03 ExpMxC= 6.82D+02 IAcc=3 IRadAn=         5 AccDes= 0.00D+00
 HarFok:  IExCor=  205 AccDes= 0.00D+00 IRadAn=         5 IDoV=-2 UseB2=F ITyADJ=14
 ICtDFT= 12500011 ScaDFX=  1.000000  1.000000  1.000000  1.000000
 Range of M.O.s used for correlation:    15   379
 NBasis=   385 NAE=    47 NBE=    47 NFC=    14 NFV=     0
 NROrb=    365 NOA=    33 NOB=    33 NVA=   332 NVB=   332

 **** Warning!!: The largest alpha MO coefficient is  0.13120705D+03

 Orbital symmetries:
       Occupied  (A') (A') (A') (A') (A') (A') (A') (A') (A') (A')
                 (A') (A') (A') (A') (A') (A') (A') (A') (A') (A')
                 (A') (A') (A') (A') (A') (A') (A') (A') (A') (A')
                 (A') (A") (A') (A') (A') (A') (A') (A") (A') (A")
                 (A') (A') (A') (A") (A") (A") (A")
       Virtual   (A") (A") (A") (A") (A') (A') (A') (A') (A") (A')
                 (A') (A") (A') (A') (A") (A') (A") (A') (A') (A')
                 (A") (A") (A') (A') (A') (A") (A') (A") (A') (A')
                 (A") (A') (A") (A') (A') (A') (A') (A') (A") (A')
                 (A") (A') (A') (A") (A") (A') (A") (A') (A") (A')
                 (A') (A') (A') (A') (A') (A") (A') (A') (A') (A')
                 (A") (A') (A') (A') (A') (A") (A') (A') (A') (A')
                 (A') (A') (A') (A') (A') (A') (A') (A') (A') (A')
                 (A') (A') (A') (A') (A') (A') (A') (A') (A') (A')
                 (A') (A') (A') (A') (A") (A') (A") (A") (A') (A")
                 (A') (A') (A') (A') (A") (A") (A') (A") (A") (A')
                 (A') (A") (A') (A') (A") (A') (A') (A") (A') (A")
                 (A") (A') (A") (A') (A') (A') (A") (A') (A') (A')
                 (A') (A') (A') (A') (A') (A') (A') (A') (A') (A')
                 (A') (A') (A') (A") (A') (A') (A') (A') (A') (A')
                 (A') (A") (A') (A') (A") (A') (A") (A") (A') (A")
                 (A") (A') (A') (A") (A') (A") (A") (A") (A') (A')
                 (A') (A') (A") (A') (A') (A") (A') (A') (A') (A")
                 (A') (A') (A') (A") (A") (A') (A') (A") (A") (A')
                 (A") (A') (A') (A") (A') (A") (A') (A') (A') (A')
                 (A") (A") (A") (A') (A") (A') (A') (A") (A') (A')
                 (A') (A") (A") (A') (A") (A') (A") (A') (A') (A")
                 (A') (A') (A') (A') (A") (A') (A') (A') (A") (A")
                 (A') (A') (A') (A") (A') (A') (A') (A") (A") (A')
                 (A") (A') (A') (A") (A') (A') (A') (A') (A') (A')
                 (A") (A') (A') (A') (A') (A") (A") (A") (A') (A')
                 (A') (A') (A') (A') (A') (A') (A") (A') (A') (A')
                 (A') (A") (A') (A") (A") (A") (A') (A") (A") (A')
                 (A') (A") (A") (A') (A") (A") (A') (A') (A') (A')
                 (A') (A') (A') (A') (A') (A') (A') (A') (A') (A')
                 (A') (A') (A') (A") (A') (A') (A') (A') (A') (A')
                 (A') (A') (A') (A') (A') (A') (A') (A') (A') (A')
                 (A') (A') (A') (A') (A') (A') (A') (A') (A') (A')
                 (A') (A')
     4 initial guesses have been made.
 Convergence on wavefunction:    0.001000000000000
 Iteration     1 Dimension     4 NMult     0 NNew      4
 CISAX will form     4 AO SS matrices at one time.
 Iteration     2 Dimension     6 NMult     4 NNew      2
 Iteration     3 Dimension     8 NMult     6 NNew      2
 Iteration     4 Dimension    10 NMult     8 NNew      2
 Iteration     5 Dimension    12 NMult    10 NNew      2
 Iteration     6 Dimension    14 NMult    12 NNew      2
 ***********************************************************************
 Excited states from <AA,BB:AA,BB> singles matrix:
 ***********************************************************************
 
 Ground to excited state transition densities written to RWF  633
 Ground to excited state transition electric dipole moments (Au):
       state          X           Y           Z        Dip. S.      Osc.
         1        -0.3991      0.3266      0.0000      0.2660      0.0166
 Ground to excited state transition velocity dipole moments (Au):
       state          X           Y           Z        Dip. S.      Osc.
         1         0.0451     -0.0298     -0.0000      0.0029      0.0208
 Ground to excited state transition magnetic dipole moments (Au):
       state          X           Y           Z
         1        -0.0000     -0.0000     -0.1526
 Ground to excited state transition velocity quadrupole moments (Au):
       state          XX          YY          ZZ          XY          XZ          YZ
         1         0.1329      0.0964     -0.0074      0.1287      0.0000      0.0000
 <0|del|b> * <b|rxdel|0> + <0|del|b> * <b|delr+rdel|0>
 Rotatory Strengths (R) in cgs (10**-40 erg-esu-cm/Gauss)
       state          XX          YY          ZZ    R(velocity)    E-M Angle
         1         0.0000     -0.0000     -0.0000     -0.0000       90.00
 1/2[<0|r|b>*<b|rxdel|0> + (<0|rxdel|b>*<b|r|0>)*]
 Rotatory Strengths (R) in cgs (10**-40 erg-esu-cm/Gauss)
       state          XX          YY          ZZ     R(length)
         1        -0.0000      0.0000      0.0000     -0.0000
  1/2[<0|del|b>*<b|r|0> + (<0|r|b>*<b|del|0>)*] (Au)
       state          X           Y           Z        Dip. S.   Osc.(frdel)
         1        -0.0180     -0.0097     -0.0000      0.0277      0.0185

 Excitation energies and oscillator strengths:
 
 Excited State   1:      Singlet-A'     2.5473 eV  486.73 nm  f=0.0166  <S**2>=0.000
      47 -> 48         0.70331
 This state for optimization and/or second-order correction.
 Total Energy, E(TD-HF/TD-DFT) =  -539.652652185    
 Copying the excited state density for this state as the 1-particle RhoCI density.
 SavETr:  write IOETrn=   770 NScale= 10 NData=  16 NLR=1 NState=    1 LETran=      28.

 **********************************************************************

            Population analysis using the SCF Density.

 **********************************************************************

 Orbital symmetries:
       Occupied  (A') (A') (A') (A') (A') (A') (A') (A') (A') (A')
                 (A') (A') (A') (A') (A') (A') (A') (A') (A') (A')
                 (A') (A') (A') (A') (A') (A') (A') (A') (A') (A')
                 (A') (A") (A') (A') (A') (A') (A') (A") (A') (A")
                 (A') (A') (A') (A") (A") (A") (A")
       Virtual   (A") (A") (A") (A") (A') (A') (A') (A') (A") (A')
                 (A') (A") (A') (A') (A") (A') (A") (A') (A') (A')
                 (A") (A") (A') (A') (A') (A") (A') (A") (A') (A')
                 (A") (A') (A") (A') (A') (A') (A') (A') (A") (A')
                 (A") (A') (A') (A") (A") (A') (A") (A') (A") (A')
                 (A') (A') (A') (A') (A') (A") (A') (A') (A') (A')
                 (A") (A') (A') (A') (A') (A") (A') (A') (A') (A')
                 (A') (A') (A') (A') (A') (A') (A') (A') (A') (A')
                 (A') (A') (A') (A') (A') (A') (A') (A') (A') (A')
                 (A') (A') (A') (A') (A") (A') (A") (A") (A') (A")
                 (A') (A') (A') (A') (A") (A") (A') (A") (A") (A')
                 (A') (A") (A') (A') (A") (A') (A') (A") (A') (A")
                 (A") (A') (A") (A') (A') (A') (A") (A') (A') (A')
                 (A') (A') (A') (A') (A') (A') (A') (A') (A') (A')
                 (A') (A') (A') (A") (A') (A') (A') (A') (A') (A')
                 (A') (A") (A') (A') (A") (A') (A") (A") (A') (A")
                 (A") (A') (A') (A") (A') (A") (A") (A") (A') (A')
                 (A') (A') (A") (A') (A') (A") (A') (A') (A') (A")
                 (A') (A') (A') (A") (A") (A') (A') (A") (A") (A')
                 (A") (A') (A') (A") (A') (A") (A') (A') (A') (A')
                 (A") (A") (A") (A') (A") (A') (A') (A") (A') (A')
                 (A') (A") (A") (A') (A") (A') (A") (A') (A') (A")
                 (A') (A') (A') (A') (A") (A') (A') (A') (A") (A")
                 (A') (A') (A') (A") (A') (A') (A') (A") (A") (A')
                 (A") (A') (A') (A") (A') (A') (A') (A') (A') (A')
                 (A") (A') (A') (A') (A') (A") (A") (A") (A') (A')
                 (A') (A') (A') (A') (A') (A') (A") (A') (A') (A')
                 (A') (A") (A') (A") (A") (A") (A') (A") (A") (A')
                 (A') (A") (A") (A') (A") (A") (A') (A') (A') (A')
                 (A') (A') (A') (A') (A') (A') (A') (A') (A') (A')
                 (A') (A') (A') (A") (A') (A') (A') (A') (A') (A')
                 (A') (A') (A') (A') (A') (A') (A') (A') (A') (A')
                 (A') (A') (A') (A') (A') (A') (A') (A') (A') (A')
                 (A') (A')
 The electronic state is 1-A'.
 Alpha  occ. eigenvalues --  -10.77478 -10.73944 -10.72970 -10.72556 -10.72480
 Alpha  occ. eigenvalues --  -10.71943 -10.71721 -10.71002 -10.70640 -10.70291
 Alpha  occ. eigenvalues --  -10.69972 -10.69678 -10.69585 -10.69242  -1.16648
 Alpha  occ. eigenvalues --   -1.12493  -1.06917  -1.05994  -1.01277  -1.00620
 Alpha  occ. eigenvalues --   -0.95407  -0.91009  -0.86464  -0.85859  -0.83783
 Alpha  occ. eigenvalues --   -0.78245  -0.76269  -0.74311  -0.69999  -0.69313
 Alpha  occ. eigenvalues --   -0.68188  -0.68070  -0.67953  -0.65578  -0.64250
 Alpha  occ. eigenvalues --   -0.62521  -0.61438  -0.60689  -0.59324  -0.59049
 Alpha  occ. eigenvalues --   -0.56827  -0.55499  -0.54098  -0.52437  -0.47844
 Alpha  occ. eigenvalues --   -0.46155  -0.43284
 Alpha virt. eigenvalues --   -0.26132  -0.14713  -0.14005  -0.12730  -0.11203
 Alpha virt. eigenvalues --   -0.10100  -0.09288  -0.07940  -0.07867  -0.07494
 Alpha virt. eigenvalues --   -0.07219  -0.07118  -0.05651  -0.05565  -0.05366
 Alpha virt. eigenvalues --   -0.03871  -0.03682  -0.03262  -0.03133  -0.02147
 Alpha virt. eigenvalues --   -0.01327  -0.00987   0.00181   0.00575   0.00649
 Alpha virt. eigenvalues --    0.01075   0.01492   0.01933   0.02091   0.02302
 Alpha virt. eigenvalues --    0.02449   0.02678   0.02848   0.03177   0.03489
 Alpha virt. eigenvalues --    0.04201   0.04495   0.04748   0.05051   0.05409
 Alpha virt. eigenvalues --    0.06019   0.06289   0.06563   0.07071   0.07284
 Alpha virt. eigenvalues --    0.07915   0.08039   0.08346   0.08715   0.08883
 Alpha virt. eigenvalues --    0.09428   0.09586   0.09888   0.10760   0.10923
 Alpha virt. eigenvalues --    0.11135   0.12017   0.12253   0.12529   0.13038
 Alpha virt. eigenvalues --    0.13527   0.13535   0.13970   0.14216   0.15692
 Alpha virt. eigenvalues --    0.16336   0.16530   0.17312   0.17346   0.17743
 Alpha virt. eigenvalues --    0.18099   0.19088   0.19408   0.19781   0.20133
 Alpha virt. eigenvalues --    0.21497   0.21636   0.22601   0.23194   0.23611
 Alpha virt. eigenvalues --    0.24068   0.24496   0.25439   0.26978   0.27608
 Alpha virt. eigenvalues --    0.28888   0.29309   0.29965   0.31356   0.35806
 Alpha virt. eigenvalues --    0.36511   0.38229   0.39272   0.40913   0.41138
 Alpha virt. eigenvalues --    0.41974   0.41979   0.43001   0.43709   0.44484
 Alpha virt. eigenvalues --    0.44812   0.45146   0.45860   0.46457   0.47820
 Alpha virt. eigenvalues --    0.48259   0.48704   0.49052   0.50659   0.51058
 Alpha virt. eigenvalues --    0.51158   0.52165   0.52307   0.52695   0.54168
 Alpha virt. eigenvalues --    0.54284   0.54614   0.55573   0.56157   0.57604
 Alpha virt. eigenvalues --    0.58219   0.59148   0.61582   0.62268   0.62472
 Alpha virt. eigenvalues --    0.63128   0.63473   0.64858   0.65239   0.67769
 Alpha virt. eigenvalues --    0.70158   0.70392   0.71413   0.72645   0.73030
 Alpha virt. eigenvalues --    0.75464   0.76054   0.76451   0.76745   0.77152
 Alpha virt. eigenvalues --    0.77908   0.78170   0.78369   0.79974   0.80383
 Alpha virt. eigenvalues --    0.81208   0.81600   0.82650   0.82997   0.85370
 Alpha virt. eigenvalues --    0.87039   0.87862   0.88266   0.89411   0.90724
 Alpha virt. eigenvalues --    0.91062   0.91611   0.93388   0.94608   0.96275
 Alpha virt. eigenvalues --    0.97023   1.00086   1.01353   1.01441   1.02947
 Alpha virt. eigenvalues --    1.02995   1.03345   1.04998   1.06549   1.09001
 Alpha virt. eigenvalues --    1.19680   1.22768   1.23503   1.24263   1.28867
 Alpha virt. eigenvalues --    1.29666   1.32414   1.34219   1.35811   1.35977
 Alpha virt. eigenvalues --    1.39309   1.39502   1.40687   1.42790   1.43412
 Alpha virt. eigenvalues --    1.43466   1.44267   1.46345   1.46589   1.47018
 Alpha virt. eigenvalues --    1.47796   1.48439   1.51906   1.53707   1.55638
 Alpha virt. eigenvalues --    1.55829   1.56401   1.56663   1.57872   1.61526
 Alpha virt. eigenvalues --    1.62640   1.63418   1.64452   1.66053   1.68214
 Alpha virt. eigenvalues --    1.68490   1.68703   1.69913   1.74493   1.76072
 Alpha virt. eigenvalues --    1.77157   1.78244   1.79414   1.79810   1.81539
 Alpha virt. eigenvalues --    1.82629   1.83161   1.83487   1.83897   1.84292
 Alpha virt. eigenvalues --    1.84849   1.85323   1.86654   1.88514   1.91500
 Alpha virt. eigenvalues --    1.92340   1.93866   1.95676   1.97904   1.98205
 Alpha virt. eigenvalues --    1.99845   2.02436   2.04816   2.07375   2.11649
 Alpha virt. eigenvalues --    2.12395   2.14547   2.15354   2.19116   2.21318
 Alpha virt. eigenvalues --    2.22714   2.28250   2.30500   2.34225   2.34723
 Alpha virt. eigenvalues --    2.36413   2.38507   2.39789   2.42332   2.44260
 Alpha virt. eigenvalues --    2.46036   2.46553   2.49102   2.53099   2.53872
 Alpha virt. eigenvalues --    2.54459   2.56907   2.58051   2.58548   2.59285
 Alpha virt. eigenvalues --    2.60058   2.61525   2.62105   2.63615   2.63686
 Alpha virt. eigenvalues --    2.64899   2.65040   2.65084   2.65713   2.68008
 Alpha virt. eigenvalues --    2.68407   2.70898   2.71529   2.73449   2.74794
 Alpha virt. eigenvalues --    2.76278   2.77979   2.79569   2.83396   2.83631
 Alpha virt. eigenvalues --    2.84929   2.86288   2.92163   2.97181   2.99413
 Alpha virt. eigenvalues --    3.00212   3.04969   3.08133   3.10982   3.14911
 Alpha virt. eigenvalues --    3.19832   3.20999   3.25511   3.29041   3.31371
 Alpha virt. eigenvalues --    3.32883   3.35605   3.44824   3.46736   3.47145
 Alpha virt. eigenvalues --    3.48655   3.50142   3.56650   3.65327   3.67340
 Alpha virt. eigenvalues --    3.68424   3.93290   3.93714   3.95138   3.96588
 Alpha virt. eigenvalues --    4.03927   4.06165   4.07575   4.12384   4.34990
 Alpha virt. eigenvalues --    4.60492   4.68371   4.70591  23.45008  23.59589
 Alpha virt. eigenvalues --   23.77427  23.79846  23.82876  23.89349  23.91785
 Alpha virt. eigenvalues --   23.95599  23.95906  23.99259  24.06547  24.11075
 Alpha virt. eigenvalues --   24.12590  24.17502
          Condensed to atoms (all electrons):
               1          2          3          4          5          6
     1  C    8.287335   0.558636  -0.657745   1.695762  -0.007758  -0.081045
     2  C    0.558636   7.236247   0.474827  -1.029623  -0.046665  -0.014140
     3  C   -0.657745   0.474827   6.671196   0.706097  -0.108891   0.016884
     4  C    1.695762  -1.029623   0.706097  11.962563  -0.384942  -0.149729
     5  C   -0.007758  -0.046665  -0.108891  -0.384942  10.324083   0.864977
     6  C   -0.081045  -0.014140   0.016884  -0.149729   0.864977   6.606139
     7  C   -0.036210  -0.001042  -0.013616   0.029558  -1.187702   0.145817
     8  C    0.407007  -0.000417  -0.110305  -0.092078   2.288387  -0.333470
     9  C   -1.110988  -0.921865   0.291122   0.176024  -0.485847   0.303961
    10  C   -1.169772   0.133266  -0.233577  -2.841351  -2.308966  -0.492031
    11  C    0.390322  -0.709179   0.790383  -0.481536  -1.363477  -0.050296
    12  C   -1.767575   0.961625  -1.378821  -1.719193  -0.134187  -0.359164
    13  C    0.236480  -0.198345  -0.277596  -1.645145  -0.187729   1.240957
    14  C   -1.234860  -0.322566  -0.055238  -0.617633  -1.589238  -1.568668
    15  H    0.366376  -0.104824  -0.004507   0.024851   0.006537   0.001223
    16  H   -0.019564   0.381928  -0.022654   0.018731  -0.001699  -0.000357
    17  H   -0.016870  -0.024963   0.383280  -0.069018   0.000089   0.000409
    18  H    0.046583   0.002944  -0.083859   0.478630   0.005756  -0.005153
    19  H   -0.041712  -0.007324   0.049838  -0.094178  -0.054012   0.053545
    20  H    0.006666   0.002028  -0.005322   0.006403   0.447316  -0.083864
    21  H   -0.001241  -0.000414   0.000394   0.000448  -0.066082   0.364960
    22  H    0.000242   0.000291  -0.000300  -0.001258   0.009247  -0.011496
    23  H    0.007237  -0.002089   0.001007   0.003975   0.029166   0.003825
    24  H    0.039481   0.016368  -0.001289  -0.011207  -0.013107  -0.001767
    25  H    0.039481   0.016368  -0.001289  -0.011207  -0.013107  -0.001767
               7          8          9         10         11         12
     1  C   -0.036210   0.407007  -1.110988  -1.169772   0.390322  -1.767575
     2  C   -0.001042  -0.000417  -0.921865   0.133266  -0.709179   0.961625
     3  C   -0.013616  -0.110305   0.291122  -0.233577   0.790383  -1.378821
     4  C    0.029558  -0.092078   0.176024  -2.841351  -0.481536  -1.719193
     5  C   -1.187702   2.288387  -0.485847  -2.308966  -1.363477  -0.134187
     6  C    0.145817  -0.333470   0.303961  -0.492031  -0.050296  -0.359164
     7  C    7.220361  -0.086053  -0.765316   0.395348  -0.354980  -0.021729
     8  C   -0.086053   9.093064  -1.166588  -1.411543   0.270654  -0.976766
     9  C   -0.765316  -1.166588   9.705828   0.222334   1.567290  -2.279799
    10  C    0.395348  -1.411543   0.222334   9.133583  -0.234193   2.386874
    11  C   -0.354980   0.270654   1.567290  -0.234193  14.783914  -4.223340
    12  C   -0.021729  -0.976766  -2.279799   2.386874  -4.223340  16.595194
    13  C   -1.110078   0.316236   1.448502  -0.663596   1.053413  -4.615091
    14  C    1.919518  -2.705826  -1.556769   2.545167  -4.886571   3.050118
    15  H   -0.002980   0.004635   0.087543  -0.007043  -0.032854  -0.005504
    16  H    0.000415   0.001220   0.002272  -0.010578   0.026704  -0.032146
    17  H   -0.000370  -0.001422  -0.004231   0.018827  -0.020519   0.077812
    18  H    0.002202   0.007142  -0.020714   0.003019  -0.010086  -0.045620
    19  H   -0.008993  -0.048767   0.073724   0.420841   0.077364  -0.107582
    20  H    0.002416   0.054444  -0.027090   0.018669  -0.012505  -0.001465
    21  H   -0.001663  -0.037092  -0.006807   0.021079  -0.006211   0.004999
    22  H    0.373408  -0.016941   0.003206  -0.007785   0.001795  -0.006739
    23  H   -0.110810   0.370885   0.095637  -0.011915   0.011267   0.002986
    24  H    0.012037   0.024774   0.356606   0.005508   0.029616  -0.059371
    25  H    0.012037   0.024774   0.356606   0.005508   0.029616  -0.059371
              13         14         15         16         17         18
     1  C    0.236480  -1.234860   0.366376  -0.019564  -0.016870   0.046583
     2  C   -0.198345  -0.322566  -0.104824   0.381928  -0.024963   0.002944
     3  C   -0.277596  -0.055238  -0.004507  -0.022654   0.383280  -0.083859
     4  C   -1.645145  -0.617633   0.024851   0.018731  -0.069018   0.478630
     5  C   -0.187729  -1.589238   0.006537  -0.001699   0.000089   0.005756
     6  C    1.240957  -1.568668   0.001223  -0.000357   0.000409  -0.005153
     7  C   -1.110078   1.919518  -0.002980   0.000415  -0.000370   0.002202
     8  C    0.316236  -2.705826   0.004635   0.001220  -0.001422   0.007142
     9  C    1.448502  -1.556769   0.087543   0.002272  -0.004231  -0.020714
    10  C   -0.663596   2.545167  -0.007043  -0.010578   0.018827   0.003019
    11  C    1.053413  -4.886571  -0.032854   0.026704  -0.020519  -0.010086
    12  C   -4.615091   3.050118  -0.005504  -0.032146   0.077812  -0.045620
    13  C   14.214584  -3.230769  -0.005735   0.003911  -0.006357  -0.012904
    14  C   -3.230769  15.805630   0.008102  -0.011194   0.005406  -0.029538
    15  H   -0.005735   0.008102   0.431868  -0.008542   0.001636   0.000277
    16  H    0.003911  -0.011194  -0.008542   0.412670  -0.006961   0.002034
    17  H   -0.006357   0.005406   0.001636  -0.006961   0.419239  -0.010293
    18  H   -0.012904  -0.029538   0.000277   0.002034  -0.010293   0.447593
    19  H    0.087805  -0.025258   0.000436  -0.000589   0.001792  -0.005830
    20  H   -0.002064  -0.069932  -0.000129   0.000021  -0.000173   0.001267
    21  H   -0.031159   0.103512   0.000018  -0.000007   0.000010  -0.000116
    22  H    0.023666  -0.029765  -0.000124   0.000007  -0.000007   0.000011
    23  H   -0.030271  -0.044330   0.000557  -0.000130   0.000010  -0.000104
    24  H   -0.003558  -0.058728  -0.000990   0.000611  -0.000131   0.000127
    25  H   -0.003558  -0.058728  -0.000990   0.000611  -0.000131   0.000127
              19         20         21         22         23         24
     1  C   -0.041712   0.006666  -0.001241   0.000242   0.007237   0.039481
     2  C   -0.007324   0.002028  -0.000414   0.000291  -0.002089   0.016368
     3  C    0.049838  -0.005322   0.000394  -0.000300   0.001007  -0.001289
     4  C   -0.094178   0.006403   0.000448  -0.001258   0.003975  -0.011207
     5  C   -0.054012   0.447316  -0.066082   0.009247   0.029166  -0.013107
     6  C    0.053545  -0.083864   0.364960  -0.011496   0.003825  -0.001767
     7  C   -0.008993   0.002416  -0.001663   0.373408  -0.110810   0.012037
     8  C   -0.048767   0.054444  -0.037092  -0.016941   0.370885   0.024774
     9  C    0.073724  -0.027090  -0.006807   0.003206   0.095637   0.356606
    10  C    0.420841   0.018669   0.021079  -0.007785  -0.011915   0.005508
    11  C    0.077364  -0.012505  -0.006211   0.001795   0.011267   0.029616
    12  C   -0.107582  -0.001465   0.004999  -0.006739   0.002986  -0.059371
    13  C    0.087805  -0.002064  -0.031159   0.023666  -0.030271  -0.003558
    14  C   -0.025258  -0.069932   0.103512  -0.029765  -0.044330  -0.058728
    15  H    0.000436  -0.000129   0.000018  -0.000124   0.000557  -0.000990
    16  H   -0.000589   0.000021  -0.000007   0.000007  -0.000130   0.000611
    17  H    0.001792  -0.000173   0.000010  -0.000007   0.000010  -0.000131
    18  H   -0.005830   0.001267  -0.000116   0.000011  -0.000104   0.000127
    19  H    0.445180  -0.007136   0.001090  -0.000500   0.000224   0.000599
    20  H   -0.007136   0.460218  -0.010021   0.001850  -0.000029   0.000241
    21  H    0.001090  -0.010021   0.424653  -0.005860   0.001244  -0.000151
    22  H   -0.000500   0.001850  -0.005860   0.425252  -0.009117   0.000641
    23  H    0.000224  -0.000029   0.001244  -0.009117   0.447494  -0.000750
    24  H    0.000599   0.000241  -0.000151   0.000641  -0.000750   0.492605
    25  H    0.000599   0.000241  -0.000151   0.000641  -0.000750  -0.078940
              25
     1  C    0.039481
     2  C    0.016368
     3  C   -0.001289
     4  C   -0.011207
     5  C   -0.013107
     6  C   -0.001767
     7  C    0.012037
     8  C    0.024774
     9  C    0.356606
    10  C    0.005508
    11  C    0.029616
    12  C   -0.059371
    13  C   -0.003558
    14  C   -0.058728
    15  H   -0.000990
    16  H    0.000611
    17  H   -0.000131
    18  H    0.000127
    19  H    0.000599
    20  H    0.000241
    21  H   -0.000151
    22  H    0.000641
    23  H   -0.000750
    24  H   -0.078940
    25  H    0.492605
 Mulliken charges:
               1
     1  C    0.063731
     2  C   -0.401069
     3  C   -0.430018
     4  C    0.045055
     5  C   -0.022149
     6  C   -0.449752
     7  C   -0.411571
     8  C    0.124046
     9  C   -0.344640
    10  C    0.082330
    11  C   -0.646591
    12  C    0.713854
    13  C   -0.601599
    14  C    0.658157
    15  H    0.240164
    16  H    0.263284
    17  H    0.252935
    18  H    0.226503
    19  H    0.188845
    20  H    0.217951
    21  H    0.244567
    22  H    0.249633
    23  H    0.234782
    24  H    0.250776
    25  H    0.250776
 Sum of Mulliken charges =   1.00000
 Mulliken charges with hydrogens summed into heavy atoms:
               1
     1  C    0.303895
     2  C   -0.137785
     3  C   -0.177083
     4  C    0.271558
     5  C    0.195803
     6  C   -0.205184
     7  C   -0.161938
     8  C    0.358828
     9  C    0.156911
    10  C    0.271175
    11  C   -0.646591
    12  C    0.713854
    13  C   -0.601599
    14  C    0.658157
 Electronic spatial extent (au):  <R**2>=           2856.1966
 Charge=              1.0000 electrons
 Dipole moment (field-independent basis, Debye):
    X=             -0.5753    Y=             -1.4089    Z=              0.0000  Tot=              1.5219
 Quadrupole moment (field-independent basis, Debye-Ang):
   XX=            -51.1613   YY=            -36.0103   ZZ=            -84.1148
   XY=             10.2227   XZ=             -0.0000   YZ=              0.0000
 Traceless Quadrupole moment (field-independent basis, Debye-Ang):
   XX=              5.9342   YY=             21.0851   ZZ=            -27.0193
   XY=             10.2227   XZ=             -0.0000   YZ=              0.0000
 Octapole moment (field-independent basis, Debye-Ang**2):
  XXX=             -4.9454  YYY=             -8.0766  ZZZ=             -0.0000  XYY=             -4.5612
  XXY=             -9.5476  XXZ=              0.0000  XZZ=             -3.7990  YZZ=             -0.5799
  YYZ=              0.0000  XYZ=             -0.0000
 Hexadecapole moment (field-independent basis, Debye-Ang**3):
 XXXX=           -977.3161 YYYY=          -1859.4916 ZZZZ=            -99.2857 XXXY=           -343.1746
 XXXZ=             -0.0000 YYYX=           -269.6642 YYYZ=              0.0000 ZZZX=             -0.0000
 ZZZY=              0.0000 XXYY=           -453.6948 XXZZ=           -239.0253 YYZZ=           -497.1722
 XXYZ=              0.0000 YYXZ=             -0.0000 ZZXY=           -181.0906
 N-N= 7.813174996325D+02 E-N=-2.799017210579D+03  KE= 5.375689016935D+02
 Symmetry A'   KE= 5.229067182114D+02
 Symmetry A"   KE= 1.466218348209D+01
 Unable to Open any file for archive entry.
 1\1\GINC-GADI-CPU-CLX-1834\SP\RM062X TD-FC\6-311++G(d,p)\C14H11(1+)\TS
 1578\27-Jul-2022\0\\#n M062X/6-311++G(d,p) TD(NStates=1) EmpiricalDisp
 ersion=GD3 SP\\SP_20\\1,1\C,0,0.,2.460655,1.360431\C,0,0.,3.665508,0.6
 55989\C,0,0.,3.665861,-0.74583\C,0,0.,2.503156,-1.423538\C,0,0.,-2.423
 156,-1.391538\C,0,0.,-3.701861,-0.68183\C,0,0.,-3.737508,0.687989\C,0,
 0.,-2.524655,1.360431\C,0,0.,-0.016,1.453369\C,0,0.,0.058,-1.429189\C,
 0,0.,1.280055,0.699065\C,0,0.,1.255471,-0.732804\C,0,0.,-1.244055,0.65
 5065\C,0,0.,-1.219471,-0.728804\H,0,0.,2.478071,2.443647\H,0,0.,4.6007
 53,1.197689\H,0,0.,4.607262,-1.276349\H,0,0.,2.48555,-2.506059\H,0,0.,
 0.05,-2.510266\H,0,0.,-2.44955,-2.474059\H,0,0.,-4.611262,-1.268349\H,
 0,0.,-4.672753,1.225689\H,0,0.,-2.498071,2.443647\H,0,-0.859585,-0.088
 ,2.145787\H,0,0.859585,-0.088,2.145787\\Version=ES64L-G16RevC.01\State
 =1-A'\HF=-539.7462642\RMSD=3.994e-09\PG=CS [SG(C14H9),X(H2)]\\@
 The archive entry for this job was punched.


 CLIMB THE MOUNTAINS AND GET THEIR GOOD TIDINGS.
 NATURE'S PEACE WILL FLOW INTO YOU AS SUNSHINE FLOWS INTO TREES.
 THE WINDS WILL BLOW THEIR OWN FRESHNESS INTO YOU, 
 AND CARES WILL DROP OFF LIKE AUTUMN LEAVES.

                                         -- JOHN MUIR
 Job cpu time:       0 days  0 hours 39 minutes 28.8 seconds.
 Elapsed time:       0 days  0 hours  2 minutes 50.2 seconds.
 File lengths (MBytes):  RWF=    460 Int=      0 D2E=      0 Chk=     15 Scr=      1
 Normal termination of Gaussian 16 at Wed Jul 27 12:52:58 2022.
