 Entering Gaussian System, Link 0=g16
 Initial command:
 /apps/gaussian/g16c01/g16/l1.exe "/jobfs/52819071.gadi-pbs/Gau-726079.inp" -scrdir="/jobfs/52819071.gadi-pbs/"
 Entering Link 1 = /apps/gaussian/g16c01/g16/l1.exe PID=    726080.
  
 Copyright (c) 1988-2019, Gaussian, Inc.  All Rights Reserved.
  
 This is part of the Gaussian(R) 16 program.  It is based on
 the Gaussian(R) 09 system (copyright 2009, Gaussian, Inc.),
 the Gaussian(R) 03 system (copyright 2003, Gaussian, Inc.),
 the Gaussian(R) 98 system (copyright 1998, Gaussian, Inc.),
 the Gaussian(R) 94 system (copyright 1995, Gaussian, Inc.),
 the Gaussian 92(TM) system (copyright 1992, Gaussian, Inc.),
 the Gaussian 90(TM) system (copyright 1990, Gaussian, Inc.),
 the Gaussian 88(TM) system (copyright 1988, Gaussian, Inc.),
 the Gaussian 86(TM) system (copyright 1986, Carnegie Mellon
 University), and the Gaussian 82(TM) system (copyright 1983,
 Carnegie Mellon University). Gaussian is a federally registered
 trademark of Gaussian, Inc.
  
 This software contains proprietary and confidential information,
 including trade secrets, belonging to Gaussian, Inc.
  
 This software is provided under written license and may be
 used, copied, transmitted, or stored only in accord with that
 written license.
  
 The following legend is applicable only to US Government
 contracts under FAR:
  
                    RESTRICTED RIGHTS LEGEND
  
 Use, reproduction and disclosure by the US Government is
 subject to restrictions as set forth in subparagraphs (a)
 and (c) of the Commercial Computer Software - Restricted
 Rights clause in FAR 52.227-19.
  
 Gaussian, Inc.
 340 Quinnipiac St., Bldg. 40, Wallingford CT 06492
  
  
 ---------------------------------------------------------------
 Warning -- This program may not be used in any manner that
 competes with the business of Gaussian, Inc. or will provide
 assistance to any competitor of Gaussian, Inc.  The licensee
 of this program is prohibited from giving any competitor of
 Gaussian, Inc. access to this program.  By using this program,
 the user acknowledges that Gaussian, Inc. is engaged in the
 business of creating and licensing software in the field of
 computational chemistry and represents and warrants to the
 licensee that it is not a competitor of Gaussian, Inc. and that
 it will not use this program in any manner prohibited above.
 ---------------------------------------------------------------
  

 Cite this work as:
 Gaussian 16, Revision C.01,
 M. J. Frisch, G. W. Trucks, H. B. Schlegel, G. E. Scuseria, 
 M. A. Robb, J. R. Cheeseman, G. Scalmani, V. Barone, 
 G. A. Petersson, H. Nakatsuji, X. Li, M. Caricato, A. V. Marenich, 
 J. Bloino, B. G. Janesko, R. Gomperts, B. Mennucci, H. P. Hratchian, 
 J. V. Ortiz, A. F. Izmaylov, J. L. Sonnenberg, D. Williams-Young, 
 F. Ding, F. Lipparini, F. Egidi, J. Goings, B. Peng, A. Petrone, 
 T. Henderson, D. Ranasinghe, V. G. Zakrzewski, J. Gao, N. Rega, 
 G. Zheng, W. Liang, M. Hada, M. Ehara, K. Toyota, R. Fukuda, 
 J. Hasegawa, M. Ishida, T. Nakajima, Y. Honda, O. Kitao, H. Nakai, 
 T. Vreven, K. Throssell, J. A. Montgomery, Jr., J. E. Peralta, 
 F. Ogliaro, M. J. Bearpark, J. J. Heyd, E. N. Brothers, K. N. Kudin, 
 V. N. Staroverov, T. A. Keith, R. Kobayashi, J. Normand, 
 K. Raghavachari, A. P. Rendell, J. C. Burant, S. S. Iyengar, 
 J. Tomasi, M. Cossi, J. M. Millam, M. Klene, C. Adamo, R. Cammi, 
 J. W. Ochterski, R. L. Martin, K. Morokuma, O. Farkas, 
 J. B. Foresman, and D. J. Fox, Gaussian, Inc., Wallingford CT, 2019.
 
 ******************************************
 Gaussian 16:  ES64L-G16RevC.01  3-Jul-2019
                27-Jul-2022 
 ******************************************
 %NProcShared=16
 Will use up to   16 processors via shared memory.
 %mem = 64GB
 ---------------------------------------------------------------
 #n M062X/6-311++G(d,p) TD(NStates=1) EmpiricalDispersion=GD3 SP
 ---------------------------------------------------------------
 1/38=1,172=1/1;
 2/12=2,17=6,18=5,40=1/2;
 3/5=4,6=6,7=1111,11=9,25=1,30=1,74=-55,124=31/1,2,3,8;
 4//1;
 5/5=2,38=5/2;
 8/6=1,10=2,108=1/1;
 9/41=1,42=1,70=2/14;
 6/7=2,8=2,9=2,10=2/1;
 99/5=1,9=1/99;
 ------
 SP_-12
 ------
 Symbolic Z-matrix:
 Charge =  1 Multiplicity = 1
 C                     0.        2.51186   1.36043 
 C                     0.        3.72311   0.68159 
 C                     0.        3.69466  -0.69463 
 C                     0.        2.43916  -1.39794 
 C                     0.       -2.48716  -1.41714 
 C                     0.       -3.67306  -0.73303 
 C                     0.       -3.67991   0.66239 
 C                     0.       -2.47346   1.36043 
 C                     0.        0.0096    1.45337 
 C                     0.       -0.0348   -1.42919 
 C                     0.        1.25126   0.66387 
 C                     0.        1.22667  -0.7296 
 C                     0.       -1.27286   0.69027 
 C                     0.       -1.24827  -0.732 
 H                     0.        2.49407   2.44365 
 H                     0.        4.65835   1.22009 
 H                     0.        4.61046  -1.26995 
 H                     0.        2.45675  -2.48046 
 H                     0.       -0.03     -2.51027 
 H                     0.       -2.47835  -2.49966 
 H                     0.       -4.60806  -1.27475 
 H                     0.       -4.61515   1.20329 
 H                     0.       -2.48207   2.44365 
 H                    -0.85959   0.0528    2.14579 
 H                     0.85959   0.0528    2.14579 
 
                          Input orientation:                          
 ---------------------------------------------------------------------
 Center     Atomic      Atomic             Coordinates (Angstroms)
 Number     Number       Type             X           Y           Z
 ---------------------------------------------------------------------
      1          6           0        0.000000    2.511855    1.360431
      2          6           0        0.000000    3.723108    0.681589
      3          6           0        0.000000    3.694661   -0.694630
      4          6           0        0.000000    2.439156   -1.397938
      5          6           0        0.000000   -2.487156   -1.417138
      6          6           0        0.000000   -3.673061   -0.733030
      7          6           0        0.000000   -3.679908    0.662389
      8          6           0        0.000000   -2.473455    1.360431
      9          6           0        0.000000    0.009600    1.453369
     10          6           0        0.000000   -0.034800   -1.429189
     11          6           0        0.000000    1.251255    0.663865
     12          6           0        0.000000    1.226671   -0.729604
     13          6           0        0.000000   -1.272855    0.690265
     14          6           0        0.000000   -1.248271   -0.732004
     15          1           0        0.000000    2.494071    2.443647
     16          1           0        0.000000    4.658353    1.220089
     17          1           0        0.000000    4.610462   -1.269949
     18          1           0        0.000000    2.456750   -2.480459
     19          1           0        0.000000   -0.030000   -2.510266
     20          1           0        0.000000   -2.478350   -2.499659
     21          1           0        0.000000   -4.608062   -1.274749
     22          1           0        0.000000   -4.615153    1.203289
     23          1           0        0.000000   -2.482071    2.443647
     24          1           0       -0.859585    0.052800    2.145787
     25          1           0        0.859585    0.052800    2.145787
 ---------------------------------------------------------------------
                    Distance matrix (angstroms):
                    1          2          3          4          5
     1  C    0.000000
     2  C    1.388510   0.000000
     3  C    2.371140   1.376513   0.000000
     4  C    2.759327   2.443965   1.439074   0.000000
     5  C    5.718829   6.555306   6.223896   4.926349   0.000000
     6  C    6.529607   7.530237   7.367822   6.148276   1.369078
     7  C    6.230986   7.403041   7.498384   6.456616   2.397309
     8  C    4.985310   6.233636   6.501456   5.634035   2.777603
     9  C    2.503980   3.792860   4.265393   3.746024   3.804419
    10  C    3.777225   4.310134   3.801113   2.474153   2.452386
    11  C    1.440249   2.471917   2.795665   2.379525   4.278585
    12  C    2.453557   2.867693   2.468238   1.384482   3.776932
    13  C    3.843586   4.995971   5.156952   4.259063   2.432216
    14  C    4.303119   5.168448   4.943073   3.747077   1.415713
    15  H    1.083362   2.148344   3.360089   3.841977   6.302244
    16  H    2.151081   1.079197   2.143560   3.432040   7.616644
    17  H    3.364974   2.143804   1.081519   2.175075   7.099144
    18  H    3.841285   3.406202   2.172926   1.082664   5.056961
    19  H    4.630693   4.926841   4.143626   2.708137   2.689339
    20  H    6.308918   6.969822   6.431500   5.039410   1.082557
    21  H    7.591929   8.557783   8.322965   7.048295   2.125680
    22  H    7.128740   8.354566   8.523796   7.518621   3.375649
    23  H    5.110054   6.450511   6.928261   6.243096   3.860788
    24  H    2.720776   4.043998   4.697873   4.357932   4.459226
    25  H    2.720776   4.043998   4.697873   4.357932   4.459226
                    6          7          8          9         10
     6  C    0.000000
     7  C    1.395436   0.000000
     8  C    2.412806   1.393841   0.000000
     9  C    4.282795   3.773343   2.484794   0.000000
    10  C    3.704265   4.202560   3.705269   2.882900   0.000000
    11  C    5.118613   4.931163   3.789283   1.471402   2.456586
    12  C    4.899733   5.100212   4.249609   2.499326   1.442473
    13  C    2.790476   2.407214   1.374977   1.492320   2.454560
    14  C    2.424790   2.803068   2.424739   2.521526   1.399492
    15  H    6.937204   6.425799   5.084257   2.674555   4.625370
    16  H    8.557285   8.356891   7.133189   4.654602   5.389282
    17  H    8.300906   8.512589   7.556506   5.346437   4.647991
    18  H    6.374017   6.894640   6.249749   4.632877   2.704254
    19  H    4.053451   4.836069   4.577419   3.963833   1.081088
    20  H    2.132677   3.382645   3.860093   4.670795   2.667741
    21  H    1.080595   2.148016   3.391271   5.363341   4.575869
    22  H    2.153339   1.080396   2.147455   4.631510   5.282951
    23  H    3.392600   2.146554   1.083250   2.681245   4.581266
    24  H    4.786284   4.107611   2.781660   1.104625   3.677909
    25  H    4.786284   4.107611   2.781660   1.104625   3.677909
                   11         12         13         14         15
    11  C    0.000000
    12  C    1.393686   0.000000
    13  C    2.524248   2.874658   0.000000
    14  C    2.862880   2.474943   1.422481   0.000000
    15  H    2.170764   3.416991   4.155007   4.908145   0.000000
    16  H    3.452202   3.946865   5.954825   6.220842   2.486204
    17  H    3.876069   3.426662   6.201279   5.883378   4.274331
    18  H    3.367490   2.139763   4.895247   4.096862   4.924247
    19  H    3.422970   2.179445   3.433378   2.155551   5.559873
    20  H    4.890587   4.106127   3.410108   2.153532   7.011508
    21  H    6.171695   5.860144   3.871032   3.403347   8.016655
    22  H    5.891156   6.153290   3.381442   3.883459   7.216617
    23  H    4.135861   4.881013   2.129918   3.406908   4.976142
    24  H    2.090759   3.222535   2.148207   3.273126   2.605266
    25  H    2.090759   3.222535   2.148207   3.273126   2.605266
                   16         17         18         19         20
    16  H    0.000000
    17  H    2.490499   0.000000
    18  H    4.305939   2.470589   0.000000
    19  H    5.991344   4.803361   2.486929   0.000000
    20  H    8.047922   7.194682   4.935137   2.448373   0.000000
    21  H    9.596388   9.218525   7.166959   4.741851   2.456843
    22  H    9.273521   9.551381   7.973820   5.900349   4.275249
    23  H    7.244498   8.005924   6.974150   5.527559   4.943307
    24  H    4.775659   5.760071   5.283939   4.735459   5.359643
    25  H    4.775659   5.760071   5.283939   4.735459   5.359643
                   21         22         23         24         25
    21  H    0.000000
    22  H    2.478048   0.000000
    23  H    4.283259   2.467494   0.000000
    24  H    5.844877   4.839109   2.693172   0.000000
    25  H    5.844877   4.839109   2.693172   1.719170   0.000000
 Stoichiometry    C14H11(1+)
 Framework group  CS[SG(C14H9),X(H2)]
 Deg. of freedom    46
 Full point group                 CS      NOp   2
 Largest Abelian subgroup         CS      NOp   2
 Largest concise Abelian subgroup CS      NOp   2
                         Standard orientation:                         
 ---------------------------------------------------------------------
 Center     Atomic      Atomic             Coordinates (Angstroms)
 Number     Number       Type             X           Y           Z
 ---------------------------------------------------------------------
      1          6           0        0.024345    2.856201    0.000000
      2          6           0       -1.143097    3.607892    0.000000
      3          6           0       -2.345397    2.937622    0.000000
      4          6           0       -2.378086    1.498919    0.000000
      5          6           0       -0.085693   -2.861569    0.000000
      6          6           0        1.074517   -3.588402    0.000000
      7          6           0        2.310322   -2.940307    0.000000
      8          6           0        2.361353   -1.547401    0.000000
      9          6           0        1.279443    0.689487    0.000000
     10          6           0       -1.245951   -0.701014    0.000000
     11          6           0        0.000000    1.416158    0.000000
     12          6           0       -1.219348    0.741213    0.000000
     13          6           0        1.206569   -0.801052    0.000000
     14          6           0       -0.061267   -1.446066    0.000000
     15          1           0        0.989503    3.348281    0.000000
     16          1           0       -1.105855    4.686446    0.000000
     17          1           0       -3.282894    3.476866    0.000000
     18          1           0       -3.342541    1.006997    0.000000
     19          1           0       -2.203134   -1.203561    0.000000
     20          1           0       -1.046029   -3.361254    0.000000
     21          1           0        1.034317   -4.668249    0.000000
     22          1           0        3.226531   -3.512861    0.000000
     23          1           0        3.322214   -1.047223    0.000000
     24          1           0        1.870815    1.052238    0.859585
     25          1           0        1.870815    1.052238   -0.859585
 ---------------------------------------------------------------------
 Rotational constants (GHZ):           2.1363940           0.4445869           0.3688045
 Standard basis: 6-311++G(d,p) (5D, 7F)
 There are   299 symmetry adapted cartesian basis functions of A'  symmetry.
 There are   100 symmetry adapted cartesian basis functions of A"  symmetry.
 There are   285 symmetry adapted basis functions of A'  symmetry.
 There are   100 symmetry adapted basis functions of A"  symmetry.
   385 basis functions,   603 primitive gaussians,   399 cartesian basis functions
    47 alpha electrons       47 beta electrons
       nuclear repulsion energy       781.2410205763 Hartrees.
 NAtoms=   25 NActive=   25 NUniq=   24 SFac= 1.09D+00 NAtFMM=   60 NAOKFM=F Big=F
 Integral buffers will be    131072 words long.
 Regular integral format.
 Two-electron integral symmetry is turned on.
 Nuclear repulsion after empirical dispersion term =      781.2400413206 Hartrees.
 One-electron integrals computed using PRISM.
 NBasis=   385 RedAO= T EigKep=  1.12D-06  NBF=   285   100
 NBsUse=   379 1.00D-06 EigRej=  8.38D-07 NBFU=   279   100
 ExpMin= 3.60D-02 ExpMax= 4.56D+03 ExpMxC= 6.82D+02 IAcc=3 IRadAn=         5 AccDes= 0.00D+00
 Harris functional with IExCor= 1009 and IRadAn=       5 diagonalized for initial guess.
 HarFok:  IExCor= 1009 AccDes= 0.00D+00 IRadAn=         5 IDoV= 1 UseB2=F ITyADJ=14
 ICtDFT=  3500011 ScaDFX=  1.000000  1.000000  1.000000  1.000000
 FoFCou: FMM=F IPFlag=           0 FMFlag=      100000 FMFlg1=           0
         NFxFlg=           0 DoJE=T BraDBF=F KetDBF=T FulRan=T
         wScrn=  0.000000 ICntrl=       500 IOpCl=  0 I1Cent=   200000004 NGrid=           0
         NMat0=    1 NMatS0=      1 NMatT0=    0 NMatD0=    1 NMtDS0=    0 NMtDT0=    0
 Petite list used in FoFCou.
 Initial guess orbital symmetries:
       Occupied  (A') (A') (A') (A') (A') (A') (A') (A') (A') (A')
                 (A') (A') (A') (A') (A') (A') (A') (A') (A') (A')
                 (A') (A') (A') (A') (A') (A') (A') (A') (A') (A')
                 (A') (A') (A") (A') (A') (A') (A') (A') (A") (A')
                 (A") (A') (A') (A") (A") (A") (A")
       Virtual   (A") (A") (A") (A") (A") (A') (A') (A') (A') (A")
                 (A") (A') (A') (A') (A") (A') (A') (A') (A') (A")
                 (A') (A") (A') (A') (A') (A") (A') (A") (A') (A')
                 (A') (A') (A') (A') (A") (A') (A") (A') (A') (A')
                 (A") (A') (A') (A") (A') (A') (A') (A') (A") (A')
                 (A') (A') (A") (A") (A') (A') (A') (A") (A") (A')
                 (A') (A') (A') (A') (A') (A') (A") (A') (A') (A")
                 (A') (A') (A') (A') (A') (A') (A') (A') (A') (A')
                 (A') (A') (A') (A') (A') (A') (A') (A') (A') (A')
                 (A') (A') (A') (A') (A') (A') (A') (A") (A') (A")
                 (A') (A') (A") (A") (A') (A") (A') (A") (A") (A')
                 (A") (A') (A') (A') (A") (A') (A') (A") (A") (A')
                 (A") (A") (A') (A') (A') (A") (A') (A') (A') (A")
                 (A') (A') (A') (A') (A') (A') (A") (A') (A') (A')
                 (A') (A') (A') (A') (A') (A') (A') (A') (A') (A")
                 (A") (A') (A") (A") (A') (A') (A') (A") (A") (A')
                 (A") (A') (A") (A") (A") (A') (A') (A') (A') (A')
                 (A') (A") (A') (A') (A") (A') (A') (A') (A') (A")
                 (A') (A') (A') (A') (A") (A') (A") (A') (A") (A")
                 (A') (A") (A') (A") (A') (A') (A') (A") (A') (A')
                 (A") (A") (A") (A') (A') (A") (A') (A") (A') (A')
                 (A") (A") (A') (A") (A') (A") (A') (A') (A') (A")
                 (A') (A') (A') (A') (A") (A') (A') (A') (A") (A")
                 (A') (A') (A') (A") (A') (A') (A") (A') (A") (A')
                 (A") (A') (A') (A') (A') (A") (A') (A') (A') (A")
                 (A') (A') (A") (A') (A") (A') (A') (A") (A') (A')
                 (A') (A") (A') (A") (A') (A') (A') (A") (A') (A")
                 (A') (A') (A') (A') (A") (A') (A") (A') (A") (A')
                 (A") (A') (A") (A") (A") (A') (A') (A') (A') (A')
                 (A') (A') (A') (A') (A') (A') (A') (A') (A') (A')
                 (A') (A') (A') (A') (A") (A') (A') (A') (A') (A')
                 (A') (A') (A') (A') (A') (A') (A') (A') (A') (A')
                 (A') (A') (A') (A') (A') (A') (A') (A') (A') (A')
                 (A') (A')
 The electronic state of the initial guess is 1-A'.
 Requested convergence on RMS density matrix=1.00D-08 within 128 cycles.
 Requested convergence on MAX density matrix=1.00D-06.
 Requested convergence on             energy=1.00D-06.
 No special actions if energy rises.
 SCF Done:  E(RM062X) =  -539.755216319     A.U. after   15 cycles
            NFock= 15  Conv=0.91D-08     -V/T= 2.0041
 DoSCS=F DFT=T ScalE2(SS,OS)=  1.000000  1.000000
 ExpMin= 3.60D-02 ExpMax= 4.56D+03 ExpMxC= 6.82D+02 IAcc=3 IRadAn=         5 AccDes= 0.00D+00
 HarFok:  IExCor=  205 AccDes= 0.00D+00 IRadAn=         5 IDoV=-2 UseB2=F ITyADJ=14
 ICtDFT= 12500011 ScaDFX=  1.000000  1.000000  1.000000  1.000000
 Range of M.O.s used for correlation:    15   379
 NBasis=   385 NAE=    47 NBE=    47 NFC=    14 NFV=     0
 NROrb=    365 NOA=    33 NOB=    33 NVA=   332 NVB=   332

 **** Warning!!: The largest alpha MO coefficient is  0.14005217D+03

 Orbital symmetries:
       Occupied  (A') (A') (A') (A') (A') (A') (A') (A') (A') (A')
                 (A') (A') (A') (A') (A') (A') (A') (A') (A') (A')
                 (A') (A') (A') (A') (A') (A') (A') (A') (A') (A')
                 (A') (A") (A') (A') (A') (A') (A') (A") (A") (A')
                 (A') (A') (A') (A") (A") (A") (A")
       Virtual   (A") (A") (A") (A") (A') (A') (A') (A') (A") (A')
                 (A') (A") (A') (A') (A") (A') (A") (A') (A') (A')
                 (A") (A") (A') (A') (A') (A") (A') (A") (A') (A')
                 (A") (A') (A") (A') (A') (A') (A') (A') (A") (A')
                 (A") (A') (A') (A") (A") (A') (A") (A') (A") (A')
                 (A') (A') (A') (A') (A') (A") (A') (A') (A') (A')
                 (A') (A") (A') (A') (A') (A") (A') (A') (A') (A')
                 (A') (A') (A') (A') (A') (A') (A') (A') (A') (A')
                 (A') (A') (A') (A') (A') (A') (A') (A') (A') (A')
                 (A') (A') (A') (A') (A") (A') (A") (A") (A') (A")
                 (A') (A') (A') (A') (A") (A") (A') (A") (A") (A')
                 (A') (A') (A") (A') (A') (A") (A') (A") (A') (A")
                 (A") (A') (A") (A') (A') (A') (A") (A') (A') (A')
                 (A') (A') (A') (A') (A') (A') (A') (A') (A') (A')
                 (A') (A') (A') (A") (A') (A') (A') (A') (A') (A')
                 (A') (A') (A") (A') (A") (A') (A") (A") (A') (A")
                 (A") (A') (A') (A") (A") (A") (A') (A") (A') (A')
                 (A') (A') (A') (A") (A") (A') (A') (A') (A') (A")
                 (A') (A') (A') (A") (A") (A') (A') (A") (A') (A")
                 (A") (A') (A') (A") (A') (A") (A') (A') (A') (A')
                 (A") (A") (A") (A') (A") (A') (A') (A") (A') (A')
                 (A') (A") (A") (A') (A") (A') (A") (A') (A') (A")
                 (A') (A') (A') (A') (A") (A') (A') (A') (A") (A")
                 (A') (A') (A') (A") (A') (A') (A') (A") (A") (A')
                 (A") (A') (A') (A") (A') (A') (A') (A') (A') (A')
                 (A") (A') (A') (A') (A') (A") (A") (A") (A') (A')
                 (A') (A') (A') (A') (A') (A') (A") (A') (A') (A')
                 (A') (A") (A') (A") (A") (A") (A') (A") (A') (A")
                 (A') (A") (A") (A') (A") (A") (A') (A') (A') (A')
                 (A') (A') (A') (A') (A') (A') (A') (A') (A') (A')
                 (A') (A') (A') (A") (A') (A') (A') (A') (A') (A')
                 (A') (A') (A') (A') (A') (A') (A') (A') (A') (A')
                 (A') (A') (A') (A') (A') (A') (A') (A') (A') (A')
                 (A') (A')
     4 initial guesses have been made.
 Convergence on wavefunction:    0.001000000000000
 Iteration     1 Dimension     4 NMult     0 NNew      4
 CISAX will form     4 AO SS matrices at one time.
 Iteration     2 Dimension     6 NMult     4 NNew      2
 Iteration     3 Dimension     8 NMult     6 NNew      2
 Iteration     4 Dimension    10 NMult     8 NNew      2
 Iteration     5 Dimension    12 NMult    10 NNew      2
 Iteration     6 Dimension    14 NMult    12 NNew      2
 ***********************************************************************
 Excited states from <AA,BB:AA,BB> singles matrix:
 ***********************************************************************
 
 Ground to excited state transition densities written to RWF  633
 Ground to excited state transition electric dipole moments (Au):
       state          X           Y           Z        Dip. S.      Osc.
         1         0.4706      0.3114      0.0000      0.3184      0.0210
 Ground to excited state transition velocity dipole moments (Au):
       state          X           Y           Z        Dip. S.      Osc.
         1        -0.0544     -0.0310     -0.0000      0.0039      0.0264
 Ground to excited state transition magnetic dipole moments (Au):
       state          X           Y           Z
         1        -0.0000      0.0000      0.1691
 Ground to excited state transition velocity quadrupole moments (Au):
       state          XX          YY          ZZ          XY          XZ          YZ
         1         0.1413      0.1327     -0.0084     -0.1366     -0.0000      0.0000
 <0|del|b> * <b|rxdel|0> + <0|del|b> * <b|delr+rdel|0>
 Rotatory Strengths (R) in cgs (10**-40 erg-esu-cm/Gauss)
       state          XX          YY          ZZ    R(velocity)    E-M Angle
         1        -0.0000     -0.0000      0.0000      0.0000       90.00
 1/2[<0|r|b>*<b|rxdel|0> + (<0|rxdel|b>*<b|r|0>)*]
 Rotatory Strengths (R) in cgs (10**-40 erg-esu-cm/Gauss)
       state          XX          YY          ZZ     R(length)
         1         0.0000     -0.0000     -0.0000     -0.0000
  1/2[<0|del|b>*<b|r|0> + (<0|r|b>*<b|del|0>)*] (Au)
       state          X           Y           Z        Dip. S.   Osc.(frdel)
         1        -0.0256     -0.0097     -0.0000      0.0353      0.0235

 Excitation energies and oscillator strengths:
 
 Excited State   1:      Singlet-A'     2.6965 eV  459.79 nm  f=0.0210  <S**2>=0.000
      47 -> 48         0.70348
 This state for optimization and/or second-order correction.
 Total Energy, E(TD-HF/TD-DFT) =  -539.656119979    
 Copying the excited state density for this state as the 1-particle RhoCI density.
 SavETr:  write IOETrn=   770 NScale= 10 NData=  16 NLR=1 NState=    1 LETran=      28.

 **********************************************************************

            Population analysis using the SCF Density.

 **********************************************************************

 Orbital symmetries:
       Occupied  (A') (A') (A') (A') (A') (A') (A') (A') (A') (A')
                 (A') (A') (A') (A') (A') (A') (A') (A') (A') (A')
                 (A') (A') (A') (A') (A') (A') (A') (A') (A') (A')
                 (A') (A") (A') (A') (A') (A') (A') (A") (A") (A')
                 (A') (A') (A') (A") (A") (A") (A")
       Virtual   (A") (A") (A") (A") (A') (A') (A') (A') (A") (A')
                 (A') (A") (A') (A') (A") (A') (A") (A') (A') (A')
                 (A") (A") (A') (A') (A') (A") (A') (A") (A') (A')
                 (A") (A') (A") (A') (A') (A') (A') (A') (A") (A')
                 (A") (A') (A') (A") (A") (A') (A") (A') (A") (A')
                 (A') (A') (A') (A') (A') (A") (A') (A') (A') (A')
                 (A') (A") (A') (A') (A') (A") (A') (A') (A') (A')
                 (A') (A') (A') (A') (A') (A') (A') (A') (A') (A')
                 (A') (A') (A') (A') (A') (A') (A') (A') (A') (A')
                 (A') (A') (A') (A') (A") (A') (A") (A") (A') (A")
                 (A') (A') (A') (A') (A") (A") (A') (A") (A") (A')
                 (A') (A') (A") (A') (A') (A") (A') (A") (A') (A")
                 (A") (A') (A") (A') (A') (A') (A") (A') (A') (A')
                 (A') (A') (A') (A') (A') (A') (A') (A') (A') (A')
                 (A') (A') (A') (A") (A') (A') (A') (A') (A') (A')
                 (A') (A') (A") (A') (A") (A') (A") (A") (A') (A")
                 (A") (A') (A') (A") (A") (A") (A') (A") (A') (A')
                 (A') (A') (A') (A") (A") (A') (A') (A') (A') (A")
                 (A') (A') (A') (A") (A") (A') (A') (A") (A') (A")
                 (A") (A') (A') (A") (A') (A") (A') (A') (A') (A')
                 (A") (A") (A") (A') (A") (A') (A') (A") (A') (A')
                 (A') (A") (A") (A') (A") (A') (A") (A') (A') (A")
                 (A') (A') (A') (A') (A") (A') (A') (A') (A") (A")
                 (A') (A') (A') (A") (A') (A') (A') (A") (A") (A')
                 (A") (A') (A') (A") (A') (A') (A') (A') (A') (A')
                 (A") (A') (A') (A') (A') (A") (A") (A") (A') (A')
                 (A') (A') (A') (A') (A') (A') (A") (A') (A') (A')
                 (A') (A") (A') (A") (A") (A") (A') (A") (A') (A")
                 (A') (A") (A") (A') (A") (A") (A') (A') (A') (A')
                 (A') (A') (A') (A') (A') (A') (A') (A') (A') (A')
                 (A') (A') (A') (A") (A') (A') (A') (A') (A') (A')
                 (A') (A') (A') (A') (A') (A') (A') (A') (A') (A')
                 (A') (A') (A') (A') (A') (A') (A') (A') (A') (A')
                 (A') (A')
 The electronic state is 1-A'.
 Alpha  occ. eigenvalues --  -10.77598 -10.73674 -10.72786 -10.72781 -10.72025
 Alpha  occ. eigenvalues --  -10.71921 -10.71737 -10.70987 -10.70945 -10.70167
 Alpha  occ. eigenvalues --  -10.70147 -10.69844 -10.69775 -10.69400  -1.16517
 Alpha  occ. eigenvalues --   -1.12476  -1.06934  -1.05825  -1.01299  -1.00360
 Alpha  occ. eigenvalues --   -0.95629  -0.91042  -0.86436  -0.85886  -0.83804
 Alpha  occ. eigenvalues --   -0.78342  -0.76122  -0.74372  -0.69758  -0.69260
 Alpha  occ. eigenvalues --   -0.68375  -0.68090  -0.68089  -0.65123  -0.64269
 Alpha  occ. eigenvalues --   -0.62789  -0.61705  -0.60364  -0.59339  -0.59194
 Alpha  occ. eigenvalues --   -0.56872  -0.55389  -0.54493  -0.52438  -0.47160
 Alpha  occ. eigenvalues --   -0.46116  -0.43942
 Alpha virt. eigenvalues --   -0.26104  -0.14686  -0.14062  -0.12759  -0.11187
 Alpha virt. eigenvalues --   -0.10091  -0.09252  -0.07966  -0.07931  -0.07483
 Alpha virt. eigenvalues --   -0.07209  -0.07136  -0.05646  -0.05575  -0.05345
 Alpha virt. eigenvalues --   -0.03843  -0.03660  -0.03273  -0.03133  -0.02159
 Alpha virt. eigenvalues --   -0.01353  -0.00951   0.00188   0.00589   0.00655
 Alpha virt. eigenvalues --    0.01064   0.01505   0.01937   0.02163   0.02302
 Alpha virt. eigenvalues --    0.02450   0.02673   0.02784   0.03238   0.03442
 Alpha virt. eigenvalues --    0.04226   0.04499   0.04716   0.05038   0.05382
 Alpha virt. eigenvalues --    0.06028   0.06294   0.06585   0.07054   0.07265
 Alpha virt. eigenvalues --    0.07901   0.08107   0.08356   0.08613   0.08912
 Alpha virt. eigenvalues --    0.09501   0.09583   0.09981   0.10830   0.10991
 Alpha virt. eigenvalues --    0.11123   0.12110   0.12259   0.12720   0.13021
 Alpha virt. eigenvalues --    0.13474   0.13525   0.14000   0.14318   0.15944
 Alpha virt. eigenvalues --    0.16349   0.16453   0.17337   0.17520   0.17784
 Alpha virt. eigenvalues --    0.18112   0.19063   0.19369   0.19656   0.19880
 Alpha virt. eigenvalues --    0.21534   0.21608   0.22675   0.23129   0.23577
 Alpha virt. eigenvalues --    0.23917   0.24545   0.25368   0.26941   0.27611
 Alpha virt. eigenvalues --    0.28856   0.29300   0.29900   0.31357   0.35815
 Alpha virt. eigenvalues --    0.36457   0.38200   0.39274   0.41068   0.41307
 Alpha virt. eigenvalues --    0.41963   0.42117   0.42990   0.43701   0.44370
 Alpha virt. eigenvalues --    0.44854   0.45107   0.45979   0.46309   0.47901
 Alpha virt. eigenvalues --    0.48421   0.48805   0.49036   0.50517   0.51159
 Alpha virt. eigenvalues --    0.51259   0.52052   0.52133   0.52794   0.54110
 Alpha virt. eigenvalues --    0.54119   0.54625   0.55642   0.55914   0.57520
 Alpha virt. eigenvalues --    0.58231   0.58936   0.61494   0.62215   0.62405
 Alpha virt. eigenvalues --    0.63169   0.63484   0.64919   0.65187   0.67453
 Alpha virt. eigenvalues --    0.70318   0.70502   0.71192   0.72500   0.72927
 Alpha virt. eigenvalues --    0.75629   0.76041   0.76414   0.76763   0.77134
 Alpha virt. eigenvalues --    0.77865   0.78003   0.78282   0.79915   0.80396
 Alpha virt. eigenvalues --    0.81234   0.81585   0.82364   0.83003   0.85252
 Alpha virt. eigenvalues --    0.87111   0.88207   0.88290   0.89233   0.90569
 Alpha virt. eigenvalues --    0.91076   0.91384   0.93262   0.94620   0.96349
 Alpha virt. eigenvalues --    0.96818   1.00309   1.01295   1.01584   1.02828
 Alpha virt. eigenvalues --    1.03246   1.03370   1.04834   1.05970   1.08846
 Alpha virt. eigenvalues --    1.19600   1.23057   1.24165   1.24463   1.28773
 Alpha virt. eigenvalues --    1.29339   1.32057   1.34270   1.35787   1.35994
 Alpha virt. eigenvalues --    1.39341   1.39888   1.40877   1.42932   1.43491
 Alpha virt. eigenvalues --    1.43562   1.44352   1.46352   1.46360   1.46649
 Alpha virt. eigenvalues --    1.47697   1.48160   1.51792   1.53656   1.55746
 Alpha virt. eigenvalues --    1.55793   1.56372   1.56609   1.57812   1.61473
 Alpha virt. eigenvalues --    1.63008   1.63358   1.64152   1.66088   1.68300
 Alpha virt. eigenvalues --    1.68373   1.68694   1.69804   1.74427   1.76019
 Alpha virt. eigenvalues --    1.77165   1.78124   1.79756   1.79939   1.81122
 Alpha virt. eigenvalues --    1.82915   1.83192   1.83558   1.83877   1.84211
 Alpha virt. eigenvalues --    1.84559   1.85494   1.86400   1.88342   1.91425
 Alpha virt. eigenvalues --    1.92172   1.94002   1.95394   1.97769   1.98170
 Alpha virt. eigenvalues --    1.99778   2.02424   2.04558   2.07301   2.11735
 Alpha virt. eigenvalues --    2.12194   2.14270   2.15269   2.19107   2.21272
 Alpha virt. eigenvalues --    2.22765   2.28471   2.30300   2.34489   2.34863
 Alpha virt. eigenvalues --    2.36298   2.38603   2.39681   2.42358   2.44522
 Alpha virt. eigenvalues --    2.46119   2.46527   2.49261   2.52985   2.53825
 Alpha virt. eigenvalues --    2.54318   2.56830   2.57916   2.58396   2.59457
 Alpha virt. eigenvalues --    2.59949   2.61577   2.62120   2.63577   2.63748
 Alpha virt. eigenvalues --    2.64820   2.65086   2.65115   2.65526   2.67976
 Alpha virt. eigenvalues --    2.68485   2.70935   2.71458   2.73382   2.74810
 Alpha virt. eigenvalues --    2.76294   2.78453   2.79662   2.83182   2.83185
 Alpha virt. eigenvalues --    2.84895   2.86289   2.92130   2.97071   2.99469
 Alpha virt. eigenvalues --    3.00118   3.05060   3.09621   3.11273   3.14127
 Alpha virt. eigenvalues --    3.20644   3.22377   3.26358   3.28628   3.30674
 Alpha virt. eigenvalues --    3.32830   3.34748   3.43944   3.46226   3.46897
 Alpha virt. eigenvalues --    3.48379   3.50146   3.56534   3.65684   3.67013
 Alpha virt. eigenvalues --    3.67803   3.93899   3.94086   3.95326   3.96344
 Alpha virt. eigenvalues --    4.03984   4.06602   4.07545   4.12488   4.35333
 Alpha virt. eigenvalues --    4.61057   4.69286   4.71260  23.45220  23.60177
 Alpha virt. eigenvalues --   23.80258  23.82761  23.85406  23.89221  23.91660
 Alpha virt. eigenvalues --   23.95277  23.95775  23.97512  24.03160  24.05799
 Alpha virt. eigenvalues --   24.11298  24.13079
          Condensed to atoms (all electrons):
               1          2          3          4          5          6
     1  C    8.853834   0.105878  -0.433929   2.161397  -0.060280  -0.104433
     2  C    0.105878   7.154622   0.244613  -1.133353   0.007044  -0.014140
     3  C   -0.433929   0.244613   6.583497   0.818813  -0.137707   0.016905
     4  C    2.161397  -1.133353   0.818813  10.568984  -0.370379  -0.114056
     5  C   -0.060280   0.007044  -0.137707  -0.370379  11.546884   0.723951
     6  C   -0.104433  -0.014140   0.016905  -0.114056   0.723951   6.628917
     7  C   -0.008164   0.000699  -0.014447  -0.037218  -1.041451   0.434994
     8  C    0.405252  -0.029141  -0.086707  -0.012295   1.804141  -0.621385
     9  C   -1.176577  -0.768274   0.298563  -0.395680   0.001033   0.291853
    10  C   -1.357476   0.331421  -0.434387  -2.416612  -2.738568  -0.280788
    11  C    0.298236  -1.033683   1.151077  -0.207243  -1.593265  -0.238909
    12  C   -2.408776   1.664201  -1.482791  -1.582106  -0.493733  -0.112087
    13  C    0.227355  -0.299752  -0.102923  -1.418866  -0.377352   0.875166
    14  C   -1.005347  -0.099326  -0.292839  -0.202960  -1.651066  -1.366998
    15  H    0.368942  -0.108200   0.001375   0.028527   0.004855   0.001043
    16  H   -0.018124   0.375915  -0.013398   0.010898  -0.001400  -0.000312
    17  H   -0.031669  -0.008358   0.369070  -0.066975   0.000430   0.000397
    18  H    0.052595   0.002777  -0.084206   0.450507   0.006393  -0.005192
    19  H   -0.048431  -0.008290   0.052407  -0.059659  -0.083442   0.050248
    20  H    0.007272   0.002101  -0.005074   0.006145   0.468726  -0.084624
    21  H   -0.001375  -0.000383   0.000404   0.000175  -0.068518   0.380113
    22  H    0.001011   0.000397  -0.000345  -0.001645   0.016613  -0.020211
    23  H    0.005055  -0.002871   0.001172   0.006312   0.025945  -0.003490
    24  H    0.028100   0.013042  -0.001675  -0.012749  -0.011700  -0.001395
    25  H    0.028100   0.013042  -0.001675  -0.012749  -0.011700  -0.001395
               7          8          9         10         11         12
     1  C   -0.008164   0.405252  -1.176577  -1.357476   0.298236  -2.408776
     2  C    0.000699  -0.029141  -0.768274   0.331421  -1.033683   1.664201
     3  C   -0.014447  -0.086707   0.298563  -0.434387   1.151077  -1.482791
     4  C   -0.037218  -0.012295  -0.395680  -2.416612  -0.207243  -1.582106
     5  C   -1.041451   1.804141   0.001033  -2.738568  -1.593265  -0.493733
     6  C    0.434994  -0.621385   0.291853  -0.280788  -0.238909  -0.112087
     7  C    7.178864   0.475981  -0.864893   0.177077  -0.209560  -0.276545
     8  C    0.475981   8.396357  -1.142627  -1.212424   0.219890  -1.171237
     9  C   -0.864893  -1.142627   9.636491   0.245760   1.541125  -1.714186
    10  C    0.177077  -1.212424   0.245760   9.156669  -0.587784   2.495166
    11  C   -0.209560   0.219890   1.541125  -0.587784  14.352806  -3.476554
    12  C   -0.276545  -1.171237  -1.714186   2.495166  -3.476554  15.899862
    13  C   -0.791980   0.339278   1.618783  -0.320829   1.081874  -4.868571
    14  C    1.099724  -1.857996  -2.150515   2.393910  -4.709895   3.071182
    15  H   -0.002371   0.006588   0.093772  -0.011017  -0.029913  -0.036121
    16  H    0.000324   0.000424   0.003522  -0.008558   0.025442  -0.031893
    17  H   -0.000411  -0.001267  -0.006488   0.021164  -0.030482   0.099652
    18  H    0.002024   0.006954  -0.026409   0.016696  -0.004218  -0.063127
    19  H   -0.007377  -0.043967   0.074973   0.421515   0.083163  -0.041102
    20  H    0.002900   0.047957  -0.022664   0.007561  -0.012361  -0.022822
    21  H   -0.022177  -0.019546  -0.004849   0.019475  -0.006320   0.005331
    22  H    0.380945  -0.019661   0.002981  -0.010131   0.003590  -0.010357
    23  H   -0.104951   0.366493   0.089177  -0.008118  -0.003019   0.007631
    24  H    0.015711   0.037069   0.356430   0.005414   0.003337  -0.059718
    25  H    0.015711   0.037069   0.356430   0.005414   0.003337  -0.059718
              13         14         15         16         17         18
     1  C    0.227355  -1.005347   0.368942  -0.018124  -0.031669   0.052595
     2  C   -0.299752  -0.099326  -0.108200   0.375915  -0.008358   0.002777
     3  C   -0.102923  -0.292839   0.001375  -0.013398   0.369070  -0.084206
     4  C   -1.418866  -0.202960   0.028527   0.010898  -0.066975   0.450507
     5  C   -0.377352  -1.651066   0.004855  -0.001400   0.000430   0.006393
     6  C    0.875166  -1.366998   0.001043  -0.000312   0.000397  -0.005192
     7  C   -0.791980   1.099724  -0.002371   0.000324  -0.000411   0.002024
     8  C    0.339278  -1.857996   0.006588   0.000424  -0.001267   0.006954
     9  C    1.618783  -2.150515   0.093772   0.003522  -0.006488  -0.026409
    10  C   -0.320829   2.393910  -0.011017  -0.008558   0.021164   0.016696
    11  C    1.081874  -4.709895  -0.029913   0.025442  -0.030482  -0.004218
    12  C   -4.868571   3.071182  -0.036121  -0.031893   0.099652  -0.063127
    13  C   14.646994  -4.041993   0.006871   0.002395  -0.006281  -0.012079
    14  C   -4.041993  16.334505   0.004788  -0.007749   0.005222  -0.006224
    15  H    0.006871   0.004788   0.443930  -0.009118   0.001341   0.000067
    16  H    0.002395  -0.007749  -0.009118   0.423103  -0.006228   0.001874
    17  H   -0.006281   0.005222   0.001341  -0.006228   0.423929  -0.010163
    18  H   -0.012079  -0.006224   0.000067   0.001874  -0.010163   0.457532
    19  H    0.076060  -0.090526   0.000248  -0.000514   0.001211  -0.006686
    20  H   -0.009126  -0.047970  -0.000106   0.000012  -0.000126   0.001265
    21  H   -0.023388   0.083460   0.000011  -0.000007   0.000010  -0.000161
    22  H    0.027156  -0.033166  -0.000129   0.000007  -0.000007   0.000019
    23  H   -0.031602  -0.013139   0.000571  -0.000125   0.000016  -0.000122
    24  H    0.023485  -0.059857  -0.000822   0.000639  -0.000148   0.000217
    25  H    0.023485  -0.059857  -0.000822   0.000639  -0.000148   0.000217
              19         20         21         22         23         24
     1  C   -0.048431   0.007272  -0.001375   0.001011   0.005055   0.028100
     2  C   -0.008290   0.002101  -0.000383   0.000397  -0.002871   0.013042
     3  C    0.052407  -0.005074   0.000404  -0.000345   0.001172  -0.001675
     4  C   -0.059659   0.006145   0.000175  -0.001645   0.006312  -0.012749
     5  C   -0.083442   0.468726  -0.068518   0.016613   0.025945  -0.011700
     6  C    0.050248  -0.084624   0.380113  -0.020211  -0.003490  -0.001395
     7  C   -0.007377   0.002900  -0.022177   0.380945  -0.104951   0.015711
     8  C   -0.043967   0.047957  -0.019546  -0.019661   0.366493   0.037069
     9  C    0.074973  -0.022664  -0.004849   0.002981   0.089177   0.356430
    10  C    0.421515   0.007561   0.019475  -0.010131  -0.008118   0.005414
    11  C    0.083163  -0.012361  -0.006320   0.003590  -0.003019   0.003337
    12  C   -0.041102  -0.022822   0.005331  -0.010357   0.007631  -0.059718
    13  C    0.076060  -0.009126  -0.023388   0.027156  -0.031602   0.023485
    14  C   -0.090526  -0.047970   0.083460  -0.033166  -0.013139  -0.059857
    15  H    0.000248  -0.000106   0.000011  -0.000129   0.000571  -0.000822
    16  H   -0.000514   0.000012  -0.000007   0.000007  -0.000125   0.000639
    17  H    0.001211  -0.000126   0.000010  -0.000007   0.000016  -0.000148
    18  H   -0.006686   0.001265  -0.000161   0.000019  -0.000122   0.000217
    19  H    0.443600  -0.005903   0.001635  -0.000568   0.000381   0.000598
    20  H   -0.005903   0.449866  -0.010283   0.001984   0.000250   0.000147
    21  H    0.001635  -0.010283   0.420598  -0.006881   0.001573  -0.000136
    22  H   -0.000568   0.001984  -0.006881   0.415444  -0.008773   0.000621
    23  H    0.000381   0.000250   0.001573  -0.008773   0.434544  -0.000966
    24  H    0.000598   0.000147  -0.000136   0.000621  -0.000966   0.493436
    25  H    0.000598   0.000147  -0.000136   0.000621  -0.000966  -0.079381
              25
     1  C    0.028100
     2  C    0.013042
     3  C   -0.001675
     4  C   -0.012749
     5  C   -0.011700
     6  C   -0.001395
     7  C    0.015711
     8  C    0.037069
     9  C    0.356430
    10  C    0.005414
    11  C    0.003337
    12  C   -0.059718
    13  C    0.023485
    14  C   -0.059857
    15  H   -0.000822
    16  H    0.000639
    17  H   -0.000148
    18  H    0.000217
    19  H    0.000598
    20  H    0.000147
    21  H   -0.000136
    22  H    0.000621
    23  H   -0.000966
    24  H   -0.079381
    25  H    0.493436
 Mulliken charges:
               1
     1  C    0.111556
     2  C   -0.409982
     3  C   -0.445792
     4  C   -0.007213
     5  C    0.034549
     6  C   -0.434169
     7  C   -0.403409
     8  C    0.074800
     9  C   -0.337731
    10  C    0.089449
    11  C   -0.620671
    12  C    0.668418
    13  C   -0.644161
    14  C    0.704632
    15  H    0.235689
    16  H    0.252231
    17  H    0.246309
    18  H    0.219453
    19  H    0.189829
    20  H    0.224727
    21  H    0.251374
    22  H    0.260487
    23  H    0.239022
    24  H    0.250302
    25  H    0.250302
 Sum of Mulliken charges =   1.00000
 Mulliken charges with hydrogens summed into heavy atoms:
               1
     1  C    0.347244
     2  C   -0.157750
     3  C   -0.199484
     4  C    0.212240
     5  C    0.259275
     6  C   -0.182795
     7  C   -0.142922
     8  C    0.313822
     9  C    0.162874
    10  C    0.279278
    11  C   -0.620671
    12  C    0.668418
    13  C   -0.644161
    14  C    0.704632
 Electronic spatial extent (au):  <R**2>=           2856.0173
 Charge=              1.0000 electrons
 Dipole moment (field-independent basis, Debye):
    X=              0.2760    Y=             -0.8896    Z=              0.0000  Tot=              0.9314
 Quadrupole moment (field-independent basis, Debye-Ang):
   XX=            -50.9605   YY=            -36.3433   ZZ=            -84.1320
   XY=            -10.2980   XZ=              0.0000   YZ=              0.0000
 Traceless Quadrupole moment (field-independent basis, Debye-Ang):
   XX=              6.1848   YY=             20.8020   ZZ=            -26.9868
   XY=            -10.2980   XZ=              0.0000   YZ=              0.0000
 Octapole moment (field-independent basis, Debye-Ang**2):
  XXX=              2.7801  YYY=             -2.8886  ZZZ=              0.0000  XYY=              2.9376
  XXY=             -7.7834  XXZ=              0.0000  XZZ=              3.3738  YZZ=              0.2328
  YYZ=              0.0000  XYZ=              0.0000
 Hexadecapole moment (field-independent basis, Debye-Ang**3):
 XXXX=           -987.2185 YYYY=          -1851.7548 ZZZZ=            -99.3135 XXXY=            346.6529
 XXXZ=              0.0000 YYYX=            273.6218 YYYZ=              0.0000 ZZZX=              0.0000
 ZZZY=              0.0000 XXYY=           -453.5389 XXZZ=           -241.4890 YYZZ=           -494.8729
 XXYZ=              0.0000 YYXZ=              0.0000 ZZXY=            182.8749
 N-N= 7.812400413206D+02 E-N=-2.798836259977D+03  KE= 5.375282822639D+02
 Symmetry A'   KE= 5.228757038715D+02
 Symmetry A"   KE= 1.465257839247D+01
 Unable to Open any file for archive entry.
 1\1\GINC-GADI-CPU-CLX-1834\SP\RM062X TD-FC\6-311++G(d,p)\C14H11(1+)\TS
 1578\27-Jul-2022\0\\#n M062X/6-311++G(d,p) TD(NStates=1) EmpiricalDisp
 ersion=GD3 SP\\SP_-12\\1,1\C,0,0.,2.511855,1.360431\C,0,0.,3.723108,0.
 681589\C,0,0.,3.694661,-0.69463\C,0,0.,2.439156,-1.397938\C,0,0.,-2.48
 7156,-1.417138\C,0,0.,-3.673061,-0.73303\C,0,0.,-3.679908,0.662389\C,0
 ,0.,-2.473455,1.360431\C,0,0.,0.0096,1.453369\C,0,0.,-0.0348,-1.429189
 \C,0,0.,1.251255,0.663865\C,0,0.,1.226671,-0.729604\C,0,0.,-1.272855,0
 .690265\C,0,0.,-1.248271,-0.732004\H,0,0.,2.494071,2.443647\H,0,0.,4.6
 58353,1.220089\H,0,0.,4.610462,-1.269949\H,0,0.,2.45675,-2.480459\H,0,
 0.,-0.03,-2.510266\H,0,0.,-2.47835,-2.499659\H,0,0.,-4.608062,-1.27474
 9\H,0,0.,-4.615153,1.203289\H,0,0.,-2.482071,2.443647\H,0,-0.859585,0.
 0528,2.145787\H,0,0.859585,0.0528,2.145787\\Version=ES64L-G16RevC.01\S
 tate=1-A'\HF=-539.7552163\RMSD=9.061e-09\PG=CS [SG(C14H9),X(H2)]\\@
 The archive entry for this job was punched.


 SUCCESS-- IF YOU HAVE TRIED TO DO SOMETHING AND FAILED
           YOU ARE BETTER OFF THAN IF YOU HAD TRIED TO DO
           NOTHING AND SUCCEEDED.

                   -- FROM THE BACK OF A SUGAR PACKET
 Job cpu time:       0 days  0 hours 35 minutes 38.7 seconds.
 Elapsed time:       0 days  0 hours  2 minutes 24.6 seconds.
 File lengths (MBytes):  RWF=    460 Int=      0 D2E=      0 Chk=     15 Scr=      1
 Normal termination of Gaussian 16 at Wed Jul 27 12:12:12 2022.
